// -*- C++ -*-
// File generated by PyFoam - sorry for the ugliness

FoamFile
{
 version 2.0;
 format ascii;
 class volVectorField;
 location "200";
 object U;
}

dimensions [ 0 1 -1 0 0 0 0 ];

internalField nonuniform List<vector> 459
(
  (0.110975 0.0660197 0)
  (-0.137111 -0.00222061 0)
  (-0.106458 0.000867803 0)
  (-0.112525 0.00324057 0)
  (-0.120151 0.0035018 0)
  (-0.12766 0.00268418 0)
  (-0.133759 0.00119734 0)
  (-0.137565 -0.000821799 0)
  (-0.138334 -0.00334843 0)
  (-0.135298 -0.00646863 0)
  (-0.12735 -0.0103343 0)
  (-0.112828 -0.0151916 0)
  (-0.0909634 -0.0219666 0)
  (-0.0681927 -0.0323068 0)
  (-0.0689472 -0.0449211 0)
  (0.0225055 0.0164196 0)
  (-0.0465414 -0.00940517 0)
  (-0.033063 -0.00946829 0)
  (-0.0302808 -0.00508969 0)
  (-0.0287652 -0.00393174 0)
  (-0.0262265 -0.00636344 0)
  (-0.0183873 -0.0118119 0)
  (-0.0110473 -0.0167403 0)
  (0.00602704 -0.0108661 0)
  (0.0135234 -0.00796277 0)
  (0.019438 -0.0060848 0)
  (0.0240435 -0.00476412 0)
  (0.0276633 -0.00362273 0)
  (0.0305499 -0.00215366 0)
  (0.032629 -0.00103051 0)
  (0.0349939 -0.00221364 0)
  (0.0387835 -0.00546027 0)
  (0.0493599 -0.0018553 0)
  (-0.0153188 0.0203627 0)
  (0.317967 0.145578 0)
  (-0.164151 0.00974094 0)
  (-0.0982801 0.00755601 0)
  (-0.110478 0.0112738 0)
  (-0.119326 0.0121532 0)
  (-0.12728 0.0109338 0)
  (-0.133632 0.00826159 0)
  (-0.137803 0.00439624 0)
  (-0.139186 -0.000608312 0)
  (-0.13718 -0.00679335 0)
  (-0.13116 -0.0141139 0)
  (-0.12024 -0.0226235 0)
  (-0.104094 -0.0330999 0)
  (-0.0845803 -0.0469295 0)
  (-0.0659361 -0.0622009 0)
  (-0.0493076 -0.0683162 0)
  (0.0351668 0.00969464 0)
  (0.138042 0.0241262 0)
  (0.0517754 0.0143261 0)
  (0.0184282 0.00616256 0)
  (0.0054163 0.00380025 0)
  (0.000386287 0.00518397 0)
  (-0.00925976 0.00449231 0)
  (-0.00700761 -0.0107273 0)
  (-0.012489 -0.0184641 0)
  (-0.00796093 -0.0117872 0)
  (-0.00620039 -0.00769278 0)
  (-0.00635451 -0.00552098 0)
  (-0.00723862 -0.00377106 0)
  (-0.00862927 -0.00163347 0)
  (-0.0111265 0.000194533 0)
  (-0.0124945 -0.00241551 0)
  (-0.010838 -0.0112936 0)
  (-0.00611164 -0.0186535 0)
  (0.0274858 -0.00465686 0)
  (-0.10508 0.0482101 0)
  (0.48586 0.222272 0)
  (-0.209933 0.034836 0)
  (-0.082311 0.0206623 0)
  (-0.103037 0.0206548 0)
  (-0.11323 0.02024 0)
  (-0.121633 0.0174982 0)
  (-0.128407 0.012798 0)
  (-0.133275 0.00638365 0)
  (-0.135863 -0.00162161 0)
  (-0.13564 -0.0110938 0)
  (-0.132643 -0.0220113 0)
  (-0.126822 -0.0342329 0)
  (-0.118596 -0.0477813 0)
  (-0.109074 -0.0621364 0)
  (-0.0997851 -0.0740914 0)
  (-0.0938933 -0.0775785 0)
  (-0.100452 -0.0709813 0)
  (0.0844443 0.00779648 0)
  (-0.0402943 0.0121045 0)
  (-0.0328402 0.0131912 0)
  (-0.0274555 0.00876774 0)
  (-0.0202551 0.00451322 0)
  (-0.0188967 -0.00104748 0)
  (0.0157387 -0.00750413 0)
  (-0.0192102 -0.0158026 0)
  (-0.0331501 -0.00984103 0)
  (-0.0413364 -0.00696823 0)
  (-0.0468946 -0.00538722 0)
  (-0.0506832 -0.00437514 0)
  (-0.0530853 -0.00374224 0)
  (-0.0541246 -0.00376343 0)
  (-0.0527838 -0.00548952 0)
  (-0.0430002 -0.00773881 0)
  (-0.0524392 -0.000746475 0)
  (-0.0808869 0.0117075 0)
  (-0.167745 0.0256398 0)
  (0.618677 0.285346 0)
  (-0.253175 0.0654219 0)
  (-0.0628434 0.0368203 0)
  (-0.0922544 0.0318369 0)
  (-0.103646 0.0295283 0)
  (-0.111545 0.0252306 0)
  (-0.11782 0.0189366 0)
  (-0.12246 0.0107119 0)
  (-0.125367 0.000632061 0)
  (-0.126248 -0.011042 0)
  (-0.125628 -0.0238229 0)
  (-0.124376 -0.0372521 0)
  (-0.123583 -0.0508232 0)
  (-0.124583 -0.0632275 0)
  (-0.129225 -0.0712074 0)
  (-0.14089 -0.0686865 0)
  (-0.15875 -0.0443327 0)
  (-0.152373 0.015662 0)
  (-0.110617 0.00919305 0)
  (-0.104656 0.0105427 0)
  (-0.0903421 0.00618342 0)
  (-0.0842794 0.000786594 0)
  (-0.0812974 -0.00530188 0)
  (-0.0802236 -0.0107502 0)
  (-0.0762629 -0.00983992 0)
  (-0.0655336 -0.0102099 0)
  (-0.0545113 -0.0109438 0)
  (-0.0431605 -0.0112841 0)
  (-0.0320317 -0.0111481 0)
  (-0.0217021 -0.0105419 0)
  (-0.0124802 -0.00959028 0)
  (-0.00395477 -0.00845151 0)
  (0.00733375 -0.00644946 0)
  (0.00505852 -0.0101932 0)
  (0.0153507 -0.00444104 0)
  (0.0325399 -0.00390882 0)
  (-0.089414 -0.00945447 0)
  (0.721664 0.33706 0)
  (-0.288502 0.0988906 0)
  (-0.0441795 0.0535029 0)
  (-0.078718 0.0432343 0)
  (-0.0913031 0.0380353 0)
  (-0.0975563 0.0316769 0)
  (-0.101776 0.0237105 0)
  (-0.104365 0.0139842 0)
  (-0.105486 0.00245377 0)
  (-0.105063 -0.0104373 0)
  (-0.104248 -0.0235853 0)
  (-0.104268 -0.0362518 0)
  (-0.106202 -0.0480481 0)
  (-0.110846 -0.0582218 0)
  (-0.118708 -0.0652754 0)
  (-0.129255 -0.0666988 0)
  (-0.1379 -0.0577676 0)
  (-0.138429 -0.0342034 0)
  (-0.129416 -0.0152645 0)
  (-0.117186 -0.00516888 0)
  (-0.105215 -0.00355603 0)
  (-0.0964427 -0.00517132 0)
  (-0.0898551 -0.00859849 0)
  (-0.0847964 -0.0120419 0)
  (-0.0792757 -0.0133197 0)
  (-0.0723832 -0.0148732 0)
  (-0.0650778 -0.0158891 0)
  (-0.0577059 -0.0161667 0)
  (-0.0506222 -0.0156019 0)
  (-0.0441325 -0.014356 0)
  (-0.0382458 -0.0129378 0)
  (-0.0323978 -0.0121696 0)
  (-0.0255728 -0.0129272 0)
  (-0.0176372 -0.0170704 0)
  (-0.00342758 -0.0198456 0)
  (0.0274892 -0.02112 0)
  (0.054839 -0.0215712 0)
  (0.101507 -0.0279498 0)
  (0.136102 0.00120074 0)
  (-0.0422465 0.06252 0)
  (0.785813 0.383529 0)
  (-0.3169 0.129804 0)
  (-0.0314619 0.0639245 0)
  (-0.0598175 0.0547315 0)
  (-0.0745959 0.0457687 0)
  (-0.0792582 0.0358707 0)
  (-0.0802379 0.0256646 0)
  (-0.0792029 0.0144809 0)
  (-0.0766118 0.00177242 0)
  (-0.0727501 -0.0117806 0)
  (-0.0701884 -0.0241262 0)
  (-0.0698144 -0.0347476 0)
  (-0.0724016 -0.0437552 0)
  (-0.0781539 -0.0508812 0)
  (-0.0867428 -0.0550139 0)
  (-0.0967462 -0.0541812 0)
  (-0.104655 -0.0465535 0)
  (-0.107206 -0.0340304 0)
  (-0.104203 -0.0225113 0)
  (-0.0978302 -0.0150433 0)
  (-0.0907815 -0.0121503 0)
  (-0.0847692 -0.0122182 0)
  (-0.080129 -0.0141782 0)
  (-0.0766805 -0.0166253 0)
  (-0.073658 -0.0184735 0)
  (-0.0706493 -0.0200528 0)
  (-0.0678415 -0.0209776 0)
  (-0.065488 -0.0208986 0)
  (-0.0639158 -0.0196996 0)
  (-0.063394 -0.0177024 0)
  (-0.0639357 -0.0157413 0)
  (-0.065205 -0.0150267 0)
  (-0.066577 -0.0170549 0)
  (-0.0669299 -0.0232554 0)
  (-0.0629664 -0.0334644 0)
  (-0.0507624 -0.0489048 0)
  (-0.0326864 -0.0702373 0)
  (-0.00844647 -0.0832147 0)
  (0.105185 -0.00462217 0)
  (-0.0813374 0.12475 0)
  (0.802268 0.427037 0)
  (-0.328365 0.13125 0)
  (-0.0135696 0.0416268 0)
  (-0.0154717 0.0652522 0)
  (-0.0394749 0.0562901 0)
  (-0.0482022 0.0363377 0)
  (-0.0466284 0.0219227 0)
  (-0.0416694 0.00923435 0)
  (-0.0335481 -0.00435092 0)
  (-0.0273915 -0.0169719 0)
  (-0.023888 -0.0266737 0)
  (-0.0235926 -0.0338293 0)
  (-0.0268193 -0.0393657 0)
  (-0.0333791 -0.0436619 0)
  (-0.0424935 -0.046126 0)
  (-0.0525968 -0.0453219 0)
  (-0.0611138 -0.0402319 0)
  (-0.0659518 -0.0324368 0)
  (-0.0669128 -0.0248338 0)
  (-0.0652609 -0.0193314 0)
  (-0.0626078 -0.0164981 0)
  (-0.06016 -0.015824 0)
  (-0.0585028 -0.0166667 0)
  (-0.0577878 -0.0181592 0)
  (-0.0578268 -0.0195983 0)
  (-0.0585297 -0.0206528 0)
  (-0.0600787 -0.0208001 0)
  (-0.0628372 -0.0195834 0)
  (-0.0674052 -0.0169193 0)
  (-0.0744604 -0.0134298 0)
  (-0.0844039 -0.0103886 0)
  (-0.0969965 -0.00908401 0)
  (-0.111423 -0.0110253 0)
  (-0.126605 -0.0178333 0)
  (-0.141457 -0.0316881 0)
  (-0.154 -0.0544404 0)
  (-0.159506 -0.0821539 0)
  (-0.150086 -0.0922733 0)
  (-0.123796 -0.028044 0)
  (-0.163863 0.230026 0)
  (0.90311 0.450604 0)
  (-0.127987 0.109729 0)
  (0.0681123 -0.0155291 0)
  (0.102845 0.0428923 0)
  (0.0592374 0.0512502 0)
  (0.0305273 0.0249539 0)
  (0.0255801 0.00525632 0)
  (0.0270488 -0.00739077 0)
  (0.0331144 -0.017049 0)
  (0.035693 -0.0244803 0)
  (0.0354657 -0.0294969 0)
  (0.0328065 -0.0325285 0)
  (0.0276664 -0.0343512 0)
  (0.0200636 -0.0355477 0)
  (0.0103653 -0.0361583 0)
  (-0.000594141 -0.0354715 0)
  (-0.0104841 -0.0325614 0)
  (-0.0176301 -0.0280107 0)
  (-0.021936 -0.0232864 0)
  (-0.0240724 -0.0195211 0)
  (-0.0250579 -0.0172126 0)
  (-0.02578 -0.0162799 0)
  (-0.0268222 -0.0164022 0)
  (-0.0284818 -0.0170624 0)
  (-0.0308144 -0.0177278 0)
  (-0.0338418 -0.0178788 0)
  (-0.0376769 -0.016796 0)
  (-0.0425453 -0.0137205 0)
  (-0.048994 -0.008165 0)
  (-0.0576623 -0.000311077 0)
  (-0.0697239 0.00848145 0)
  (-0.0882193 0.0152004 0)
  (-0.114634 0.0160431 0)
  (-0.149107 0.00725247 0)
  (-0.189898 -0.01244 0)
  (-0.232583 -0.0403648 0)
  (-0.268712 -0.069909 0)
  (-0.301281 -0.093644 0)
  (-0.369269 -0.0973873 0)
  (-0.636001 -0.0565269 0)
  (1.04278 0.415429 0)
  (0.500775 0.253764 0)
  (0.414156 0.1869 0)
  (0.382119 0.180091 0)
  (0.271472 0.141653 0)
  (0.203859 0.090951 0)
  (0.174003 0.0508885 0)
  (0.156036 0.0229135 0)
  (0.13788 0.00243578 0)
  (0.121172 -0.0116648 0)
  (0.107827 -0.0200714 0)
  (0.0966485 -0.0243403 0)
  (0.0864473 -0.0259878 0)
  (0.0764025 -0.0261374 0)
  (0.0660199 -0.025493 0)
  (0.0552524 -0.0244124 0)
  (0.0448355 -0.0228182 0)
  (0.03581 -0.0206371 0)
  (0.0287206 -0.0182456 0)
  (0.0234318 -0.01616 0)
  (0.0193847 -0.0147194 0)
  (0.0159559 -0.0139923 0)
  (0.0126474 -0.0138651 0)
  (0.00914127 -0.0140763 0)
  (0.00531975 -0.0142809 0)
  (0.00119754 -0.0140378 0)
  (-0.00307791 -0.0126649 0)
  (-0.00707827 -0.00941166 0)
  (-0.010472 -0.00364465 0)
  (-0.012579 0.00501226 0)
  (-0.0145181 0.0161591 0)
  (-0.0165418 0.0280768 0)
  (-0.0193791 0.037383 0)
  (-0.0232945 0.0403468 0)
  (-0.0276288 0.0341038 0)
  (-0.034326 0.0171105 0)
  (-0.0492736 -0.0109815 0)
  (-0.0378623 -0.0550761 0)
  (-0.0464324 -0.151844 0)
  (-0.53487 -0.276927 0)
  (-1.22579 0.149129 0)
  (0.212495 0.195154 0)
  (0.137852 0.14077 0)
  (0.143051 0.092547 0)
  (0.161343 0.055849 0)
  (0.169026 0.0301997 0)
  (0.167184 0.0129786 0)
  (0.160841 0.00139452 0)
  (0.152645 -0.0064294 0)
  (0.143675 -0.0112135 0)
  (0.134357 -0.0136368 0)
  (0.124986 -0.0143634 0)
  (0.115688 -0.0139927 0)
  (0.106454 -0.01305 0)
  (0.0973625 -0.0119051 0)
  (0.0887093 -0.0107757 0)
  (0.0808545 -0.00982929 0)
  (0.0739654 -0.00918464 0)
  (0.0679425 -0.00887808 0)
  (0.0625307 -0.00886642 0)
  (0.0574518 -0.0090566 0)
  (0.0524943 -0.00931017 0)
  (0.0475725 -0.0094464 0)
  (0.0427505 -0.00921822 0)
  (0.0382828 -0.00825 0)
  (0.0346793 -0.00603011 0)
  (0.0326953 -0.00204512 0)
  (0.0330623 0.00428676 0)
  (0.036304 0.0129622 0)
  (0.0426296 0.0224043 0)
  (0.0511717 0.0293944 0)
  (0.0603649 0.0302377 0)
  (0.0685177 0.0230264 0)
  (0.0743052 0.0094939 0)
  (0.0772997 -0.00554578 0)
  (0.083939 -0.0226135 0)
  (0.139691 -0.0822254 0)
  (-0.160542 -0.213448 0)
  (-0.582574 0.156712 0)
  (0.214506 0.0994769 0)
  (0.0835133 0.068157 0)
  (0.109741 0.0507561 0)
  (0.148095 0.0312337 0)
  (0.169613 0.0147094 0)
  (0.177439 0.0025541 0)
  (0.178363 -0.00607648 0)
  (0.175608 -0.0117223 0)
  (0.170655 -0.0150517 0)
  (0.164387 -0.0166773 0)
  (0.157537 -0.0170947 0)
  (0.150648 -0.0166981 0)
  (0.144012 -0.0157959 0)
  (0.137712 -0.0146179 0)
  (0.131716 -0.0133233 0)
  (0.125963 -0.0120119 0)
  (0.120396 -0.0107302 0)
  (0.114965 -0.00948321 0)
  (0.109635 -0.00825285 0)
  (0.104376 -0.00700896 0)
  (0.0991767 -0.00570213 0)
  (0.0940747 -0.00425622 0)
  (0.089189 -0.00256511 0)
  (0.0847699 -0.000442547 0)
  (0.0812725 0.00243627 0)
  (0.0794489 0.00646904 0)
  (0.0800505 0.0116056 0)
  (0.0842069 0.0176222 0)
  (0.09248 0.0238889 0)
  (0.10413 0.0285824 0)
  (0.117088 0.0294629 0)
  (0.128433 0.0254472 0)
  (0.135304 0.0169992 0)
  (0.134813 0.0026563 0)
  (0.125771 -0.0196451 0)
  (0.154719 -0.065633 0)
  (-0.193489 -0.151371 0)
  (0.172247 -0.136646 0)
  (-0.140794 -0.0210957 0)
  (-0.266972 0.179641 0)
  (0.192148 0.0573773 0)
  (0.106656 0.0448098 0)
  (0.119212 0.0432316 0)
  (0.154842 0.0379348 0)
  (0.178564 0.0332005 0)
  (0.188835 0.0302929 0)
  (0.191363 0.0289278 0)
  (0.189938 0.0282417 0)
  (0.186361 0.027909 0)
  (0.181607 0.0278628 0)
  (0.176427 0.0279744 0)
  (0.171432 0.0280676 0)
  (0.167031 0.0279405 0)
  (0.163422 0.0273797 0)
  (0.160625 0.0261793 0)
  (0.158527 0.0241692 0)
  (0.156923 0.021246 0)
  (0.15557 0.0173872 0)
  (0.154243 0.0126402 0)
  (0.152772 0.00709955 0)
  (0.151065 0.000894254 0)
  (0.14909 -0.00581692 0)
  (0.146885 -0.0128654 0)
  (0.144587 -0.0200527 0)
  (0.142492 -0.0270909 0)
  (0.141246 -0.0335427 0)
  (0.141513 -0.0385621 0)
  (0.144097 -0.0412117 0)
  (0.149976 -0.0414462 0)
  (0.159333 -0.040507 0)
  (0.170755 -0.0405794 0)
  (0.181266 -0.0435764 0)
  (0.187655 -0.0505717 0)
  (0.185378 -0.0601427 0)
  (0.170726 -0.0725303 0)
  (0.181711 -0.0920653 0)
  (-0.20649 -0.135746 0)
)
;

boundaryField
{
  floor
  {
    type noSlip;
  }
  ceiling
  {
    type noSlip;
  }
  sWall
  {
    type noSlip;
  }
  nWall
  {
    type noSlip;
  }
  sideWalls
  {
    type empty;
  }
  glass1
  {
    type noSlip;
  }
  glass2
  {
    type noSlip;
  }
  sun
  {
    type noSlip;
  }
  heatsource1
  {
    type noSlip;
  }
  heatsource2
  {
    type noSlip;
  }
  Table_master
  {
    type noSlip;
  }
  Table_slave
  {
    type noSlip;
  }
  inlet
  {
    type fixedValue;
    value uniform (0.3 0 0);
  }
  outlet
  {
    type zeroGradient;
  }
} 	// ************************************************************************* //

