/*--------------------------------*- C++ -*----------------------------------*\
  =========                 |
  \\      /  F ield         | OpenFOAM: The Open Source CFD Toolbox
   \\    /   O peration     | Website:  https://openfoam.org
    \\  /    A nd           | Version:  6
     \\/     M anipulation  |
\*---------------------------------------------------------------------------*/
FoamFile
{
    version     2.0;
    format      ascii;
    class       volScalarField;
    location    "100";
    object      alphat;
}
// * * * * * * * * * * * * * * * * * * * * * * * * * * * * * * * * * * * * * //

dimensions      [1 -1 -1 0 0 0 0];

internalField   nonuniform List<scalar> 
459
(
0.00174585
0.0019688
0.00206655
0.00221508
0.00237858
0.00250476
0.00257439
0.00249597
0.00237381
0.00223609
0.00209128
0.00194589
0.00181039
0.00166542
0.00149676
0.00082384
0.000970283
0.00113833
0.00125877
0.00129364
0.00126838
0.00118884
0.00110361
0.00102738
0.00096145
0.000904539
0.000855238
0.000812052
0.000773744
0.000739013
0.000705748
0.000670824
0.000629216
0.000570401
0.00222302
0.00652897
0.00681999
0.00772233
0.00833141
0.0087511
0.00913381
0.00947017
0.00923531
0.00870033
0.00800368
0.00708911
0.00583989
0.00443428
0.00297002
0.00157359
0.0013571
0.000804014
0.00215323
0.00362872
0.0047415
0.00539722
0.00523137
0.00352143
0.00286872
0.00245981
0.00217218
0.00195962
0.00179792
0.00167414
0.00156569
0.00143991
0.00131194
0.0011891
0.00106749
0.000604404
0.00262373
0.00922623
0.00882355
0.0092115
0.00918175
0.00904759
0.00938655
0.0101149
0.0103905
0.0102221
0.00978666
0.00913279
0.00806803
0.00660214
0.00488167
0.00312397
0.00144443
0.00081047
0.00218164
0.00378931
0.00552215
0.00670608
0.00628675
0.00159123
0.00137852
0.00120575
0.0010672
0.000955947
0.000866164
0.000793502
0.000736746
0.000698846
0.000823457
0.000989492
0.00109963
0.000612955
0.0030056
0.011515
0.0101144
0.00996529
0.00914014
0.00845025
0.00881081
0.00973249
0.0103288
0.0104185
0.0101895
0.0097736
0.00905307
0.00791362
0.00638899
0.00461051
0.00259112
0.00150588
0.00167888
0.00288416
0.00493337
0.00703145
0.00841824
0.00782314
0.00181752
0.0016549
0.00152672
0.0014168
0.00131406
0.00121246
0.00110809
0.00099718
0.000870803
0.000810153
0.000917677
0.00108904
0.000614918
0.00338055
0.013952
0.0119629
0.0109558
0.00913595
0.00806076
0.00850837
0.00956205
0.0103435
0.0105666
0.0104369
0.0101668
0.00972249
0.00894221
0.00782063
0.00648083
0.00511434
0.00491472
0.00592378
0.00753012
0.00926917
0.0106746
0.0114656
0.0113028
0.00925258
0.00805785
0.00702327
0.00602966
0.00506944
0.0041411
0.00324395
0.00238374
0.00158096
0.00105153
0.000986693
0.00110296
0.000718159
0.000596122
0.000610231
0.000621519
0.00374363
0.0162106
0.0145553
0.0117154
0.00892456
0.00789695
0.00846557
0.0096767
0.0106022
0.0109254
0.010945
0.0109727
0.0108439
0.0104179
0.00978917
0.00915667
0.00880088
0.00949108
0.0110299
0.0124184
0.0134482
0.0140047
0.0140628
0.0135809
0.0124414
0.0110691
0.00957462
0.00808072
0.00663259
0.00525158
0.00394977
0.00273294
0.00178211
0.00124295
0.00117179
0.0012287
0.00095462
0.000998154
0.00151431
0.000861926
0.00395895
0.0169032
0.0156885
0.0111501
0.00833193
0.00767049
0.00857977
0.0100205
0.0110727
0.0115425
0.012
0.0125758
0.0126443
0.0124821
0.0123
0.0123061
0.0127132
0.013762
0.0149705
0.0157211
0.016015
0.0158705
0.0153328
0.0144308
0.0131367
0.0115749
0.0099212
0.00827079
0.00668411
0.00521054
0.00390112
0.00281404
0.00204525
0.00166344
0.00163099
0.00163692
0.00147339
0.0014832
0.00163761
0.00100327
0.00394661
0.012721
0.0110481
0.00828189
0.00693103
0.00733095
0.00888829
0.0105935
0.0117197
0.0125725
0.0135039
0.014059
0.0141936
0.0142569
0.0144311
0.0148045
0.0154305
0.0162415
0.0168623
0.0170176
0.0167256
0.0160377
0.0150298
0.0137672
0.0123146
0.0107513
0.00915325
0.00759004
0.00612659
0.00482739
0.00375425
0.00295635
0.00245868
0.00223636
0.00219252
0.00218342
0.00224157
0.00218903
0.00299011
0.00114123
0.00378828
0.00429155
0.00447334
0.00443922
0.00536849
0.00741359
0.00975314
0.0114131
0.0126146
0.0135521
0.0142962
0.0145437
0.0146732
0.0148956
0.0152453
0.0156936
0.0161712
0.0165283
0.0165698
0.0162015
0.0154548
0.0144158
0.0131806
0.0118347
0.010445
0.00905686
0.00770374
0.00642339
0.00525801
0.00424287
0.0033916
0.00269882
0.00219907
0.00195775
0.00189762
0.00190194
0.00194182
0.0019538
0.0018675
0.0012751
0.000963249
0.00355876
0.00780249
0.0107043
0.0122471
0.0125798
0.0129012
0.0132441
0.0133363
0.01339
0.0135565
0.0138287
0.0141461
0.0144269
0.0145697
0.0144601
0.0140286
0.0132899
0.0123271
0.0112473
0.0101419
0.00907152
0.00806453
0.00712676
0.0062617
0.00547948
0.00479044
0.00419551
0.00368403
0.00324211
0.00286764
0.00257896
0.00239579
0.00230559
0.00227394
0.0022548
0.00214766
0.00141279
0.00245568
0.0107282
0.0120083
0.0118686
0.0112255
0.0106699
0.0102935
0.010036
0.00992564
0.00996372
0.010102
0.0102846
0.0104571
0.0105611
0.0105347
0.0103287
0.00993551
0.00939667
0.00878101
0.00815452
0.00756076
0.00701973
0.00653614
0.0061088
0.00573615
0.005416
0.00514192
0.00490075
0.00467401
0.00444337
0.0041962
0.00392267
0.00361192
0.00326909
0.00291527
0.00273589
0.00318107
0.00158601
0.00229138
0.00246264
0.00260491
0.00285671
0.00251327
0.0022877
0.00212226
0.00200026
0.00193112
0.0018985
0.0018885
0.00189137
0.00189996
0.0019087
0.00191281
0.00190825
0.00189214
0.00186388
0.00182596
0.00178307
0.00174017
0.00170087
0.00166695
0.00163874
0.00161574
0.00159709
0.00158187
0.00156895
0.00155675
0.00154317
0.00152578
0.00150243
0.00147231
0.00143696
0.00139984
0.00136246
0.0013184
0.00128514
0.00129599
0.00128837
)
;

boundaryField
{
    floor
    {
        type            compressible::alphatWallFunction;
        Prt             0.85;
        value           nonuniform List<scalar> 
29
(
0.000210566
0.000117287
0.000138178
0.000161701
0.000178316
0.000183097
0.00017964
0.000168701
0.000156883
0.000146226
0.000136934
0.000128854
0.000121806
0.000115593
0.000110049
0.000104995
0.000100128
9.49879e-05
8.88213e-05
8.00186e-05
8.00176e-05
8.51234e-05
8.64024e-05
8.6697e-05
0.000210563
0.000117286
0.000114428
0.000115354
0.000211805
)
;
    }
    ceiling
    {
        type            compressible::alphatWallFunction;
        Prt             0.85;
        value           nonuniform List<scalar> 
43
(
0.000314925
0.000336826
0.0003549
0.00038674
0.00034344
0.000314636
0.000293311
0.000277474
0.000268453
0.000264188
0.000262881
0.00026326
0.00026439
0.000265536
0.000266078
0.000265483
0.000263375
0.000259669
0.000254685
0.000249033
0.000243364
0.000238158
0.000233655
0.000229903
0.000226838
0.000224351
0.00022232
0.000220595
0.000218965
0.000217147
0.000214813
0.000211669
0.0002076
0.00020281
0.000197767
0.000192677
0.00018667
0.000182117
0.000183627
0.000182627
0.000501796
0.000562691
0.000335539
)
;
    }
    sWall
    {
        type            compressible::alphatWallFunction;
        Prt             0.85;
        value           uniform 0.000313807;
    }
    nWall
    {
        type            compressible::alphatWallFunction;
        Prt             0.85;
        value           nonuniform List<scalar> 6(8.75139e-05 0.000122601 0.000142695 0.000199213 0.00022253 0.000182368);
    }
    sideWalls
    {
        type            empty;
    }
    glass1
    {
        type            compressible::alphatWallFunction;
        Prt             0.85;
        value           nonuniform List<scalar> 9(0.000238167 0.00029967 0.000350339 0.000397947 0.000444144 0.000488423 0.000514546 0.000513219 0.00049434);
    }
    glass2
    {
        type            compressible::alphatWallFunction;
        Prt             0.85;
        value           nonuniform List<scalar> 2(0.000161405 0.00017991);
    }
    sun
    {
        type            compressible::alphatWallFunction;
        Prt             0.85;
        value           nonuniform List<scalar> 
14
(
0.000243768
0.000273041
0.000285767
0.000304981
0.00032597
0.000342061
0.0003509
0.000340941
0.000325363
0.000307694
0.000288989
0.000270067
0.000252294
0.000233114
)
;
    }
    heatsource1
    {
        type            compressible::alphatWallFunction;
        Prt             0.85;
        value           nonuniform List<scalar> 3(8.39268e-05 8.60278e-05 8.76791e-05);
    }
    heatsource2
    {
        type            compressible::alphatWallFunction;
        Prt             0.85;
        value           nonuniform List<scalar> 4(0.000221014 0.000191819 0.000191817 0.000203653);
    }
    Table_master
    {
        type            compressible::alphatWallFunction;
        Prt             0.85;
        value           nonuniform List<scalar> 9(0.000223386 0.00019474 0.000171105 0.000151874 0.000136221 0.000123434 0.000112971 0.00010472 9.91674e-05);
    }
    Table_slave
    {
        type            compressible::alphatWallFunction;
        Prt             0.85;
        value           nonuniform List<scalar> 9(0.000253406 0.000231887 0.00021476 0.000199945 0.000185981 0.000172049 0.000157596 0.000142065 0.000124117);
    }
    inlet
    {
        type            fixedValue;
        value           uniform 1.94e-05;
    }
    outlet
    {
        type            zeroGradient;
    }
}


// ************************************************************************* //
