/*--------------------------------*- C++ -*----------------------------------*\
  =========                 |
  \\      /  F ield         | OpenFOAM: The Open Source CFD Toolbox
   \\    /   O peration     | Website:  https://openfoam.org
    \\  /    A nd           | Version:  6
     \\/     M anipulation  |
\*---------------------------------------------------------------------------*/
FoamFile
{
    version     2.0;
    format      ascii;
    class       volScalarField;
    location    "1800";
    object      epsilon;
}
// * * * * * * * * * * * * * * * * * * * * * * * * * * * * * * * * * * * * * //

dimensions      [0 2 -3 0 0 0 0];

internalField   nonuniform List<scalar> 
459
(
0.000427851
0.000554607
0.000586782
0.000674941
0.00076417
0.000855275
0.000952751
0.00105234
0.00112617
0.00115532
0.00112354
0.00102503
0.000867983
0.000676805
0.000490962
3.54656e-05
6.03104e-05
8.71233e-05
8.98981e-05
8.25451e-05
7.25663e-05
5.99945e-05
4.87517e-05
3.98289e-05
3.29009e-05
2.74962e-05
2.3234e-05
1.98392e-05
1.71e-05
1.48194e-05
1.28297e-05
1.09759e-05
9.91676e-06
7.60684e-06
0.00108057
0.00157866
0.000520426
0.000503642
0.000526215
0.000565856
0.000626953
0.000708056
0.000785539
0.000833688
0.000832179
0.000775426
0.000671998
0.0005443
0.000438987
0.000518366
0.000125365
4.01503e-05
9.48452e-05
0.000106014
9.94905e-05
8.68747e-05
7.42063e-05
6.80437e-05
5.5014e-05
4.3392e-05
3.42294e-05
2.7204e-05
2.1841e-05
1.7739e-05
1.46159e-05
1.23228e-05
1.09134e-05
1.03095e-05
2.62045e-05
1.78741e-05
0.0019677
0.00387993
0.000638896
0.0004767
0.000497484
0.000558165
0.000650812
0.000768623
0.000876996
0.000941451
0.000944481
0.000887465
0.000782084
0.000654107
0.000535574
0.00047738
0.000568569
0.000265959
0.000209564
0.000167325
0.000134515
0.000108898
9.33823e-05
0.000172489
0.000119314
8.5196e-05
6.28463e-05
4.7791e-05
3.73584e-05
2.99472e-05
2.45999e-05
2.0757e-05
1.58322e-05
1.32779e-05
4.94115e-05
2.84918e-05
0.00318504
0.00807232
0.00100715
0.000478571
0.000482232
0.00056741
0.000707285
0.000883288
0.00102089
0.00108706
0.00107822
0.00100567
0.000880131
0.000733495
0.000604441
0.00052082
0.000502467
0.000910707
0.000527506
0.000325014
0.000221905
0.00016266
0.000125611
0.000108304
0.000250432
0.000191841
0.000156221
0.000132295
0.000113889
9.82786e-05
8.4649e-05
7.16913e-05
5.83394e-05
3.47063e-05
2.2455e-05
8.19251e-05
3.93989e-05
0.00486065
0.0144397
0.00199115
0.000559049
0.000484673
0.000597974
0.000850326
0.00111388
0.00126001
0.00130233
0.00126065
0.00115317
0.000994378
0.00081053
0.000633364
0.000488889
0.000390827
0.000350021
0.000288098
0.000231692
0.000186143
0.000150245
0.000122327
0.000102923
9.93243e-05
9.28326e-05
8.6558e-05
8.0315e-05
7.35611e-05
6.61608e-05
5.87532e-05
5.16997e-05
4.52029e-05
3.6285e-05
2.7841e-05
5.88497e-05
4.54208e-05
7.41723e-05
0.000129998
0.000184202
0.00719438
0.0215077
0.00449657
0.00104425
0.000682037
0.000798151
0.00130535
0.00157046
0.00164727
0.00161981
0.00152293
0.00136453
0.00115208
0.000910582
0.000676657
0.00048503
0.000354233
0.000281416
0.000237503
0.000202065
0.000169404
0.000140759
0.000117523
0.000101012
9.27075e-05
8.93089e-05
8.75457e-05
8.53615e-05
8.15284e-05
7.51022e-05
6.59462e-05
5.63165e-05
4.74681e-05
3.95445e-05
3.43236e-05
4.48413e-05
4.69239e-05
5.731e-05
0.000240249
0.000210838
0.00997344
0.025761
0.00938809
0.00345541
0.00222063
0.00220449
0.0024094
0.0023829
0.00225148
0.00208283
0.00188399
0.00163982
0.00134631
0.00102859
0.000728973
0.00049151
0.000337127
0.000254467
0.000210584
0.000178931
0.00015082
0.000127131
0.000109493
9.88236e-05
9.52284e-05
9.65237e-05
9.97313e-05
0.000103067
0.000105298
0.00010473
9.811e-05
8.69617e-05
7.58238e-05
6.63592e-05
6.25764e-05
6.9882e-05
8.9046e-05
0.000142213
0.000326324
0.000317903
0.0106558
0.0287041
0.0156089
0.00995259
0.00707715
0.00547446
0.00434029
0.00357802
0.00306041
0.00267561
0.0023301
0.00196085
0.00154931
0.00112872
0.000747423
0.000463529
0.000295754
0.000213845
0.000174173
0.000147363
0.000125867
0.000110134
0.000100718
9.75244e-05
9.98561e-05
0.000106308
0.00011557
0.00012722
0.000141336
0.000157833
0.000175686
0.000187312
0.000197316
0.000218729
0.000263139
0.000395876
0.000731289
0.00137813
0.00400517
0.001186
0.00990402
0.0168614
0.013529
0.0102198
0.00780056
0.00615254
0.00503992
0.00428063
0.00373351
0.00326915
0.00278838
0.00224504
0.00165176
0.00109504
0.000618696
0.00033284
0.000213377
0.000160327
0.000132321
0.000113524
0.000100469
9.27973e-05
9.02836e-05
9.24582e-05
9.87265e-05
0.000108596
0.000122051
0.000139791
0.000163199
0.00019432
0.000235893
0.000291897
0.000368827
0.000484153
0.000653775
0.000883592
0.001146
0.00137454
0.00155093
0.000970456
0.00493267
0.00663475
0.00668889
0.00620094
0.00552943
0.00488734
0.00424533
0.00353864
0.00275616
0.00191889
0.00105304
0.00056047
0.000301149
0.000181228
0.000128781
0.000102883
8.80549e-05
7.88733e-05
7.34968e-05
7.14486e-05
7.24099e-05
7.60236e-05
8.20887e-05
9.06678e-05
0.000102185
0.000117492
0.000137953
0.000165637
0.000203783
0.000257335
0.000331651
0.000433844
0.000567231
0.000719184
0.000849061
0.00090291
0.000847386
0.000536416
0.00339316
0.00675239
0.0066703
0.00536945
0.00453421
0.00385326
0.00299758
0.00209382
0.00133055
0.000779084
0.000430661
0.000243884
0.000150088
0.000105967
8.49966e-05
7.41288e-05
6.8181e-05
6.52069e-05
6.44357e-05
6.55005e-05
6.81529e-05
7.23851e-05
7.83763e-05
8.64104e-05
9.69773e-05
0.000110885
0.000129405
0.000154493
0.000188883
0.000236195
0.000301341
0.000389225
0.000500349
0.000626266
0.000719587
0.000814589
0.000763862
0.000563901
0.002706
0.00268454
0.00283648
0.00315859
0.00235087
0.00182112
0.00160102
0.00139454
0.00112694
0.00084647
0.000589335
0.000392364
0.000260158
0.000179715
0.000133297
0.000105853
8.86064e-05
7.7451e-05
7.05875e-05
6.71044e-05
6.63645e-05
6.78911e-05
7.14054e-05
7.69117e-05
8.42788e-05
9.36829e-05
0.000105523
0.000120403
0.000139255
0.000163619
0.000194257
0.000232714
0.000281272
0.000342826
0.000420156
0.000527909
0.000564879
0.000522486
0.000429459
0.000343237
)
;

boundaryField
{
    floor
    {
        Cmu             0.09;
        kappa           0.41;
        E               9.8;
        type            epsilonWallFunction;
        value           nonuniform List<scalar> 
29
(
0.000490962
3.54656e-05
6.03104e-05
8.71233e-05
8.98981e-05
8.25451e-05
7.25663e-05
5.99945e-05
4.87517e-05
3.98289e-05
3.29009e-05
2.74962e-05
2.3234e-05
1.98392e-05
1.71e-05
1.48194e-05
1.28297e-05
1.09759e-05
9.91676e-06
7.60684e-06
7.60684e-06
1.78741e-05
2.84918e-05
3.93989e-05
0.000490962
3.54656e-05
4.01503e-05
0.000265959
0.000910707
)
;
    }
    ceiling
    {
        Cmu             0.09;
        kappa           0.41;
        E               9.8;
        type            epsilonWallFunction;
        value           nonuniform List<scalar> 
43
(
0.002706
0.00268454
0.00283648
0.00315859
0.00235087
0.00182112
0.00160102
0.00139454
0.00112694
0.00084647
0.000589335
0.000392364
0.000260158
0.000179715
0.000133297
0.000105853
8.86064e-05
7.7451e-05
7.05875e-05
6.71044e-05
6.63645e-05
6.78911e-05
7.14054e-05
7.69117e-05
8.42788e-05
9.36829e-05
0.000105523
0.000120403
0.000139255
0.000163619
0.000194257
0.000232714
0.000281272
0.000342826
0.000420156
0.000527909
0.000564879
0.000522486
0.000429459
0.000343237
0.00990402
0.0168614
0.00339316
)
;
    }
    sWall
    {
        Cmu             0.09;
        kappa           0.41;
        E               9.8;
        type            epsilonWallFunction;
        value           uniform 0.002706;
    }
    nWall
    {
        Cmu             0.09;
        kappa           0.41;
        E               9.8;
        type            epsilonWallFunction;
        value           nonuniform List<scalar> 6(0.000184202 0.000210838 0.000317903 0.000536416 0.000563901 0.000343237);
    }
    sideWalls
    {
        type            empty;
    }
    glass1
    {
        Cmu             0.09;
        kappa           0.41;
        E               9.8;
        type            epsilonWallFunction;
        value           nonuniform List<scalar> 9(0.000427851 0.00108057 0.0019677 0.00318504 0.00486065 0.00719438 0.00997344 0.0106558 0.00990402);
    }
    glass2
    {
        Cmu             0.09;
        kappa           0.41;
        E               9.8;
        type            epsilonWallFunction;
        value           nonuniform List<scalar> 2(0.001186 0.000970456);
    }
    sun
    {
        Cmu             0.09;
        kappa           0.41;
        E               9.8;
        type            epsilonWallFunction;
        value           nonuniform List<scalar> 
14
(
0.000427851
0.000554607
0.000586782
0.000674941
0.00076417
0.000855275
0.000952751
0.00105234
0.00112617
0.00115532
0.00112354
0.00102503
0.000867983
0.000676805
)
;
    }
    heatsource1
    {
        Cmu             0.09;
        kappa           0.41;
        E               9.8;
        type            epsilonWallFunction;
        value           nonuniform List<scalar> 3(7.41723e-05 0.000129998 0.000184202);
    }
    heatsource2
    {
        Cmu             0.09;
        kappa           0.41;
        E               9.8;
        type            epsilonWallFunction;
        value           nonuniform List<scalar> 4(0.000518366 0.000125365 0.000125365 0.000568569);
    }
    Table_master
    {
        Cmu             0.09;
        kappa           0.41;
        E               9.8;
        type            epsilonWallFunction;
        value           nonuniform List<scalar> 9(0.000172489 0.000119314 8.5196e-05 6.28463e-05 4.7791e-05 3.73584e-05 2.99472e-05 2.45999e-05 2.0757e-05);
    }
    Table_slave
    {
        Cmu             0.09;
        kappa           0.41;
        E               9.8;
        type            epsilonWallFunction;
        value           nonuniform List<scalar> 9(0.000250432 0.000191841 0.000156221 0.000132295 0.000113889 9.82786e-05 8.4649e-05 7.16913e-05 5.83394e-05);
    }
    inlet
    {
        type            turbulentMixingLengthDissipationRateInlet;
        mixingLength    0.01;
        phi             phi;
        k               k;
        value           uniform 0.000101881;
    }
    outlet
    {
        type            zeroGradient;
    }
}


// ************************************************************************* //
