/*--------------------------------*- C++ -*----------------------------------*\
  =========                 |
  \\      /  F ield         | OpenFOAM: The Open Source CFD Toolbox
   \\    /   O peration     | Website:  https://openfoam.org
    \\  /    A nd           | Version:  6
     \\/     M anipulation  |
\*---------------------------------------------------------------------------*/
FoamFile
{
    version     2.0;
    format      ascii;
    class       surfaceScalarField;
    location    "700";
    object      phi;
}
// * * * * * * * * * * * * * * * * * * * * * * * * * * * * * * * * * * * * * //

dimensions      [1 0 -1 0 0 0 0];

internalField   nonuniform List<scalar> 
852
(
-0.00291354
0.00297484
-0.00379431
0.000880803
-0.00457516
0.000780884
-0.00523867
0.000663539
-0.00574951
0.000510873
-0.00608301
0.000333538
-0.0062111
0.000128115
-0.00610021
-0.000110854
-0.00571728
-0.000382894
-0.00505693
-0.000660325
-0.00415972
-0.000897177
-0.0031115
-0.00104819
-0.00202214
-0.00108933
-0.000980898
-0.00104121
-0.000978836
-0.000752963
0.00075661
-0.00034679
-0.000406155
0.000341794
-0.000688567
0.000841214
-0.000499402
0.0011514
-0.000310171
0.00132943
-0.000178009
0.00141885
-8.93971e-05
0.00146302
-4.41565e-05
0.00148778
-2.47438e-05
0.00150208
-1.42801e-05
0.0015089
-6.80391e-06
0.00150892
4.29158e-09
0.00149955
9.38148e-06
0.00147151
2.80649e-05
0.00140174
6.97871e-05
0.00125285
0.000148911
0.00101368
0.000239188
0.000744884
0.000268811
0.00074962
-0.00209979
0.00523967
-0.00304188
0.00182292
-0.00388819
0.00162723
-0.00456006
0.00133544
-0.00507075
0.00102159
-0.00540997
0.000672795
-0.00555189
0.000270063
-0.00546274
-0.000199963
-0.0051152
-0.000730403
-0.00451147
-0.00126402
-0.00370068
-0.00170794
-0.00276949
-0.00197935
-0.00182273
-0.00203606
-0.00100032
-0.00186359
-0.000541088
-0.00143804
0.000112654
-0.000653768
0.000112624
0.000489109
0.000278013
0.000906912
-0.000823941
0.00114192
-0.000923558
0.00135369
-0.000711153
0.00150837
-0.000464831
0.00158967
-0.000259297
0.00159749
-9.71912e-05
0.00160076
-4.74107e-05
0.00160446
-2.8423e-05
0.00160747
-1.72794e-05
0.00160951
-8.82481e-06
0.00161034
-7.99309e-07
0.00160883
1.09033e-05
0.00160092
3.59911e-05
0.00155673
0.000113997
0.00137204
0.000333618
0.00105421
0.000557042
0.000665744
0.000657294
0.00142732
-0.00149835
0.00698962
-0.00235841
0.00268302
-0.00313724
0.00240609
-0.00373156
0.00192981
-0.00419478
0.00148484
-0.00451746
0.000995508
-0.00466733
0.000419968
-0.0045999
-0.000267355
-0.00427998
-0.00105029
-0.00372087
-0.00182309
-0.00298724
-0.00244156
-0.00217161
-0.00279495
-0.00136762
-0.00284002
-0.000674322
-0.00255686
-0.000169887
-0.00194244
0.000184017
-0.00100765
0.000296665
0.00156584
-0.0012762
0.00178761
-0.00104569
0.00173864
-0.000874577
0.00172916
-0.000701653
0.00175199
-0.000487644
0.00174456
-0.000251846
0.00164754
0.0016003
0.00157205
0.00155494
0.00154629
0.00154566
0.00155674
0.0015929
0.00170707
0.00140908
0.000631624
0.00104518
0.000920964
0.000587632
0.00111486
0.00203297
-0.00107661
0.00839019
-0.00181326
0.0034197
-0.00236047
0.00295334
-0.00278889
0.00235826
-0.00314537
0.00184137
-0.00341157
0.00126175
-0.00354732
0.00055575
-0.00348741
-0.000327234
-0.00318238
-0.00135529
-0.002671
-0.00233445
-0.00203805
-0.00307449
-0.00137407
-0.00345892
-0.000744598
-0.00346947
-0.000197592
-0.00310384
0.000279539
-0.00241954
0.000800111
-0.00152819
0.00178534
-0.000688537
0.00239806
-0.000601501
0.00191811
-0.000796233
0.0018006
-0.000928168
0.00171496
-0.000788917
0.00164632
-0.000632994
0.00163224
-0.000473555
0.00168254
-0.000302131
0.00183253
-0.000150124
0.00194996
-0.000117562
0.00205035
-0.000100521
0.00212632
-7.61098e-05
0.00215874
-3.25558e-05
0.00212464
3.39675e-05
0.00200189
0.000122617
0.00176204
0.000239721
0.00135287
0.000409032
0.0011961
0.000788418
0.00086544
0.00125164
0.000355026
0.00162529
0.00241146
-0.000767517
0.00954197
-0.00138294
0.00403516
-0.00156494
0.00313537
-0.00176997
0.00256332
-0.00197033
0.00204177
-0.00213
0.00142145
-0.00221187
0.00063766
-0.00211989
-0.000419189
-0.0018096
-0.00166555
-0.00136843
-0.0027756
-0.000883559
-0.00355936
-0.000422408
-0.00392005
-2.08027e-05
-0.00387105
0.000310922
-0.00343553
0.00061083
-0.00271941
0.000957166
-0.00187449
0.00140587
-0.00113722
0.00160216
-0.000797773
0.00155362
-0.000747674
0.00138818
-0.000762708
0.00126941
-0.000670141
0.00119234
-0.000555905
0.00116849
-0.00044969
0.00121133
-0.000344949
0.00132519
-0.000263966
0.0014372
-0.000229551
0.00154424
-0.000207539
0.00163789
-0.000169742
0.00170299
-9.76424e-05
0.00171718
1.98042e-05
0.00166284
0.000176972
0.00153502
0.000367571
0.00134046
0.000603605
0.00116611
0.000962797
0.00097376
0.00144401
0.000547129
0.00205195
0.000334127
0.00262448
-0.00117807
0.00151201
-0.0016176
0.000439345
-0.0015657
-0.000661234
0.0106376
-0.00113289
0.00450685
-0.000797232
0.00279975
-0.000713997
0.00248012
-0.000745619
0.00207342
-0.000768062
0.00144393
-0.00072517
0.000594804
-0.0005211
-0.00062322
-0.000200284
-0.00198634
0.000124805
-0.00310069
0.000402354
-0.00383691
0.000611212
-0.0041289
0.000738251
-0.00399806
0.000809744
-0.00350698
0.000860316
-0.00276994
0.000926485
-0.00194063
0.00101387
-0.00122458
0.00101904
-0.00080292
0.000926042
-0.000654658
0.000770999
-0.00060765
0.000654533
-0.000553659
0.000594145
-0.000495501
0.000589009
-0.000444535
0.000640617
-0.000396538
0.00073632
-0.000359649
0.000846442
-0.000339653
0.000959464
-0.000320539
0.0010702
-0.000280459
0.00117102
-0.000198437
0.00124452
-5.3673e-05
0.00127317
0.000148339
0.0012633
0.000377464
0.00122767
0.000639262
0.00122022
0.000970264
0.00129415
0.0013701
0.00144986
0.00189626
0.00190819
0.00216617
0.00215186
0.00126837
0.00177198
0.000819244
0.000268829
-0.000887386
0.0120023
-0.000833529
0.00445303
0.000154939
0.00181132
0.000495342
0.00213976
0.0005824
0.00198641
0.0006966
0.00132977
0.000969026
0.00032242
0.00132018
-0.000974329
0.00158568
-0.00225182
0.00171361
-0.00322862
0.00172374
-0.00384706
0.00163889
-0.00404405
0.00146476
-0.00382391
0.00123078
-0.00327296
0.000976516
-0.00251564
0.000735977
-0.00170005
0.000538246
-0.00102682
0.000374922
-0.000639577
0.000231548
-0.000511266
0.000103099
-0.000479184
1.42105e-05
-0.000464752
-2.83027e-05
-0.000452969
-2.95819e-05
-0.000443236
7.12174e-06
-0.00043322
7.29089e-05
-0.000425415
0.00015395
-0.000420672
0.000243353
-0.00040992
0.000342261
-0.000379344
0.000455644
-0.000311797
0.00058736
-0.000185366
0.000714168
2.15542e-05
0.000826478
0.000265178
0.000947258
0.000518504
0.00112261
0.000794935
0.00140732
0.00108541
0.00186953
0.00143407
0.00258231
0.00145341
0.00314069
0.000710014
0.0032341
0.000725854
0.00357268
0.00246099
0.0100718
0.00300103
0.00391302
0.0028489
0.00196349
0.00280179
0.00218691
0.00276695
0.0020213
0.00287325
0.00122352
0.00320738
-1.16423e-05
0.00349491
-0.00126181
0.00351151
-0.00226841
0.00330265
-0.00301978
0.00296291
-0.00350734
0.00252618
-0.00360732
0.00200231
-0.0033
0.0014258
-0.00269642
0.000847966
-0.00193776
0.000322059
-0.00117411
-6.58425e-05
-0.000638889
-0.000294193
-0.000411206
-0.000432901
-0.000372539
-0.000533199
-0.000378866
-0.000606093
-0.000391838
-0.00065462
-0.00040442
-0.000682366
-0.000415469
-0.000691249
-0.000424315
-0.000685094
-0.000431548
-0.000669602
-0.000436142
-0.000646853
-0.000432646
-0.000613144
-0.000413031
-0.000556916
-0.000368002
-0.000455618
-0.000286641
-0.000281705
-0.000152335
-7.10506e-05
5.45467e-05
0.000160861
0.000286616
0.000447583
0.000508236
0.000804905
0.000728108
0.00129297
0.000946028
0.00182702
0.000919391
0.00199879
0.000538263
0.00112419
0.00160048
0.00497556
0.0106529
0.0145597
0.0120782
0.00444501
0.0103303
0.00393489
0.00903318
0.00331843
0.00822409
0.00203265
0.00745673
0.000755757
0.00653337
-0.000338448
0.00552652
-0.0012616
0.00456821
-0.00206153
0.00373504
-0.00267421
0.00292614
-0.00279839
0.00206756
-0.00244138
0.00116912
-0.00179792
0.000299665
-0.00106825
-0.000359399
-0.000515
-0.000726446
-0.000271815
-0.000905868
-0.000231761
-0.00102734
-0.000251047
-0.0011276
-0.000278588
-0.00121671
-0.000302701
-0.00129861
-0.000322501
-0.00137575
-0.000338306
-0.00144998
-0.000350061
-0.00152435
-0.000357157
-0.00160341
-0.000357057
-0.00169199
-0.000344043
-0.00179572
-0.000309286
-0.00192238
-0.000241321
-0.00208197
-0.000127021
-0.00227959
4.53048e-05
-0.00250432
0.000279296
-0.00280551
0.000587837
-0.0032848
0.000987544
-0.00403594
0.00147927
-0.00511521
0.00202532
-0.00663181
0.00243601
-0.00845145
0.00235793
-0.00787885
0.0010279
-0.00259392
0.00545983
0.00547821
0.00488431
0.00451032
0.00562123
0.00258142
0.00584742
0.00180637
0.00560222
0.00100087
0.00508827
0.000175418
0.00438297
-0.000556386
0.00366226
-0.00134092
0.00301601
-0.00202794
0.00220835
-0.00199068
0.00125896
-0.00149191
0.000159482
-0.000698373
-0.000673483
-0.000235218
-0.00111363
-7.48191e-05
-0.00132113
-6.42904e-05
-0.00144726
-0.000105606
-0.00155387
-0.000144412
-0.00165967
-0.000172768
-0.00176953
-0.000192825
-0.00188509
-0.000206919
-0.00200722
-0.000216147
-0.00213661
-0.000220654
-0.00227405
-0.000219694
-0.00241995
-0.000211133
-0.00257299
-0.000190974
-0.002729
-0.000153256
-0.0028798
-9.04994e-05
-0.00301178
4.98274e-06
-0.00311415
0.000147691
-0.00319182
0.00035699
-0.00325956
0.000655597
-0.00333197
0.00105998
-0.00341109
0.00155841
-0.00344082
0.00205507
-0.00334584
0.00234105
-0.00294369
0.0019558
-0.0016448
-0.000270971
-0.00415715
-0.000470968
0.00599432
0.00151775
0.00252151
0.00238917
0.00170993
0.00284978
0.00134568
0.00303645
0.000814121
0.00290701
0.000304775
0.00254827
-0.00019772
0.00209495
-0.000887637
0.00153315
-0.00146597
0.000494676
-0.000952059
-0.000547076
-0.000450022
-0.00129488
4.94919e-05
-0.00161148
8.14194e-05
-0.00172692
4.06453e-05
-0.00178864
-2.54905e-06
-0.00185429
-3.99351e-05
-0.00193435
-6.43289e-05
-0.00202778
-7.93085e-05
-0.00213154
-8.9049e-05
-0.00224291
-9.55249e-05
-0.00235964
-9.93964e-05
-0.00247961
-0.000100657
-0.00260053
-9.87488e-05
-0.00271928
-9.23602e-05
-0.00283099
-7.92474e-05
-0.00292805
-5.61667e-05
-0.00299999
-1.85368e-05
-0.00303356
3.85689e-05
-0.00300825
0.000122408
-0.00290032
0.000249077
-0.00267756
0.00043286
-0.00231493
0.000697368
-0.00180832
0.00105183
-0.00113769
0.00138446
-0.000110026
0.00131341
0.00123139
0.000614406
0.00159708
-0.000636641
-0.0024703
-0.00869453
-0.0112108
-0.00517658
-0.00263145
-0.000902684
0.000459347
0.00128918
0.00161029
0.00142999
0.000560609
-0.000889687
-0.00183353
-0.00227681
-0.00222099
-0.00213341
-0.00208668
-0.00208322
-0.00211727
-0.00217587
-0.00224961
-0.00233325
-0.00242355
-0.0025179
-0.00261368
-0.00270774
-0.00279557
-0.00287047
-0.00292246
-0.00293699
-0.00289459
-0.00276852
-0.00251598
-0.00207985
-0.00137944
-0.000324809
0.0010621
0.00237771
0.00299425
0.00235981
)
;

boundaryField
{
    floor
    {
        type            calculated;
        value           nonuniform List<scalar> 
29
(
0
0
0
0
0
0
0
0
0
0
0
0
0
0
0
0
0
0
0
0
-4.71587e-06
-1.19389e-05
-1.79906e-05
-2.34489e-05
-2.03154e-06
-3.63102e-06
-1.04944e-05
-1.16017e-05
-1.11997e-05
)
;
    }
    ceiling
    {
        type            calculated;
        value           nonuniform List<scalar> 
43
(
-4.23686e-05
-4.11885e-05
-3.993e-05
-2.36652e-05
-1.88741e-05
-1.64238e-05
-1.57588e-05
-1.63676e-05
-1.74576e-05
-1.82394e-05
-1.51078e-05
-8.10426e-06
-6.71621e-06
-6.3013e-06
-6.13357e-06
-6.06438e-06
-5.98267e-06
-5.85981e-06
-5.71233e-06
-5.55001e-06
-5.37934e-06
-5.20428e-06
-5.02743e-06
-4.85052e-06
-4.67467e-06
-4.50051e-06
-4.32813e-06
-4.15702e-06
-3.9859e-06
-3.81201e-06
-3.63257e-06
-3.44457e-06
-3.2439e-06
-3.02503e-06
-2.77894e-06
-2.41962e-06
-2.19228e-06
-2.11294e-06
-2.17376e-06
-1.53283e-06
9.4699e-06
6.26806e-06
-4.52043e-05
)
;
    }
    sWall
    {
        type            calculated;
        value           uniform -0.000252548;
    }
    nWall
    {
        type            calculated;
        value           nonuniform List<scalar> 6(-5.20835e-05 -6.25258e-05 -6.97364e-05 -8.15465e-05 -8.9755e-05 -0.000108939);
    }
    sideWalls
    {
        type            empty;
        value           nonuniform 0();
    }
    glass1
    {
        type            calculated;
        value           nonuniform List<scalar> 9(-6.12741e-05 -0.000165002 -0.000251578 -0.000323935 -0.000384239 -0.000434417 -0.000477206 -0.000530539 -0.000590574);
    }
    glass2
    {
        type            calculated;
        value           nonuniform List<scalar> 2(-0.000278667 -0.000309355);
    }
    sun
    {
        type            calculated;
        value           uniform 0;
    }
    heatsource1
    {
        type            calculated;
        value           nonuniform List<scalar> 3(2.04602e-07 2.04491e-07 2.04505e-07);
    }
    heatsource2
    {
        type            calculated;
        value           nonuniform List<scalar> 4(5.1261e-08 5.13724e-08 0 0);
    }
    Table_master
    {
        type            calculated;
        value           nonuniform List<scalar> 9(-1.53439e-07 -1.53494e-07 -1.53519e-07 -1.53536e-07 -1.5355e-07 -1.5356e-07 -1.53563e-07 -1.53557e-07 -1.53524e-07);
    }
    Table_slave
    {
        type            calculated;
        value           nonuniform List<scalar> 9(1.53333e-07 1.53317e-07 1.53285e-07 1.53262e-07 1.53254e-07 1.5326e-07 1.53279e-07 1.53329e-07 1.53421e-07);
    }
    inlet
    {
        type            calculated;
        value           uniform -0.00649312;
    }
    outlet
    {
        type            calculated;
        value           nonuniform List<scalar> 2(0.00898941 0.0025574);
    }
}


// ************************************************************************* //
