/*--------------------------------*- C++ -*----------------------------------*\
  =========                 |
  \\      /  F ield         | OpenFOAM: The Open Source CFD Toolbox
   \\    /   O peration     | Website:  https://openfoam.org
    \\  /    A nd           | Version:  6
     \\/     M anipulation  |
\*---------------------------------------------------------------------------*/
FoamFile
{
    version     2.0;
    format      ascii;
    class       volScalarField;
    location    "1300";
    object      epsilon;
}
// * * * * * * * * * * * * * * * * * * * * * * * * * * * * * * * * * * * * * //

dimensions      [0 2 -3 0 0 0 0];

internalField   nonuniform List<scalar> 
459
(
0.000428065
0.000554831
0.000586883
0.000674995
0.000764162
0.000855177
0.000952524
0.00105198
0.00112568
0.00115471
0.00112288
0.00102437
0.000867446
0.000676574
0.000491114
3.4708e-05
5.87117e-05
8.4625e-05
8.71572e-05
7.96648e-05
6.97541e-05
5.74326e-05
4.64873e-05
3.78445e-05
3.11636e-05
2.59721e-05
2.18931e-05
1.86508e-05
1.60448e-05
1.38836e-05
1.20065e-05
1.0269e-05
9.33844e-06
7.21544e-06
0.0010815
0.00158038
0.000520877
0.000504109
0.000526768
0.000566464
0.000627567
0.000708628
0.000786024
0.000834057
0.000832406
0.000775469
0.000671825
0.000543948
0.000438542
0.000518145
0.000124323
3.92789e-05
9.23613e-05
0.000103531
9.71243e-05
8.47142e-05
7.21824e-05
6.59288e-05
5.3107e-05
4.17354e-05
3.28104e-05
2.59967e-05
2.08154e-05
1.68619e-05
1.38608e-05
1.16553e-05
1.0277e-05
9.67454e-06
2.56986e-05
1.72814e-05
0.00196991
0.00388493
0.000639801
0.000477398
0.000498306
0.000559092
0.000651779
0.000769569
0.000877886
0.000942283
0.000945242
0.000888073
0.000782443
0.000654172
0.000535091
0.00047633
0.000566999
0.000258782
0.000205183
0.000164118
0.000131995
0.000106772
9.12829e-05
0.000166696
0.000114902
8.17944e-05
6.01719e-05
4.56445e-05
3.55997e-05
2.84752e-05
2.33393e-05
1.96432e-05
1.49456e-05
1.25396e-05
4.95682e-05
2.78822e-05
0.00318915
0.00808232
0.00100884
0.000479427
0.000483216
0.000568537
0.000708445
0.000884402
0.00102196
0.00108814
0.00107932
0.00100673
0.000881066
0.000734058
0.000604457
0.000520036
0.000500819
0.000906239
0.000524102
0.000322413
0.000219841
0.000160922
0.000124014
0.000106451
0.000242688
0.000184693
0.00014935
0.00012567
0.00010764
9.25618e-05
7.94711e-05
6.71173e-05
5.44953e-05
3.2473e-05
2.12333e-05
8.4194e-05
3.87769e-05
0.00486716
0.0144551
0.00199421
0.000560058
0.000485704
0.00059917
0.000851493
0.00111498
0.00126108
0.00130347
0.00126189
0.00115447
0.000995651
0.000811646
0.000634181
0.000489216
0.000390439
0.000348883
0.000286536
0.000230107
0.000184669
0.000148882
0.000120971
0.000101368
9.71101e-05
9.00638e-05
8.3347e-05
7.68437e-05
7.00512e-05
6.27878e-05
5.5526e-05
4.86276e-05
4.23271e-05
3.39734e-05
2.6406e-05
5.92187e-05
4.57766e-05
7.43915e-05
0.000129914
0.000184118
0.00720371
0.0215266
0.00450133
0.00104566
0.000683042
0.000799133
0.00130642
0.00157152
0.00164833
0.00162093
0.00152418
0.00136592
0.00115356
0.000912039
0.000677951
0.000485955
0.00035453
0.000280929
0.000236386
0.0002007
0.000168021
0.000139348
0.00011591
9.89556e-05
8.99481e-05
8.57706e-05
8.33439e-05
8.07598e-05
7.69076e-05
7.08861e-05
6.23005e-05
5.31637e-05
4.47668e-05
3.73698e-05
3.29952e-05
4.44338e-05
4.74832e-05
5.73849e-05
0.000240552
0.000210719
0.00998481
0.0257812
0.00939423
0.0034579
0.00222206
0.00220545
0.00241057
0.00238408
0.00225261
0.00208395
0.00188522
0.00164123
0.00134787
0.00103022
0.000730496
0.000492653
0.000337601
0.000254113
0.000209566
0.000177559
0.000149229
0.000125214
0.000107018
9.55346e-05
9.09212e-05
9.11404e-05
9.33817e-05
9.60238e-05
9.80375e-05
9.79649e-05
9.2894e-05
8.2789e-05
7.24456e-05
6.38266e-05
6.11218e-05
6.87599e-05
8.59134e-05
0.000130113
0.000318746
0.000307592
0.0106668
0.0287212
0.0156185
0.00995896
0.00708157
0.00547782
0.00434277
0.00357979
0.00306174
0.00267678
0.00233136
0.00196236
0.00155103
0.00113055
0.000749222
0.000464765
0.00029609
0.000213225
0.000172852
0.000145572
0.000123607
0.000107236
9.69565e-05
9.2675e-05
9.37486e-05
9.88565e-05
0.000106779
0.000117181
0.000130262
0.000146116
0.000164066
0.000178598
0.000188958
0.00021013
0.000253399
0.000372238
0.000646106
0.00118914
0.00404909
0.00108525
0.00991331
0.0168746
0.0135379
0.0102261
0.00780509
0.00615568
0.00504193
0.00428195
0.00373455
0.0032703
0.00278992
0.00224705
0.00165393
0.00109728
0.000620787
0.000332872
0.000212354
0.000158661
0.000130246
0.00011121
9.76075e-05
8.91407e-05
8.56028e-05
8.65642e-05
9.14848e-05
9.9911e-05
0.00011185
0.000128023
0.000149835
0.000179366
0.000219431
0.000273747
0.00034928
0.000459648
0.000623712
0.000850275
0.00112024
0.00137703
0.00157769
0.000871255
0.00493549
0.00663742
0.00669264
0.00620292
0.00553096
0.00488921
0.00424767
0.00354141
0.00275918
0.0019224
0.00105498
0.000561354
0.000301221
0.000180652
0.000127576
0.000101201
8.59338e-05
7.62243e-05
7.03531e-05
6.76741e-05
6.78233e-05
7.05025e-05
7.55329e-05
8.29988e-05
9.33289e-05
0.000107353
0.000126381
0.000152377
0.000188357
0.000239256
0.00031057
0.00041016
0.000545439
0.000713716
0.000891839
0.00103784
0.000979896
0.00044285
0.00340807
0.00672667
0.00665463
0.00536013
0.00453171
0.00385479
0.0030008
0.00209768
0.00133437
0.000782339
0.000432927
0.000245164
0.000150654
0.000106042
8.46963e-05
7.35182e-05
6.72461e-05
6.38722e-05
6.26165e-05
6.31008e-05
6.51044e-05
6.85387e-05
7.35263e-05
8.03829e-05
8.95713e-05
0.000101799
0.000118179
0.00014043
0.000171066
0.000213353
0.000271804
0.000351361
0.000454028
0.000572623
0.000687912
0.000837336
0.000461765
0.000474153
0.00216791
0.00253197
0.00282598
0.00313138
0.00233955
0.00181866
0.00160156
0.00139659
0.00113019
0.000850456
0.000593451
0.000396087
0.000263212
0.000182093
0.000135119
0.000107177
8.93716e-05
7.75159e-05
6.97942e-05
6.53265e-05
6.35047e-05
6.38518e-05
6.60612e-05
7.00292e-05
7.58746e-05
8.36906e-05
9.37216e-05
0.000106499
0.000122839
0.00014407
0.000171027
0.00020503
0.000248015
0.000302348
0.000370064
0.000452896
0.000471614
0.000335866
0.000286771
0.000475882
)
;

boundaryField
{
    floor
    {
        Cmu             0.09;
        kappa           0.41;
        E               9.8;
        type            epsilonWallFunction;
        value           nonuniform List<scalar> 
29
(
0.000491114
3.4708e-05
5.87117e-05
8.4625e-05
8.71572e-05
7.96648e-05
6.97541e-05
5.74326e-05
4.64873e-05
3.78445e-05
3.11636e-05
2.59721e-05
2.18931e-05
1.86508e-05
1.60448e-05
1.38836e-05
1.20065e-05
1.0269e-05
9.33844e-06
7.21544e-06
7.21544e-06
1.72814e-05
2.78822e-05
3.87769e-05
0.000491114
3.4708e-05
3.92789e-05
0.000258782
0.000906239
)
;
    }
    ceiling
    {
        Cmu             0.09;
        kappa           0.41;
        E               9.8;
        type            epsilonWallFunction;
        value           nonuniform List<scalar> 
43
(
0.00216791
0.00253197
0.00282598
0.00313138
0.00233955
0.00181866
0.00160156
0.00139659
0.00113019
0.000850456
0.000593451
0.000396087
0.000263212
0.000182093
0.000135119
0.000107177
8.93716e-05
7.75159e-05
6.97942e-05
6.53265e-05
6.35047e-05
6.38518e-05
6.60612e-05
7.00292e-05
7.58746e-05
8.36906e-05
9.37216e-05
0.000106499
0.000122839
0.00014407
0.000171027
0.00020503
0.000248015
0.000302348
0.000370064
0.000452896
0.000471614
0.000335866
0.000286771
0.000475882
0.00991331
0.0168746
0.00340807
)
;
    }
    sWall
    {
        Cmu             0.09;
        kappa           0.41;
        E               9.8;
        type            epsilonWallFunction;
        value           uniform 0.00216791;
    }
    nWall
    {
        Cmu             0.09;
        kappa           0.41;
        E               9.8;
        type            epsilonWallFunction;
        value           nonuniform List<scalar> 6(0.000184118 0.000210719 0.000307592 0.00044285 0.000474153 0.000475882);
    }
    sideWalls
    {
        type            empty;
    }
    glass1
    {
        Cmu             0.09;
        kappa           0.41;
        E               9.8;
        type            epsilonWallFunction;
        value           nonuniform List<scalar> 9(0.000428065 0.0010815 0.00196991 0.00318915 0.00486716 0.00720371 0.00998481 0.0106668 0.00991331);
    }
    glass2
    {
        Cmu             0.09;
        kappa           0.41;
        E               9.8;
        type            epsilonWallFunction;
        value           nonuniform List<scalar> 2(0.00108525 0.000871255);
    }
    sun
    {
        Cmu             0.09;
        kappa           0.41;
        E               9.8;
        type            epsilonWallFunction;
        value           nonuniform List<scalar> 
14
(
0.000428065
0.000554831
0.000586883
0.000674995
0.000764162
0.000855177
0.000952524
0.00105198
0.00112568
0.00115471
0.00112288
0.00102437
0.000867446
0.000676574
)
;
    }
    heatsource1
    {
        Cmu             0.09;
        kappa           0.41;
        E               9.8;
        type            epsilonWallFunction;
        value           nonuniform List<scalar> 3(7.43915e-05 0.000129914 0.000184118);
    }
    heatsource2
    {
        Cmu             0.09;
        kappa           0.41;
        E               9.8;
        type            epsilonWallFunction;
        value           nonuniform List<scalar> 4(0.000518145 0.000124323 0.000124323 0.000566999);
    }
    Table_master
    {
        Cmu             0.09;
        kappa           0.41;
        E               9.8;
        type            epsilonWallFunction;
        value           nonuniform List<scalar> 9(0.000166696 0.000114902 8.17944e-05 6.01719e-05 4.56445e-05 3.55997e-05 2.84752e-05 2.33393e-05 1.96432e-05);
    }
    Table_slave
    {
        Cmu             0.09;
        kappa           0.41;
        E               9.8;
        type            epsilonWallFunction;
        value           nonuniform List<scalar> 9(0.000242688 0.000184693 0.00014935 0.00012567 0.00010764 9.25618e-05 7.94711e-05 6.71173e-05 5.44953e-05);
    }
    inlet
    {
        type            turbulentMixingLengthDissipationRateInlet;
        mixingLength    0.01;
        phi             phi;
        k               k;
        value           uniform 0.000101881;
    }
    outlet
    {
        type            zeroGradient;
    }
}


// ************************************************************************* //
