/*--------------------------------*- C++ -*----------------------------------*\
  =========                 |
  \\      /  F ield         | OpenFOAM: The Open Source CFD Toolbox
   \\    /   O peration     | Website:  https://openfoam.org
    \\  /    A nd           | Version:  6
     \\/     M anipulation  |
\*---------------------------------------------------------------------------*/
FoamFile
{
    version     2.0;
    format      ascii;
    class       volScalarField;
    location    "900";
    object      nut;
}
// * * * * * * * * * * * * * * * * * * * * * * * * * * * * * * * * * * * * * //

dimensions      [0 2 -1 0 0 0 0];

internalField   nonuniform List<scalar> 
459
(
0.00106513
0.00116109
0.00118303
0.00123944
0.00129173
0.00134104
0.00139003
0.00143676
0.0014695
0.00148194
0.00146809
0.00142371
0.00134679
0.0012396
0.00111406
0.00046072
0.000548585
0.000619403
0.000625527
0.000607121
0.000580938
0.000544629
0.000507677
0.000474122
0.000444463
0.000418317
0.000395194
0.00037467
0.000356363
0.000339607
0.000323573
0.000307171
0.000297799
0.000273528
0.00145047
0.00343318
0.00324611
0.00376397
0.00427193
0.00478147
0.00522452
0.00557031
0.00589199
0.0061598
0.00633706
0.00638612
0.0062618
0.00585654
0.00471609
0.0011338
0.000704312
0.000480115
0.00100849
0.00141035
0.00171359
0.00189235
0.00189951
0.00149924
0.00128551
0.00113382
0.00101811
0.000926722
0.000852715
0.000790438
0.000732774
0.000677225
0.000627926
0.000584482
0.000702732
0.000366346
0.00177144
0.00465847
0.00395734
0.00492295
0.005367
0.00569158
0.00594692
0.0061736
0.00643657
0.0067208
0.00699304
0.0072031
0.00730586
0.00722529
0.00673901
0.00516961
0.00116826
0.000899072
0.00130751
0.00170009
0.00208163
0.00236485
0.00233681
0.000776405
0.000686099
0.000612805
0.000553344
0.000504768
0.00046472
0.000431451
0.00040382
0.000381297
0.000410117
0.00047068
0.000797866
0.000429982
0.00208021
0.00596317
0.00390828
0.00513783
0.00546968
0.00555237
0.00562532
0.00575864
0.00598184
0.00627832
0.00661722
0.00692737
0.00716033
0.00725026
0.007147
0.0065865
0.00441627
0.00136569
0.00163012
0.00207044
0.00255273
0.00298203
0.00327702
0.00312349
0.000879827
0.000803577
0.000748984
0.000707471
0.000672257
0.000639518
0.00060807
0.000574981
0.000536567
0.000504029
0.000509414
0.000936311
0.000480133
0.00239527
0.00766643
0.00422824
0.00490149
0.00535415
0.00530735
0.00527108
0.00537718
0.00558722
0.00588989
0.00626378
0.00660437
0.00684227
0.0069339
0.00688026
0.00665557
0.00608602
0.00514841
0.00481858
0.00475208
0.00478279
0.0048235
0.0048181
0.00465964
0.00396462
0.0036212
0.00342112
0.00326748
0.00310631
0.00287665
0.00255842
0.00216631
0.00172871
0.00129505
0.000960682
0.00094853
0.000657931
0.000596516
0.000717923
0.000806425
0.00272999
0.00953559
0.00582173
0.00474737
0.00518505
0.00532745
0.00519751
0.00529583
0.00546938
0.00574932
0.0061124
0.00646691
0.00670283
0.0067549
0.00663849
0.00643659
0.00624007
0.00610483
0.00609428
0.00610211
0.00605946
0.00595868
0.00580429
0.00558522
0.00526
0.0049667
0.00470538
0.00445369
0.00419748
0.0039243
0.00358319
0.0031595
0.00265363
0.00209501
0.0015949
0.00117033
0.000914381
0.000783959
0.00110998
0.000843656
0.00304433
0.0108869
0.00835483
0.00603989
0.00563722
0.00566691
0.00553079
0.00545431
0.00553803
0.00580333
0.0061853
0.0065569
0.00678094
0.00678265
0.00659753
0.00637602
0.00631445
0.00647036
0.00666368
0.006716
0.0066037
0.00637625
0.0060758
0.00572752
0.0053542
0.0050043
0.00468341
0.00438495
0.0041091
0.00386196
0.00364577
0.00338555
0.00301543
0.00255162
0.00210102
0.00167409
0.00137756
0.00126929
0.00125644
0.000956351
0.00311236
0.00988205
0.00857287
0.00759571
0.00699949
0.00633851
0.0057842
0.0055519
0.00565666
0.00601334
0.00647367
0.00686382
0.00703223
0.00692968
0.00665129
0.00643278
0.00650225
0.00676915
0.00687154
0.00672763
0.00640927
0.0059851
0.00551056
0.00503807
0.00461288
0.00425482
0.00395547
0.00370671
0.00350932
0.00336837
0.00328879
0.00325671
0.00314217
0.00286872
0.00262439
0.00250143
0.00257848
0.00285002
0.00354368
0.00145432
0.0030375
0.00362709
0.00409651
0.0042443
0.00425676
0.00435547
0.00464082
0.00513983
0.0058073
0.00651099
0.0070849
0.00738569
0.00731725
0.00694707
0.00655198
0.00646335
0.00650464
0.0064838
0.00627593
0.00588846
0.00538037
0.00482631
0.00429736
0.00384651
0.00349094
0.00321695
0.00300208
0.00283007
0.00269007
0.00257269
0.00246896
0.00237211
0.00229763
0.00224361
0.00222246
0.0022294
0.00221401
0.00213103
0.00198921
0.00135142
0.00182957
0.00326128
0.00451628
0.00556249
0.006414
0.0071792
0.0077746
0.00807366
0.0080355
0.00768108
0.00705497
0.00634499
0.00590471
0.00572927
0.00554737
0.00523305
0.00478998
0.00427715
0.00376467
0.0033067
0.00293709
0.00266349
0.002468
0.00232887
0.00222992
0.0021612
0.00211674
0.00209312
0.00209026
0.00211189
0.00214442
0.00218502
0.0022294
0.00226105
0.00225228
0.00218756
0.00193441
0.0010793
0.00212977
0.00456428
0.00625677
0.00705304
0.00759
0.00796343
0.00793189
0.00742855
0.00665963
0.00583707
0.00514335
0.0046393
0.00430076
0.00400119
0.00364907
0.00325601
0.00286688
0.00252599
0.0022596
0.00207013
0.00194362
0.0018598
0.00180634
0.00177945
0.00177572
0.00179153
0.00182369
0.00186834
0.00192966
0.00200505
0.00209209
0.00218541
0.00227186
0.00233104
0.00234855
0.00232161
0.00167039
0.00110372
0.00183175
0.00192892
0.00200086
0.00207045
0.00187799
0.0017253
0.00165211
0.00157731
0.00146858
0.00133459
0.00118223
0.00103146
0.000898249
0.000792622
0.000716132
0.000662046
0.000622949
0.000594521
0.000575002
0.000563644
0.000559603
0.000561814
0.000569319
0.00058148
0.000598118
0.000618675
0.000643023
0.000671441
0.000704471
0.000743104
0.000786921
0.000835934
0.000890572
0.000951156
0.00101718
0.00108792
0.00110195
0.000984994
0.000934504
0.00110545
)
;

boundaryField
{
    floor
    {
        type            nutkWallFunction;
        Cmu             0.09;
        kappa           0.41;
        E               9.8;
        value           nonuniform List<scalar> 
29
(
0.00013406
5.46644e-05
6.58845e-05
7.47658e-05
7.55279e-05
7.32348e-05
6.99582e-05
6.53843e-05
6.06907e-05
5.63919e-05
5.25605e-05
4.91562e-05
4.6123e-05
4.34115e-05
4.09771e-05
3.87346e-05
3.65752e-05
3.43518e-05
3.30743e-05
2.97407e-05
2.97406e-05
4.2306e-05
5.06776e-05
5.7164e-05
0.00013406
5.46643e-05
5.71622e-05
0.000108776
0.000162961
)
;
    }
    ceiling
    {
        type            nutkWallFunction;
        Cmu             0.09;
        kappa           0.41;
        E               9.8;
        value           nonuniform List<scalar> 
43
(
0.000214866
0.000225509
0.000233354
0.000241005
0.000220052
0.000203248
0.000195135
0.0001868
0.0001746
0.000159424
0.000141957
0.00012442
0.000108678
9.60036e-05
8.67019e-05
8.00536e-05
7.52073e-05
7.16604e-05
6.92132e-05
6.77845e-05
6.72753e-05
6.7554e-05
6.84988e-05
7.00264e-05
7.21102e-05
7.46752e-05
7.76999e-05
8.12128e-05
8.52736e-05
8.99947e-05
9.53142e-05
0.000101224
0.000107763
0.000114961
0.000122745
0.00013102
0.000132654
0.000118958
0.000112988
0.000133064
0.000344033
0.000404973
0.000247229
)
;
    }
    sWall
    {
        type            nutkWallFunction;
        Cmu             0.09;
        kappa           0.41;
        E               9.8;
        value           uniform 0.000214926;
    }
    nWall
    {
        type            nutkWallFunction;
        Cmu             0.09;
        kappa           0.41;
        E               9.8;
        value           nonuniform List<scalar> 6(9.76714e-05 0.000102152 0.000115579 0.000130024 0.00013287 0.000133072);
    }
    sideWalls
    {
        type            empty;
    }
    glass1
    {
        type            nutkWallFunction;
        Cmu             0.09;
        kappa           0.41;
        E               9.8;
        value           nonuniform List<scalar> 9(0.00012846 0.000172777 0.000208671 0.00024253 0.000276526 0.000312128 0.000345149 0.000352257 0.000344461);
    }
    glass2
    {
        type            nutkWallFunction;
        Cmu             0.09;
        kappa           0.41;
        E               9.8;
        value           nonuniform List<scalar> 2(0.000173069 0.000161406);
    }
    sun
    {
        type            nutkWallFunction;
        Cmu             0.09;
        kappa           0.41;
        E               9.8;
        value           nonuniform List<scalar> 
14
(
0.000128363
0.000139515
0.000142049
0.000148544
0.000154534
0.000160159
0.000165724
0.000171012
0.000174705
0.000176106
0.000174546
0.000169536
0.000160812
0.00014856
)
;
    }
    heatsource1
    {
        type            nutkWallFunction;
        Cmu             0.09;
        kappa           0.41;
        E               9.8;
        value           nonuniform List<scalar> 3(7.19115e-05 8.69213e-05 9.76705e-05);
    }
    heatsource2
    {
        type            nutkWallFunction;
        Cmu             0.09;
        kappa           0.41;
        E               9.8;
        value           nonuniform List<scalar> 4(0.000136348 8.52557e-05 8.52557e-05 0.000140338);
    }
    Table_master
    {
        type            nutkWallFunction;
        Cmu             0.09;
        kappa           0.41;
        E               9.8;
        value           nonuniform List<scalar> 9(9.40409e-05 8.30193e-05 7.39463e-05 6.64894e-05 6.03246e-05 5.5187e-05 5.08769e-05 4.72655e-05 4.42985e-05);
    }
    Table_slave
    {
        type            nutkWallFunction;
        Cmu             0.09;
        kappa           0.41;
        E               9.8;
        value           nonuniform List<scalar> 9(0.00010648 9.73267e-05 9.0711e-05 8.56423e-05 8.13148e-05 7.7267e-05 7.33553e-05 6.9213e-05 6.43672e-05);
    }
    inlet
    {
        type            calculated;
        value           uniform 0.000100623;
    }
    outlet
    {
        type            calculated;
        value           nonuniform List<scalar> 2(0.00183175 0.00192892);
    }
}


// ************************************************************************* //
