// -*- C++ -*-
// File generated by PyFoam - sorry for the ugliness

FoamFile
{
 version 2.0;
 format ascii;
 class volScalarField;
 location "600";
 object T;
}

dimensions [ 0 0 0 1 0 0 0 ];

internalField nonuniform List<scalar> 459
(
  304.879
  304.603
  304.601
  304.612
  304.627
  304.642
  304.659
  304.675
  304.691
  304.705
  304.718
  304.727
  304.733
  304.735
  304.732
  303.349
  303.377
  303.402
  303.378
  303.356
  303.349
  303.35
  303.35
  303.348
  303.349
  303.354
  303.362
  303.367
  303.368
  303.374
  303.389
  303.418
  303.407
  303.398
  305.111
  304.753
  304.724
  304.736
  304.756
  304.776
  304.796
  304.814
  304.831
  304.846
  304.856
  304.86
  304.855
  304.84
  304.808
  304.763
  304.544
  303.597
  303.596
  303.588
  303.563
  303.529
  303.518
  303.543
  303.546
  303.548
  303.558
  303.575
  303.608
  303.666
  303.723
  303.778
  303.825
  303.772
  303.691
  303.635
  305.32
  304.905
  304.85
  304.854
  304.877
  304.902
  304.926
  304.949
  304.969
  304.985
  304.995
  304.997
  304.985
  304.955
  304.903
  304.832
  304.757
  304.035
  304.009
  303.996
  304.01
  304.015
  303.978
  303.776
  303.827
  303.885
  303.942
  304.003
  304.068
  304.144
  304.247
  304.384
  304.562
  304.601
  304.685
  304.852
  305.515
  305.076
  305.015
  305
  305.014
  305.038
  305.065
  305.092
  305.117
  305.138
  305.152
  305.156
  305.144
  305.111
  305.049
  304.955
  304.83
  304.71
  304.62
  304.694
  304.793
  304.902
  304.996
  305.06
  305.111
  305.127
  305.142
  305.156
  305.17
  305.184
  305.196
  305.206
  305.209
  305.194
  305.242
  305.308
  305.381
  305.702
  305.266
  305.221
  305.198
  305.189
  305.199
  305.222
  305.25
  305.279
  305.305
  305.327
  305.34
  305.34
  305.325
  305.292
  305.242
  305.183
  305.128
  305.092
  305.097
  305.132
  305.174
  305.21
  305.234
  305.251
  305.265
  305.279
  305.296
  305.315
  305.336
  305.361
  305.389
  305.42
  305.451
  305.495
  305.539
  305.576
  305.593
  305.545
  305.496
  305.883
  305.486
  305.501
  305.492
  305.455
  305.428
  305.425
  305.439
  305.463
  305.491
  305.516
  305.536
  305.547
  305.545
  305.526
  305.492
  305.448
  305.405
  305.374
  305.36
  305.36
  305.367
  305.375
  305.382
  305.387
  305.393
  305.4
  305.41
  305.424
  305.443
  305.467
  305.497
  305.532
  305.571
  305.611
  305.645
  305.667
  305.665
  305.614
  305.476
  306.058
  305.752
  305.92
  305.917
  305.853
  305.78
  305.731
  305.708
  305.705
  305.72
  305.741
  305.762
  305.779
  305.785
  305.777
  305.754
  305.719
  305.68
  305.644
  305.616
  305.597
  305.584
  305.574
  305.566
  305.559
  305.553
  305.548
  305.545
  305.545
  305.551
  305.562
  305.582
  305.61
  305.645
  305.683
  305.717
  305.739
  305.739
  305.699
  305.578
  306.271
  306.102
  306.431
  306.491
  306.39
  306.26
  306.165
  306.105
  306.07
  306.051
  306.047
  306.056
  306.066
  306.072
  306.069
  306.052
  306.024
  305.988
  305.949
  305.912
  305.88
  305.852
  305.828
  305.805
  305.784
  305.764
  305.744
  305.725
  305.708
  305.694
  305.686
  305.684
  305.692
  305.711
  305.742
  305.78
  305.82
  305.858
  305.894
  305.933
  306.547
  306.538
  307.348
  307.364
  307.09
  306.835
  306.674
  306.583
  306.534
  306.509
  306.495
  306.483
  306.47
  306.456
  306.439
  306.417
  306.387
  306.349
  306.307
  306.263
  306.22
  306.179
  306.14
  306.103
  306.068
  306.033
  305.998
  305.963
  305.93
  305.897
  305.868
  305.843
  305.827
  305.82
  305.824
  305.838
  305.857
  305.878
  305.903
  305.943
  311.802
  308.569
  307.68
  307.303
  307.166
  307.103
  307.073
  307.056
  307.042
  307.023
  306.997
  306.965
  306.927
  306.883
  306.834
  306.78
  306.724
  306.667
  306.61
  306.554
  306.5
  306.448
  306.397
  306.347
  306.297
  306.248
  306.199
  306.152
  306.106
  306.063
  306.025
  305.995
  305.974
  305.963
  305.958
  305.958
  305.956
  305.946
  310.996
  309.243
  308.649
  308.275
  308.063
  307.941
  307.86
  307.794
  307.733
  307.67
  307.603
  307.533
  307.461
  307.387
  307.313
  307.237
  307.161
  307.086
  307.012
  306.939
  306.868
  306.798
  306.731
  306.666
  306.602
  306.539
  306.478
  306.418
  306.359
  306.302
  306.249
  306.2
  306.157
  306.121
  306.09
  306.06
  306.026
  305.978
  310.471
  310.474
  310.778
  310.365
  309.965
  309.645
  309.41
  309.216
  309.04
  308.871
  308.708
  308.552
  308.403
  308.262
  308.13
  308.006
  307.89
  307.779
  307.674
  307.574
  307.479
  307.386
  307.298
  307.212
  307.129
  307.047
  306.968
  306.89
  306.814
  306.739
  306.665
  306.592
  306.52
  306.45
  306.382
  306.314
  306.247
  306.177
  306.095
  305.998
)
;

boundaryField
{
  floor
  {
    type wallHeatTransfer;
    Tinf uniform 305.2;
    alphaWall uniform 0.24;
    value nonuniform List<scalar> 29
(
  304.801
  303.81
  303.805
  303.815
  303.827
  303.852
  303.881
  303.899
  303.886
  303.861
  303.837
  303.82
  303.813
  303.815
  303.82
  303.83
  303.844
  303.865
  303.871
  303.887
  303.887
  304.002
  304.91
  305.358
  304.801
  303.81
  303.905
  304.206
  304.769
)
;
  }
  ceiling
  {
    type wallHeatTransfer;
    Tinf uniform 303.2;
    alphaWall uniform 0.24;
    value nonuniform List<scalar> 43
(
  309.822
  309.938
  310.543
  310.124
  309.703
  309.358
  309.096
  308.878
  308.682
  308.5
  308.33
  308.173
  308.029
  307.895
  307.771
  307.656
  307.548
  307.445
  307.348
  307.254
  307.165
  307.078
  306.994
  306.913
  306.835
  306.758
  306.683
  306.609
  306.537
  306.466
  306.396
  306.327
  306.258
  306.191
  306.125
  306.059
  305.993
  305.923
  305.844
  305.727
  306.399
  306.407
  310.827
)
;
  }
  sWall
  {
    type wallHeatTransfer;
    Tinf uniform 315.2;
    alphaWall uniform 0.36;
    value uniform 311.078;
  }
  nWall
  {
    type wallHeatTransfer;
    Tinf uniform 307.2;
    alphaWall uniform 0.36;
    value nonuniform List<scalar> 6
(
  305.819
  305.805
  305.841
  306.086
  306.112
  306.164
)
;
  }
  sideWalls
  {
    type empty;
  }
  glass1
  {
    type wallHeatTransfer;
    Tinf uniform 315.2;
    alphaWall uniform 4.3;
    value nonuniform List<scalar> 9
(
  312.6
  311.573
  310.961
  310.57
  310.324
  310.168
  310.086
  310.22
  310.483
)
;
  }
  glass2
  {
    type wallHeatTransfer;
    Tinf uniform 307.2;
    alphaWall uniform 4.3;
    value nonuniform List<scalar> 2
(
  306.717
  306.704
)
;
  }
  sun
  {
    type wallHeatTransfer;
    Tinf uniform 305.2;
    alphaWall uniform 0.24;
    value nonuniform List<scalar> 14
(
  304.924
  304.684
  304.701
  304.714
  304.726
  304.737
  304.749
  304.761
  304.772
  304.783
  304.791
  304.798
  304.802
  304.804
)
;
  }
  heatsource1
  {
    type fixedGradient;
    gradient uniform 0;
  }
  heatsource2
  {
    type fixedGradient;
    gradient uniform 0;
  }
  Table_master
  {
    type zeroGradient;
  }
  Table_slave
  {
    type zeroGradient;
  }
  inlet
  {
    type fixedValue;
    value uniform 293.15;
  }
  outlet
  {
    type zeroGradient;
  }
} 	// ************************************************************************* //

