/*--------------------------------*- C++ -*----------------------------------*\
  =========                 |
  \\      /  F ield         | OpenFOAM: The Open Source CFD Toolbox
   \\    /   O peration     | Website:  https://openfoam.org
    \\  /    A nd           | Version:  6
     \\/     M anipulation  |
\*---------------------------------------------------------------------------*/
FoamFile
{
    version     2.0;
    format      ascii;
    class       volScalarField;
    location    "1200";
    object      nut;
}
// * * * * * * * * * * * * * * * * * * * * * * * * * * * * * * * * * * * * * //

dimensions      [0 2 -1 0 0 0 0];

internalField   nonuniform List<scalar> 
459
(
0.00106492
0.00116088
0.00118291
0.00123933
0.00129161
0.00134094
0.00138998
0.00143677
0.00146958
0.00148212
0.00146838
0.00142413
0.00134735
0.00124028
0.00111478
0.000460814
0.000548824
0.000619773
0.000625871
0.000607433
0.000581219
0.000544894
0.00050794
0.00047439
0.000444735
0.000418591
0.000395467
0.000374933
0.000356618
0.000339852
0.000323803
0.000307379
0.000297864
0.000273501
0.00144991
0.00343093
0.00324588
0.00376441
0.00427315
0.00478373
0.00522783
0.00557436
0.00589643
0.00616425
0.00634124
0.00638999
0.00626528
0.00585952
0.00471931
0.00113466
0.000704772
0.000480231
0.00100947
0.00141245
0.00171622
0.00189523
0.00190237
0.00150121
0.00128721
0.00113536
0.00101954
0.000928061
0.000853974
0.000791694
0.000733947
0.000678242
0.000628798
0.000585216
0.000700917
0.000365917
0.00177058
0.00465436
0.00395694
0.00492425
0.00536968
0.00569554
0.00595182
0.00617885
0.00644153
0.00672519
0.00699684
0.00720669
0.00730945
0.00722904
0.00674407
0.00517527
0.00116916
0.000899808
0.0013089
0.00170266
0.00208496
0.0023685
0.00234033
0.000776871
0.000686493
0.000613133
0.000553619
0.000504999
0.000464919
0.000431624
0.000403976
0.000381444
0.000410315
0.000470889
0.000794315
0.000429198
0.00207912
0.00595755
0.00390709
0.00513945
0.00547342
0.0055574
0.00563097
0.0057637
0.00598572
0.00628117
0.0066192
0.00692925
0.00716256
0.0072535
0.00715224
0.00659387
0.00442083
0.00136703
0.00163132
0.00207227
0.00255573
0.00298611
0.00328177
0.0031281
0.000880225
0.000803839
0.000749091
0.000707436
0.000672117
0.000639385
0.000607944
0.000574869
0.000536481
0.000503925
0.000508997
0.000930035
0.000479207
0.00239404
0.00766017
0.00422651
0.00490255
0.00535894
0.00531448
0.00527852
0.00538221
0.00559036
0.00589185
0.0062646
0.00660494
0.00684327
0.00693592
0.00688367
0.00666066
0.0060926
0.00515498
0.00482533
0.00475943
0.00479101
0.00483237
0.00482706
0.00466784
0.0039703
0.00362517
0.00342389
0.00326932
0.00310745
0.00287698
0.00255888
0.00216719
0.00172975
0.00129561
0.00096052
0.000944915
0.000655304
0.000595655
0.000717194
0.000805545
0.0027287
0.00952959
0.00582075
0.00474821
0.00518982
0.00533762
0.00520577
0.00530082
0.00547241
0.00575101
0.00611329
0.00646747
0.0067037
0.00675655
0.00664106
0.00644015
0.00624496
0.00611159
0.00610321
0.00611326
0.00607236
0.00597231
0.00581747
0.00559687
0.0052694
0.00497405
0.00471106
0.00445793
0.00420038
0.0039255
0.00358361
0.00316004
0.00265448
0.00209577
0.00159496
0.00116904
0.000911545
0.000781458
0.00110666
0.000842443
0.00304303
0.0108813
0.00835448
0.00604265
0.00564386
0.00567689
0.00553739
0.00545849
0.00554084
0.00580541
0.00618704
0.00655854
0.00678294
0.00678537
0.00660091
0.00638014
0.0063199
0.00647884
0.00667628
0.00673198
0.00662139
0.00639378
0.0060916
0.00574071
0.00536481
0.00501294
0.00469054
0.00439065
0.00411331
0.00386461
0.00364667
0.00338489
0.00301459
0.00255096
0.00210004
0.00167204
0.0013738
0.00126423
0.00125095
0.000954243
0.00311111
0.00987657
0.00856946
0.00759495
0.00700213
0.00633968
0.00578525
0.0055532
0.00565847
0.00601595
0.00647712
0.00686769
0.00703667
0.00693482
0.00665656
0.00643891
0.00651068
0.00678279
0.00689075
0.00674898
0.00643015
0.00600376
0.00552625
0.00505098
0.0046237
0.00426413
0.00396342
0.00371312
0.003514
0.00337116
0.00328966
0.00325533
0.0031381
0.00286378
0.00261764
0.00249149
0.00256372
0.00283126
0.00352424
0.00145188
0.0030364
0.00362575
0.00409449
0.00424148
0.00425333
0.00435319
0.00463974
0.00514029
0.00580994
0.0065162
0.007092
0.00739278
0.00732447
0.00695461
0.00655763
0.00647276
0.00652004
0.00650478
0.00629989
0.00591219
0.00540178
0.00484459
0.00431274
0.00385956
0.0035021
0.00322638
0.00300967
0.00283562
0.00269345
0.00257383
0.00246792
0.00236926
0.00229318
0.00223776
0.00221552
0.00222188
0.00220675
0.00212491
0.00198425
0.00134976
0.00182678
0.00325693
0.00451352
0.00556126
0.00641489
0.00718348
0.00778276
0.00808476
0.00804661
0.00768593
0.0070572
0.00634991
0.00591424
0.00574663
0.0055703
0.00525875
0.00481582
0.00430132
0.00378622
0.0033255
0.00295343
0.00267737
0.00247931
0.0023375
0.00223583
0.00216446
0.00211755
0.00209175
0.00208715
0.00210712
0.00213826
0.00217776
0.00222133
0.00225245
0.00224336
0.00217806
0.00192703
0.00107804
0.00212774
0.00456073
0.00625486
0.00705237
0.00759213
0.00796918
0.00793916
0.00743794
0.00667054
0.00584867
0.00515868
0.00465899
0.00432574
0.00403155
0.0036829
0.00329142
0.00290223
0.00255997
0.00229122
0.00209878
0.00196883
0.00188154
0.00182468
0.00179415
0.00178688
0.00179927
0.00182819
0.00186979
0.00192848
0.00200155
0.00208658
0.00217826
0.00226349
0.00232168
0.00233845
0.00231369
0.00166615
0.00110236
0.00183017
0.00192718
0.00199893
0.00206822
0.00187625
0.00172464
0.00165268
0.00157848
0.00147035
0.00133666
0.00118449
0.00103376
0.00090063
0.000795166
0.000718881
0.000664978
0.000625992
0.000597579
0.000577982
0.00056647
0.000562227
0.000564212
0.000571473
0.000583376
0.000599738
0.000620062
0.000644182
0.000672379
0.000705194
0.000743615
0.000787163
0.000835887
0.000890212
0.000950463
0.00101614
0.00108639
0.00110079
0.000983647
0.000933589
0.00110489
)
;

boundaryField
{
    floor
    {
        type            nutkWallFunction;
        Cmu             0.09;
        kappa           0.41;
        E               9.8;
        value           nonuniform List<scalar> 
29
(
0.000134144
5.46765e-05
6.59146e-05
7.48119e-05
7.55706e-05
7.32737e-05
6.99935e-05
6.54178e-05
6.07242e-05
5.64262e-05
5.25957e-05
4.91918e-05
4.61587e-05
4.34463e-05
4.1011e-05
3.87673e-05
3.66062e-05
3.43799e-05
3.30831e-05
2.97367e-05
2.97366e-05
4.22488e-05
5.05753e-05
5.7045e-05
0.000134144
5.46764e-05
5.71769e-05
0.000108864
0.000163113
)
;
    }
    ceiling
    {
        type            nutkWallFunction;
        Cmu             0.09;
        kappa           0.41;
        E               9.8;
        value           nonuniform List<scalar> 
43
(
0.000214693
0.00022532
0.000233144
0.000240762
0.000219862
0.000203174
0.000195198
0.000186931
0.000174799
0.000159661
0.000142218
0.000124689
0.000108962
9.63112e-05
8.70381e-05
8.04156e-05
7.55857e-05
7.20429e-05
6.95874e-05
6.81402e-05
6.7606e-05
6.7856e-05
6.87696e-05
7.02642e-05
7.23126e-05
7.48478e-05
7.78435e-05
8.13284e-05
8.53622e-05
9.00568e-05
9.53434e-05
0.000101218
0.00010772
0.000114879
0.000122622
0.000130842
0.000132519
0.000118799
0.00011288
0.000132999
0.000343919
0.000404836
0.000247009
)
;
    }
    sWall
    {
        type            nutkWallFunction;
        Cmu             0.09;
        kappa           0.41;
        E               9.8;
        value           uniform 0.000214752;
    }
    nWall
    {
        type            nutkWallFunction;
        Cmu             0.09;
        kappa           0.41;
        E               9.8;
        value           nonuniform List<scalar> 6(9.75653e-05 0.000102007 0.00011533 0.000129877 0.000132712 0.000133008);
    }
    sideWalls
    {
        type            empty;
    }
    glass1
    {
        type            nutkWallFunction;
        Cmu             0.09;
        kappa           0.41;
        E               9.8;
        value           nonuniform List<scalar> 9(0.000128436 0.000172714 0.000208576 0.000242412 0.000276394 0.000311992 0.000345013 0.000352127 0.000344347);
    }
    glass2
    {
        type            nutkWallFunction;
        Cmu             0.09;
        kappa           0.41;
        E               9.8;
        value           nonuniform List<scalar> 2(0.000172793 0.000161217);
    }
    sun
    {
        type            nutkWallFunction;
        Cmu             0.09;
        kappa           0.41;
        E               9.8;
        value           nonuniform List<scalar> 
14
(
0.000128338
0.00013949
0.000142035
0.000148531
0.000154521
0.000160148
0.000165719
0.000171013
0.000174715
0.000176127
0.000174579
0.000169583
0.000160875
0.00014864
)
;
    }
    heatsource1
    {
        type            nutkWallFunction;
        Cmu             0.09;
        kappa           0.41;
        E               9.8;
        value           nonuniform List<scalar> 3(7.18038e-05 8.68322e-05 9.75644e-05);
    }
    heatsource2
    {
        type            nutkWallFunction;
        Cmu             0.09;
        kappa           0.41;
        E               9.8;
        value           nonuniform List<scalar> 4(0.000136448 8.5312e-05 8.5312e-05 0.000140442);
    }
    Table_master
    {
        type            nutkWallFunction;
        Cmu             0.09;
        kappa           0.41;
        E               9.8;
        value           nonuniform List<scalar> 9(9.40972e-05 8.30676e-05 7.39872e-05 6.6524e-05 6.03541e-05 5.52125e-05 5.08992e-05 4.72858e-05 4.43177e-05);
    }
    Table_slave
    {
        type            nutkWallFunction;
        Cmu             0.09;
        kappa           0.41;
        E               9.8;
        value           nonuniform List<scalar> 9(0.000106527 9.73584e-05 9.0724e-05 8.56379e-05 8.12975e-05 7.72505e-05 7.33395e-05 6.91988e-05 6.43561e-05);
    }
    inlet
    {
        type            calculated;
        value           uniform 0.000100623;
    }
    outlet
    {
        type            calculated;
        value           nonuniform List<scalar> 2(0.00183017 0.00192718);
    }
}


// ************************************************************************* //
