/*--------------------------------*- C++ -*----------------------------------*\
  =========                 |
  \\      /  F ield         | OpenFOAM: The Open Source CFD Toolbox
   \\    /   O peration     | Website:  https://openfoam.org
    \\  /    A nd           | Version:  6
     \\/     M anipulation  |
\*---------------------------------------------------------------------------*/
FoamFile
{
    version     2.0;
    format      ascii;
    class       volScalarField;
    location    "1100";
    object      alphat;
}
// * * * * * * * * * * * * * * * * * * * * * * * * * * * * * * * * * * * * * //

dimensions      [1 -1 -1 0 0 0 0];

internalField   nonuniform List<scalar> 
459
(
0.00123248
0.00134447
0.00136956
0.00143474
0.00149508
0.00155193
0.00160831
0.00166253
0.00170087
0.00171612
0.00170126
0.00165128
0.00156394
0.00144204
0.00129917
0.00053713
0.000641666
0.000724416
0.000730256
0.000709073
0.000678829
0.00063716
0.000594747
0.000556158
0.000521972
0.000491768
0.000464995
0.000441212
0.000419935
0.000400394
0.000381623
0.00036229
0.000350527
0.000321112
0.00167896
0.00397772
0.00376214
0.00436361
0.00495181
0.00554258
0.00605841
0.00645743
0.00682934
0.00714004
0.00734657
0.00740363
0.00725658
0.00677621
0.00541771
0.00132178
0.000811592
0.000561251
0.00117747
0.00164711
0.00200243
0.00221202
0.00222375
0.00176293
0.00151655
0.00134148
0.00120769
0.00110184
0.00101603
0.000942982
0.000874944
0.000809034
0.000750532
0.000698527
0.00082983
0.000428723
0.00205017
0.00539572
0.00458535
0.00571961
0.00623794
0.00661393
0.00690731
0.00716339
0.00746227
0.00778782
0.00810195
0.0083447
0.00846227
0.00837001
0.00780681
0.00599892
0.00135545
0.00105893
0.00153668
0.00199697
0.0024432
0.0027755
0.00274364
0.000906208
0.000802051
0.00071743
0.000648717
0.000592531
0.000546176
0.00050765
0.000475655
0.00044962
0.000485563
0.000559898
0.000936954
0.000501396
0.0024068
0.00690793
0.00452311
0.00597446
0.00636861
0.00646075
0.00653468
0.00667638
0.00692557
0.00726304
0.00765457
0.00801426
0.00828451
0.00839291
0.00827659
0.00763875
0.00516258
0.00158757
0.0019036
0.00242657
0.0029972
0.00350524
0.00385712
0.00367733
0.00102567
0.000939234
0.000877808
0.000831171
0.000791295
0.000753801
0.000717656
0.000679447
0.000634812
0.000595831
0.000601419
0.00108923
0.000558811
0.00277027
0.00888172
0.00488875
0.00569104
0.00623618
0.00617737
0.00611712
0.00622161
0.00645664
0.00680091
0.0072346
0.00763166
0.00791109
0.00802007
0.00795845
0.00769996
0.00704841
0.00596454
0.00559506
0.00553388
0.00558725
0.00565292
0.00566431
0.00549269
0.00467913
0.00428624
0.0040585
0.00388072
0.00369107
0.00341967
0.00304174
0.00257632
0.00205608
0.00153711
0.00113515
0.00111544
0.00076105
0.000690656
0.000832546
0.000935084
0.00315616
0.0110453
0.00672999
0.0054876
0.00601275
0.00618133
0.00601039
0.00611422
0.00631171
0.00663272
0.00705239
0.0074662
0.00774523
0.00780976
0.00767379
0.00743481
0.0072052
0.00705715
0.00706591
0.0071003
0.00707467
0.00697692
0.00680983
0.00655958
0.00618106
0.00584036
0.00553821
0.00524962
0.00495863
0.00464941
0.00425622
0.00375904
0.00315606
0.0024833
0.00187573
0.00137687
0.00105662
0.00090279
0.0012839
0.000978272
0.00351858
0.0126062
0.00966228
0.00696343
0.00648347
0.00653249
0.00638004
0.00629394
0.00638824
0.00669119
0.00713212
0.0075661
0.00783269
0.00783972
0.00762251
0.00735638
0.00727855
0.0074726
0.00772742
0.00781665
0.00770237
0.00743913
0.00707797
0.00665752
0.00621812
0.0058208
0.00546804
0.00514731
0.0048549
0.00459536
0.00436741
0.00405205
0.00359312
0.00302144
0.00245998
0.00193579
0.0015666
0.00146154
0.00149648
0.00112334
0.00359493
0.011436
0.00991854
0.00877817
0.00807053
0.00732785
0.00668978
0.00641414
0.00652525
0.00693027
0.00746153
0.00791825
0.00812194
0.00800752
0.0076772
0.00741062
0.00748809
0.00782568
0.00797626
0.00781629
0.00743215
0.00691362
0.00634156
0.00579233
0.00532205
0.00494469
0.00463982
0.00439098
0.00419552
0.00405916
0.00399018
0.00396359
0.00374382
0.00338505
0.00306294
0.00290477
0.00304324
0.00352183
0.00429164
0.00174106
0.00350497
0.00419021
0.00473869
0.00491692
0.00493884
0.00504506
0.00536374
0.00592638
0.00668629
0.00749604
0.00816451
0.00852266
0.00845567
0.00802749
0.00754451
0.0074417
0.00751046
0.0075104
0.00727003
0.00679114
0.00616763
0.00550683
0.00490576
0.00442113
0.00405744
0.00378563
0.00357294
0.0033979
0.00324735
0.00311088
0.00297928
0.00285191
0.00274933
0.00267335
0.00264499
0.00265489
0.00263257
0.00251625
0.00234418
0.00162699
0.00217599
0.00384644
0.00526956
0.00645431
0.0074131
0.00827403
0.00895908
0.00931473
0.00928291
0.00887832
0.0081644
0.00733072
0.0068061
0.00661621
0.00641435
0.00604152
0.0055054
0.00488928
0.00428139
0.00376177
0.00336938
0.0030928
0.00290111
0.00276545
0.00266691
0.00259529
0.00254555
0.00251591
0.00250961
0.00252926
0.00255933
0.00259602
0.00262974
0.00263069
0.0025519
0.00237984
0.00213174
0.00133346
0.00252063
0.00535635
0.00726973
0.00817145
0.00876812
0.00917277
0.00918123
0.00861982
0.00773236
0.006766
0.00595025
0.00535743
0.00496288
0.00461386
0.00419073
0.00371523
0.0032529
0.00286221
0.00257101
0.0023711
0.00223759
0.00215145
0.00210565
0.0020903
0.00209953
0.00212965
0.00217722
0.00223745
0.00231713
0.0024131
0.00252227
0.00263693
0.00273877
0.00280625
0.00278372
0.00279751
0.00275809
0.0013558
0.00230397
0.00231416
0.00235779
0.00242876
0.00219154
0.00200374
0.00191183
0.0018249
0.00169956
0.00154678
0.00137007
0.00119366
0.00103693
0.00091271
0.000823189
0.000760596
0.000716309
0.000685418
0.000665871
0.00065656
0.00065615
0.000663084
0.000676158
0.000694664
0.000717305
0.000743998
0.000774882
0.000810329
0.00085105
0.000898366
0.000951573
0.00101085
0.00107694
0.00115052
0.00123137
0.00132888
0.00135943
0.00132456
0.00124028
0.00115036
)
;

boundaryField
{
    floor
    {
        type            compressible::alphatWallFunction;
        Prt             0.85;
        value           nonuniform List<scalar> 
29
(
0.00018377
7.49018e-05
9.0588e-05
0.000102782
0.000103637
0.000100535
9.60871e-05
8.9919e-05
8.359e-05
7.77831e-05
7.2597e-05
6.79796e-05
6.38569e-05
6.01695e-05
5.6849e-05
5.37806e-05
5.08148e-05
4.77405e-05
4.58597e-05
4.11196e-05
4.1119e-05
5.82232e-05
6.94556e-05
7.81845e-05
0.000183768
7.49009e-05
7.85518e-05
0.000150567
0.000222726
)
;
    }
    ceiling
    {
        type            compressible::alphatWallFunction;
        Prt             0.85;
        value           nonuniform List<scalar> 
43
(
0.000316418
0.000317612
0.000323197
0.000332381
0.000302005
0.000277691
0.000265704
0.000254306
0.000237756
0.000217395
0.000193558
0.000169413
0.000147614
0.000130065
0.000117245
0.000108183
0.000101717
9.71783e-05
9.42937e-05
9.2916e-05
9.28554e-05
9.3882e-05
9.58136e-05
9.85401e-05
0.000101864
0.000105766
0.00011026
0.000115392
0.000121254
0.000128024
0.000135587
0.000143956
0.000153218
0.000163453
0.000174614
0.000187963
0.000192124
0.000187375
0.000175839
0.000163435
0.00046718
0.00055053
0.000343837
)
;
    }
    sWall
    {
        type            compressible::alphatWallFunction;
        Prt             0.85;
        value           uniform 0.000315246;
    }
    nWall
    {
        type            compressible::alphatWallFunction;
        Prt             0.85;
        value           nonuniform List<scalar> 6(0.000132923 0.000139031 0.000159338 0.000188258 0.000191298 0.000163108);
    }
    sideWalls
    {
        type            empty;
    }
    glass1
    {
        type            compressible::alphatWallFunction;
        Prt             0.85;
        value           nonuniform List<scalar> 9(0.000170336 0.000229792 0.000278014 0.000323546 0.000369283 0.000417201 0.000461696 0.00047114 0.000460391);
    }
    glass2
    {
        type            compressible::alphatWallFunction;
        Prt             0.85;
        value           nonuniform List<scalar> 2(0.000241483 0.000226471);
    }
    sun
    {
        type            compressible::alphatWallFunction;
        Prt             0.85;
        value           nonuniform List<scalar> 
14
(
0.000174649
0.000189954
0.000193365
0.000202195
0.000210331
0.000217962
0.0002255
0.00023272
0.000237811
0.000239831
0.000237861
0.000231222
0.000219566
0.000203178
)
;
    }
    heatsource1
    {
        type            compressible::alphatWallFunction;
        Prt             0.85;
        value           nonuniform List<scalar> 3(9.79431e-05 0.000118587 0.000133241);
    }
    heatsource2
    {
        type            compressible::alphatWallFunction;
        Prt             0.85;
        value           nonuniform List<scalar> 4(0.000186987 0.000115567 0.000115565 0.00019157);
    }
    Table_master
    {
        type            compressible::alphatWallFunction;
        Prt             0.85;
        value           nonuniform List<scalar> 9(0.000129132 0.000114186 0.000101872 9.17446e-05 8.33658e-05 7.63789e-05 7.05159e-05 6.56044e-05 6.15768e-05);
    }
    Table_slave
    {
        type            compressible::alphatWallFunction;
        Prt             0.85;
        value           nonuniform List<scalar> 9(0.00014603 0.00013383 0.00012508 0.000118389 0.000112632 0.000107188 0.000101908 9.62916e-05 8.96817e-05);
    }
    inlet
    {
        type            fixedValue;
        value           uniform 1.94e-05;
    }
    outlet
    {
        type            zeroGradient;
    }
}


// ************************************************************************* //
