/*--------------------------------*- C++ -*----------------------------------*\
  =========                 |
  \\      /  F ield         | OpenFOAM: The Open Source CFD Toolbox
   \\    /   O peration     | Website:  https://openfoam.org
    \\  /    A nd           | Version:  6
     \\/     M anipulation  |
\*---------------------------------------------------------------------------*/
FoamFile
{
    version     2.0;
    format      ascii;
    class       volScalarField;
    location    "1100";
    object      epsilon;
}
// * * * * * * * * * * * * * * * * * * * * * * * * * * * * * * * * * * * * * //

dimensions      [0 2 -3 0 0 0 0];

internalField   nonuniform List<scalar> 
459
(
0.000423516
0.000548348
0.000579549
0.000666263
0.000753887
0.000843162
0.000938398
0.00103648
0.00110976
0.00113974
0.00111026
0.00101515
0.00086237
0.00067602
0.000494375
3.49672e-05
5.96024e-05
8.57568e-05
8.78495e-05
8.0427e-05
7.05711e-05
5.83589e-05
4.74653e-05
3.88141e-05
3.20887e-05
2.68353e-05
2.26875e-05
1.93821e-05
1.67117e-05
1.44861e-05
1.25432e-05
1.07323e-05
9.72103e-06
7.47477e-06
0.00107264
0.00157209
0.000514798
0.000497711
0.000519509
0.000557848
0.000617005
0.000696326
0.000772893
0.000821535
0.000821833
0.000767462
0.000666533
0.000541104
0.000437879
0.000520547
0.000120498
3.98964e-05
9.42888e-05
0.000104625
9.77816e-05
8.5087e-05
7.24657e-05
6.62398e-05
5.35761e-05
4.22994e-05
3.34015e-05
2.65719e-05
2.13519e-05
1.73577e-05
1.43152e-05
1.20842e-05
1.07169e-05
1.01368e-05
2.62484e-05
1.77875e-05
0.00195672
0.00387488
0.000633233
0.000471099
0.000490776
0.000549465
0.00063932
0.000754536
0.000861995
0.000927387
0.000932728
0.00087831
0.000775771
0.000650207
0.000532504
0.000474817
0.000561374
0.000267844
0.000208927
0.000165595
0.000132388
0.00010676
9.12444e-05
0.000167904
0.000116407
8.33131e-05
6.1594e-05
4.69362e-05
3.67595e-05
2.95166e-05
2.42801e-05
2.05075e-05
1.56575e-05
1.31408e-05
4.96626e-05
2.84528e-05
0.00317191
0.00807158
0.00100042
0.000472792
0.000475066
0.000557126
0.000692119
0.000864795
0.00100243
0.00107047
0.00106459
0.000994973
0.000873205
0.000728218
0.000600022
0.000516404
0.000497507
0.000902181
0.00052132
0.000319964
0.000217696
0.000159093
0.000122574
0.000105509
0.000243539
0.000187028
0.000152692
0.000129634
0.000111864
9.67077e-05
8.34553e-05
7.08244e-05
5.77635e-05
3.44556e-05
2.2336e-05
8.24856e-05
3.93918e-05
0.00484603
0.0144449
0.00198065
0.00055176
0.000476035
0.00058386
0.000825428
0.00108809
0.00123712
0.00128285
0.00124476
0.00114104
0.000986022
0.000805023
0.000629446
0.000485264
0.000386525
0.000344804
0.000282809
0.000226596
0.000181406
0.00014604
0.00011877
9.99945e-05
9.66565e-05
9.05599e-05
8.46537e-05
7.87459e-05
7.22895e-05
6.51279e-05
5.79393e-05
5.10874e-05
4.47763e-05
3.60457e-05
2.77292e-05
5.90866e-05
4.55927e-05
7.44265e-05
0.000130426
0.000184807
0.00717851
0.0215153
0.00447566
0.00102925
0.000666196
0.000769777
0.00126265
0.00153628
0.00161962
0.00159675
0.00150392
0.00135023
0.00114268
0.000905201
0.000673565
0.000482341
0.000350727
0.00027679
0.000232202
0.000196607
0.000164241
0.000136238
0.000113829
9.81492e-05
9.04912e-05
8.75616e-05
8.61605e-05
8.42856e-05
8.07156e-05
7.44953e-05
6.54618e-05
5.59308e-05
4.7168e-05
3.93322e-05
3.4194e-05
4.48871e-05
4.70509e-05
5.74897e-05
0.000241101
0.000211546
0.00996146
0.0257674
0.00935644
0.00341479
0.00216961
0.00212034
0.00235244
0.00234247
0.00221962
0.0020559
0.0018616
0.00162316
0.00133582
0.00102328
0.000726675
0.000489531
0.00033389
0.00024972
0.000205012
0.000173316
0.000145722
0.00012288
0.000106201
9.64186e-05
9.35067e-05
9.52789e-05
9.88454e-05
0.000102481
0.000104955
0.000104545
9.79679e-05
8.67778e-05
7.56133e-05
6.61641e-05
6.24349e-05
6.99022e-05
8.93549e-05
0.000143135
0.000328623
0.000320257
0.0106476
0.0287577
0.0156165
0.00993396
0.00701865
0.00542844
0.00430284
0.00354449
0.00302834
0.00264521
0.00230379
0.00194171
0.00153796
0.00112392
0.000746615
0.000462327
0.000292555
0.000208898
0.000168685
0.000142259
0.000121545
0.000106729
9.81969e-05
9.57468e-05
9.86402e-05
0.000105504
0.000115094
0.000127018
0.000141356
0.000158004
0.000175917
0.000187404
0.000197312
0.000218818
0.000263555
0.000397559
0.000736518
0.00138934
0.00403036
0.00119429
0.00989902
0.016866
0.0135366
0.0102219
0.00779343
0.00613559
0.0050143
0.00424696
0.00369423
0.00322994
0.00275606
0.00222529
0.00164251
0.00109372
0.000623208
0.000331504
0.000209554
0.000155706
0.000127705
0.000109448
9.71376e-05
9.02343e-05
8.8411e-05
9.11469e-05
9.78463e-05
0.000108053
0.000121788
0.00013977
0.00016339
0.0001947
0.000236458
0.000292663
0.00036989
0.000485971
0.000656913
0.000888634
0.0011531
0.00138308
0.00156045
0.000976039
0.00496161
0.0066678
0.00667409
0.00617446
0.00549089
0.00483728
0.00419497
0.00350056
0.00273785
0.0019319
0.00106426
0.000564592
0.000300423
0.000177324
0.00012442
9.87164e-05
8.43599e-05
7.57059e-05
7.08711e-05
6.93559e-05
7.0793e-05
7.48184e-05
8.12402e-05
9.01346e-05
0.000101935
0.000117497
0.000138183
0.000166067
0.000204403
0.000258195
0.00033285
0.00043558
0.00056975
0.000722579
0.000852934
0.000906239
0.000849513
0.000537278
0.00341737
0.00675634
0.00664299
0.00533736
0.00450219
0.00383881
0.00300122
0.00210554
0.00134103
0.000785187
0.000428998
0.000239911
0.000145021
0.000100517
7.96874e-05
6.91187e-05
6.35465e-05
6.09838e-05
6.06446e-05
6.21176e-05
6.51707e-05
6.98075e-05
7.61905e-05
8.4594e-05
9.55206e-05
0.000109788
0.000128676
0.000154152
0.000188962
0.000236731
0.000302405
0.000390946
0.000502903
0.000629745
0.000723934
0.000819252
0.000764236
0.000564683
0.00271155
0.00270017
0.00285347
0.00317425
0.00235215
0.0018058
0.00157248
0.00137002
0.00110809
0.000836048
0.000581361
0.00038464
0.000252219
0.000172032
0.00012623
9.95776e-05
8.31816e-05
7.28805e-05
6.68236e-05
6.4061e-05
6.39425e-05
6.59928e-05
6.99749e-05
7.58806e-05
8.35462e-05
9.32259e-05
0.000105326
0.000120454
0.000139543
0.000164139
0.000195067
0.000233848
0.000282786
0.000344806
0.000422751
0.000531391
0.00056895
0.00052631
0.000432108
0.000344909
)
;

boundaryField
{
    floor
    {
        Cmu             0.09;
        kappa           0.41;
        E               9.8;
        type            epsilonWallFunction;
        value           nonuniform List<scalar> 
29
(
0.000494375
3.49672e-05
5.96024e-05
8.57568e-05
8.78495e-05
8.0427e-05
7.05711e-05
5.83589e-05
4.74653e-05
3.88141e-05
3.20887e-05
2.68353e-05
2.26875e-05
1.93821e-05
1.67117e-05
1.44861e-05
1.25432e-05
1.07323e-05
9.72103e-06
7.47477e-06
7.47477e-06
1.77875e-05
2.84528e-05
3.93918e-05
0.000494375
3.49672e-05
3.98964e-05
0.000267844
0.000902181
)
;
    }
    ceiling
    {
        Cmu             0.09;
        kappa           0.41;
        E               9.8;
        type            epsilonWallFunction;
        value           nonuniform List<scalar> 
43
(
0.00271155
0.00270017
0.00285347
0.00317425
0.00235215
0.0018058
0.00157248
0.00137002
0.00110809
0.000836048
0.000581361
0.00038464
0.000252219
0.000172032
0.00012623
9.95776e-05
8.31816e-05
7.28805e-05
6.68236e-05
6.4061e-05
6.39425e-05
6.59928e-05
6.99749e-05
7.58806e-05
8.35462e-05
9.32259e-05
0.000105326
0.000120454
0.000139543
0.000164139
0.000195067
0.000233848
0.000282786
0.000344806
0.000422751
0.000531391
0.00056895
0.00052631
0.000432108
0.000344909
0.00989902
0.016866
0.00341737
)
;
    }
    sWall
    {
        Cmu             0.09;
        kappa           0.41;
        E               9.8;
        type            epsilonWallFunction;
        value           uniform 0.00271155;
    }
    nWall
    {
        Cmu             0.09;
        kappa           0.41;
        E               9.8;
        type            epsilonWallFunction;
        value           nonuniform List<scalar> 6(0.000184807 0.000211546 0.000320257 0.000537278 0.000564683 0.000344909);
    }
    sideWalls
    {
        type            empty;
    }
    glass1
    {
        Cmu             0.09;
        kappa           0.41;
        E               9.8;
        type            epsilonWallFunction;
        value           nonuniform List<scalar> 9(0.000423516 0.00107264 0.00195672 0.00317191 0.00484603 0.00717851 0.00996146 0.0106476 0.00989902);
    }
    glass2
    {
        Cmu             0.09;
        kappa           0.41;
        E               9.8;
        type            epsilonWallFunction;
        value           nonuniform List<scalar> 2(0.00119429 0.000976039);
    }
    sun
    {
        Cmu             0.09;
        kappa           0.41;
        E               9.8;
        type            epsilonWallFunction;
        value           nonuniform List<scalar> 
14
(
0.000423516
0.000548348
0.000579549
0.000666263
0.000753887
0.000843162
0.000938398
0.00103648
0.00110976
0.00113974
0.00111026
0.00101515
0.00086237
0.00067602
)
;
    }
    heatsource1
    {
        Cmu             0.09;
        kappa           0.41;
        E               9.8;
        type            epsilonWallFunction;
        value           nonuniform List<scalar> 3(7.44265e-05 0.000130426 0.000184807);
    }
    heatsource2
    {
        Cmu             0.09;
        kappa           0.41;
        E               9.8;
        type            epsilonWallFunction;
        value           nonuniform List<scalar> 4(0.000520547 0.000120498 0.000120498 0.000561374);
    }
    Table_master
    {
        Cmu             0.09;
        kappa           0.41;
        E               9.8;
        type            epsilonWallFunction;
        value           nonuniform List<scalar> 9(0.000167904 0.000116407 8.33131e-05 6.1594e-05 4.69362e-05 3.67595e-05 2.95166e-05 2.42801e-05 2.05075e-05);
    }
    Table_slave
    {
        Cmu             0.09;
        kappa           0.41;
        E               9.8;
        type            epsilonWallFunction;
        value           nonuniform List<scalar> 9(0.000243539 0.000187028 0.000152692 0.000129634 0.000111864 9.67077e-05 8.34553e-05 7.08244e-05 5.77635e-05);
    }
    inlet
    {
        type            turbulentMixingLengthDissipationRateInlet;
        mixingLength    0.01;
        phi             phi;
        k               k;
        value           uniform 0.000101881;
    }
    outlet
    {
        type            zeroGradient;
    }
}


// ************************************************************************* //
