/*--------------------------------*- C++ -*----------------------------------*\
  =========                 |
  \\      /  F ield         | OpenFOAM: The Open Source CFD Toolbox
   \\    /   O peration     | Website:  https://openfoam.org
    \\  /    A nd           | Version:  6
     \\/     M anipulation  |
\*---------------------------------------------------------------------------*/
FoamFile
{
    version     2.0;
    format      ascii;
    class       volScalarField;
    location    "100";
    object      nut;
}
// * * * * * * * * * * * * * * * * * * * * * * * * * * * * * * * * * * * * * //

dimensions      [0 2 -1 0 0 0 0];

internalField   nonuniform List<scalar> 
459
(
0.000786221
0.000801758
0.00069274
0.000713441
0.000741199
0.00076884
0.000795932
0.000822994
0.000851178
0.000877809
0.000899088
0.00091305
0.000918011
0.000912707
0.000891859
0.000477422
0.000539629
0.000552301
0.000460479
0.000299595
0.000249208
0.000232911
0.000230546
0.000221902
0.000215276
0.000215408
0.000216497
0.000216808
0.000229655
0.000297964
0.000450705
0.000595883
0.0006099
0.00054322
0.00140334
0.00260478
0.00173495
0.00250418
0.00275312
0.00296569
0.00318452
0.00338859
0.00354769
0.00365909
0.00370501
0.00364524
0.00341618
0.00291737
0.00204849
0.000956107
0.000676936
0.000599365
0.00127428
0.00140996
0.00129775
0.000939844
0.000617979
0.000477984
0.000369818
0.000343332
0.000357201
0.000373401
0.000386075
0.000434037
0.000599243
0.000942237
0.00142711
0.00170126
0.00179341
0.000657834
0.00192626
0.00440591
0.00187216
0.00337388
0.00411529
0.00438033
0.00458753
0.00476221
0.00489117
0.00497317
0.00498178
0.00486748
0.004557
0.00396081
0.00304014
0.00195764
0.00101461
0.000974454
0.00244658
0.00213224
0.00178754
0.00147072
0.00114716
0.000388929
0.000268806
0.000215563
0.000239195
0.000289931
0.000358198
0.000441232
0.000546814
0.000713333
0.00170708
0.00185655
0.0014854
0.000742652
0.00240177
0.00650841
0.00229977
0.00336627
0.00475703
0.00511296
0.00531113
0.00548216
0.00562868
0.00574733
0.00583923
0.00585609
0.00570897
0.0052698
0.00441218
0.00316099
0.00188854
0.00117108
0.00246083
0.00255844
0.0022886
0.00196454
0.00165324
0.00129714
0.00097977
0.00100703
0.00103987
0.00107396
0.00110665
0.00113606
0.00116217
0.00117782
0.00118474
0.0020427
0.00259714
0.00294545
0.0011143
0.00282748
0.00862878
0.00317117
0.00305037
0.00481313
0.00531304
0.00551844
0.00569411
0.00587087
0.00605132
0.0063027
0.00660379
0.00689481
0.00709372
0.00710964
0.00687736
0.00641443
0.00582706
0.00539557
0.00500749
0.00480509
0.00468257
0.00457982
0.00451117
0.00448555
0.00455496
0.00464762
0.00473308
0.00478518
0.0047946
0.00477868
0.00476219
0.00475565
0.00477895
0.00465582
0.00428923
0.00334714
0.00140853
0.00124521
0.00117627
0.00321597
0.0104055
0.00468412
0.00297577
0.00424059
0.00493266
0.00522379
0.00540919
0.0055581
0.00572909
0.00606347
0.00653797
0.00710222
0.00767876
0.00816511
0.00845138
0.00845389
0.00818111
0.00774371
0.00726858
0.00686461
0.00657383
0.00637668
0.00623901
0.00613664
0.00607088
0.00603177
0.00598841
0.00590531
0.00577225
0.00561939
0.00549702
0.00543647
0.00543161
0.00546331
0.00545765
0.0050976
0.00434646
0.00283235
0.00146641
0.00356472
0.0116077
0.0071807
0.00401518
0.00341576
0.0039685
0.0045462
0.00488612
0.00498346
0.00510058
0.00538414
0.00583706
0.00645499
0.00718968
0.00793209
0.0085338
0.00885229
0.00886534
0.00864204
0.00830106
0.00795231
0.00765884
0.00743155
0.00725294
0.00710361
0.00698494
0.0068976
0.0068087
0.0066589
0.00641
0.0060846
0.00575246
0.00547586
0.0052755
0.00511415
0.00489045
0.00448177
0.00392852
0.00317285
0.001436
0.00362223
0.0113628
0.00899742
0.00690771
0.00499665
0.00416637
0.00431953
0.0046905
0.0047045
0.0047027
0.00479888
0.00502324
0.005416
0.00601091
0.00677683
0.00757916
0.00815685
0.00846517
0.00852162
0.00840356
0.00820529
0.00800181
0.00783609
0.00772561
0.00767237
0.0076726
0.007714
0.00775942
0.00773365
0.00755642
0.00719968
0.00669428
0.00606635
0.00537735
0.00469367
0.00407524
0.00356109
0.00309945
0.00265637
0.00167566
0.00349166
0.00411582
0.00589457
0.00620071
0.00569121
0.00505615
0.00462647
0.00441427
0.00430702
0.00428434
0.00432072
0.00440755
0.00456685
0.0048496
0.00530907
0.00593307
0.00658941
0.00713419
0.0074849
0.00764205
0.00765775
0.00759799
0.0075228
0.00748477
0.00753408
0.00771412
0.00803032
0.00841548
0.0087597
0.00899041
0.00907462
0.00898987
0.00880543
0.00857449
0.00828135
0.00771375
0.00661725
0.00555739
0.00502478
0.00187758
0.00942734
0.010917
0.00747335
0.00616566
0.00542739
0.00496132
0.0046521
0.00443559
0.0042814
0.0041763
0.00412145
0.00413584
0.00425671
0.00452407
0.00493773
0.00543051
0.00589646
0.00625414
0.00647826
0.00658894
0.00662926
0.00665158
0.00671529
0.00688729
0.00722647
0.00774209
0.00835299
0.0088947
0.0092637
0.00943764
0.00945114
0.00936547
0.00922571
0.00901366
0.00860835
0.00762115
0.00662592
0.00187384
0.00479674
0.010461
0.00765468
0.00642326
0.00564878
0.00508445
0.00465234
0.00430773
0.00401043
0.00374847
0.00353511
0.00338364
0.00331041
0.00333566
0.00347689
0.00373182
0.00406275
0.00440593
0.00470312
0.00492565
0.00507691
0.00518276
0.00528199
0.00542149
0.00565274
0.00601967
0.00652499
0.00708174
0.00757638
0.00794622
0.00816234
0.00823292
0.00817976
0.00800232
0.00760632
0.00663867
0.00544445
0.00170769
0.00279463
0.00328705
0.00392767
0.00377124
0.00308215
0.00267912
0.00238428
0.00214933
0.00195555
0.00179268
0.00165595
0.00154031
0.00144076
0.00135468
0.00128086
0.00121901
0.00116955
0.00113312
0.00110992
0.00109888
0.00109749
0.00110251
0.001111
0.00112112
0.00113247
0.00114611
0.00116461
0.00119156
0.00123003
0.00128475
0.00135657
0.00143719
0.00151547
0.00158016
0.00162212
0.00163395
0.00160766
0.00156673
0.00152389
0.00140862
)
;

boundaryField
{
    floor
    {
        type            nutkWallFunction;
        Cmu             0.09;
        kappa           0.41;
        E               9.8;
        value           nonuniform List<scalar> 
29
(
0.000107899
5.68634e-05
6.47939e-05
6.6393e-05
5.46854e-05
3.33914e-05
2.64395e-05
2.41519e-05
2.38195e-05
2.25962e-05
2.16506e-05
2.16653e-05
2.18162e-05
2.1857e-05
2.36877e-05
3.31798e-05
5.34488e-05
7.18961e-05
7.36425e-05
6.52606e-05
6.52605e-05
7.95677e-05
8.99477e-05
0.000134042
0.000107899
5.68633e-05
7.22892e-05
0.000117687
0.000140618
)
;
    }
    ceiling
    {
        type            nutkWallFunction;
        Cmu             0.09;
        kappa           0.41;
        E               9.8;
        value           nonuniform List<scalar> 
43
(
0.000318425
0.000369783
0.000435452
0.000419477
0.000348459
0.000306191
0.000274856
0.000249596
0.000228542
0.000210675
0.00019554
0.000182633
0.000171437
0.000161687
0.000153271
0.000146179
0.000140478
0.000136263
0.00013357
0.000132287
0.000132126
0.000132709
0.000133695
0.00013487
0.000136185
0.000137764
0.000139903
0.000143012
0.000147438
0.000153709
0.000161894
0.000171023
0.000179834
0.00018708
0.000191764
0.000193084
0.000190155
0.000185585
0.000180784
0.000167801
0.000390895
0.000454503
0.000522876
)
;
    }
    sWall
    {
        type            nutkWallFunction;
        Cmu             0.09;
        kappa           0.41;
        E               9.8;
        value           uniform 0.000318495;
    }
    nWall
    {
        type            nutkWallFunction;
        Cmu             0.09;
        kappa           0.41;
        E               9.8;
        value           nonuniform List<scalar> 6(0.000141226 0.000174267 0.000170904 0.000219573 0.000201275 0.000167817);
    }
    sideWalls
    {
        type            empty;
    }
    glass1
    {
        type            nutkWallFunction;
        Cmu             0.09;
        kappa           0.41;
        E               9.8;
        value           nonuniform List<scalar> 9(9.52285e-05 0.000167414 0.000225675 0.000277149 0.000322312 0.000362909 0.000398924 0.000404843 0.000391451);
    }
    glass2
    {
        type            nutkWallFunction;
        Cmu             0.09;
        kappa           0.41;
        E               9.8;
        value           nonuniform List<scalar> 2(0.000197825 0.000220115);
    }
    sun
    {
        type            nutkWallFunction;
        Cmu             0.09;
        kappa           0.41;
        E               9.8;
        value           nonuniform List<scalar> 
14
(
9.52292e-05
9.71046e-05
8.38429e-05
8.6379e-05
8.97659e-05
9.31237e-05
9.64008e-05
9.96613e-05
0.000103044
0.000106227
0.000108763
0.000110423
0.000111011
0.00011038
)
;
    }
    heatsource1
    {
        type            nutkWallFunction;
        Cmu             0.09;
        kappa           0.41;
        E               9.8;
        value           nonuniform List<scalar> 3(0.000167668 0.000149086 0.000141209);
    }
    heatsource2
    {
        type            nutkWallFunction;
        Cmu             0.09;
        kappa           0.41;
        E               9.8;
        value           nonuniform List<scalar> 4(0.000115515 8.18983e-05 8.18983e-05 0.000122402);
    }
    Table_master
    {
        type            nutkWallFunction;
        Cmu             0.09;
        kappa           0.41;
        E               9.8;
        value           nonuniform List<scalar> 9(4.53413e-05 2.91752e-05 2.1736e-05 2.50622e-05 3.20731e-05 4.12703e-05 5.21668e-05 6.56654e-05 8.63469e-05);
    }
    Table_slave
    {
        type            nutkWallFunction;
        Cmu             0.09;
        kappa           0.41;
        E               9.8;
        value           nonuniform List<scalar> 9(0.000118312 0.000121523 0.000125378 0.000129368 0.000133182 0.000136602 0.000139631 0.000141437 0.000142229);
    }
    inlet
    {
        type            calculated;
        value           uniform 0.00942734;
    }
    outlet
    {
        type            calculated;
        value           nonuniform List<scalar> 2(0.00279463 0.00328705);
    }
}


// ************************************************************************* //
