// -*- C++ -*-
// File generated by PyFoam - sorry for the ugliness

FoamFile
{
 version 2.0;
 format ascii;
 class volVectorField;
 location "200";
 object U;
}

dimensions [ 0 1 -1 0 0 0 0 ];

internalField nonuniform List<vector> 459
(
  (0.0206335 0.089812 0)
  (-0.178063 0.0275053 0)
  (-0.208068 0.014222 0)
  (-0.235387 0.00391412 0)
  (-0.246224 -0.00721811 0)
  (-0.237586 -0.0190554 0)
  (-0.209867 -0.0315327 0)
  (-0.165841 -0.042374 0)
  (-0.112164 -0.0492432 0)
  (-0.0572027 -0.0504421 0)
  (-0.000349625 -0.0410476 0)
  (0.0369537 -0.0256911 0)
  (0.0566696 -0.0111247 0)
  (0.0590421 0.00610355 0)
  (0.0424995 0.0364424 0)
  (-0.0205446 0.0143609 0)
  (-0.0440765 -0.0133042 0)
  (-0.0213781 -0.0276207 0)
  (0.00394129 -0.0282702 0)
  (0.0283017 -0.0216599 0)
  (0.0474981 -0.0151281 0)
  (0.0606706 -0.00875956 0)
  (0.0682469 -0.00530574 0)
  (0.071837 -0.00396024 0)
  (0.0736307 -0.00340017 0)
  (0.0748464 -0.0030426 0)
  (0.0757484 -0.00274507 0)
  (0.0762587 -0.0024172 0)
  (0.0760963 -0.00184676 0)
  (0.0745855 -0.000604212 0)
  (0.070317 0.00191957 0)
  (0.0616935 0.0050528 0)
  (0.0495535 0.00923744 0)
  (0.00405487 0.0247078 0)
  (0.189047 0.185482 0)
  (-0.161144 0.0778576 0)
  (-0.167605 0.0534634 0)
  (-0.196801 0.0316858 0)
  (-0.208834 0.00641823 0)
  (-0.201751 -0.0221082 0)
  (-0.176549 -0.0505125 0)
  (-0.13743 -0.0727181 0)
  (-0.0914232 -0.0840747 0)
  (-0.0457446 -0.0831771 0)
  (-0.00339607 -0.067851 0)
  (0.0289181 -0.0433106 0)
  (0.0499074 -0.0175995 0)
  (0.0633924 0.0100098 0)
  (0.069181 0.0401103 0)
  (0.0707615 0.041547 0)
  (0.0477749 0.0436299 0)
  (0.0402943 0.0457516 0)
  (0.0051179 -0.0171814 0)
  (0.0255727 -0.0395686 0)
  (0.0396154 -0.0393309 0)
  (0.0528382 -0.0318997 0)
  (0.0638261 -0.0223333 0)
  (0.0692027 -0.0101993 0)
  (0.0706493 -0.00296428 0)
  (0.0707411 -0.00015941 0)
  (0.0709471 0.000902754 0)
  (0.071304 0.00146621 0)
  (0.0715825 0.00187752 0)
  (0.0717315 0.00241776 0)
  (0.0716822 0.00351636 0)
  (0.0708572 0.00612543 0)
  (0.0666681 0.0129638 0)
  (0.056331 0.0194842 0)
  (0.0462416 0.0264119 0)
  (-0.0315125 0.0515253 0)
  (0.343513 0.277207 0)
  (-0.170578 0.121968 0)
  (-0.12735 0.0856754 0)
  (-0.156597 0.0487189 0)
  (-0.168124 0.00682563 0)
  (-0.159695 -0.039223 0)
  (-0.134106 -0.0832735 0)
  (-0.0981082 -0.114778 0)
  (-0.0593051 -0.127609 0)
  (-0.022873 -0.121973 0)
  (0.00930672 -0.0988212 0)
  (0.0339117 -0.0674177 0)
  (0.052248 -0.0340173 0)
  (0.0650327 -0.000562069 0)
  (0.0725847 0.0300205 0)
  (0.0708742 0.0473972 0)
  (0.059903 0.0799694 0)
  (0.105513 -8.96639e-05 0)
  (0.0735815 -0.0334597 0)
  (0.0709316 -0.0470883 0)
  (0.0738992 -0.0470193 0)
  (0.0770551 -0.0397724 0)
  (0.0807128 -0.0315386 0)
  (0.0799638 -0.0241038 0)
  (0.0717424 -0.0158866 0)
  (0.065456 -0.0114348 0)
  (0.062577 -0.00893038 0)
  (0.0612319 -0.00732862 0)
  (0.0603055 -0.00623209 0)
  (0.0596891 -0.00534518 0)
  (0.0600138 -0.00410699 0)
  (0.0627549 -0.000244058 0)
  (0.0605064 0.0181363 0)
  (0.0473668 0.0312835 0)
  (0.0455692 0.0426145 0)
  (-0.0671673 0.0776687 0)
  (0.484383 0.350976 0)
  (-0.197638 0.160523 0)
  (-0.0852003 0.114743 0)
  (-0.113509 0.0652478 0)
  (-0.121241 0.00789439 0)
  (-0.105641 -0.0565091 0)
  (-0.0777372 -0.114878 0)
  (-0.0458431 -0.152243 0)
  (-0.0163956 -0.163697 0)
  (0.00988329 -0.152114 0)
  (0.0302798 -0.124009 0)
  (0.0469225 -0.0872276 0)
  (0.0599091 -0.048351 0)
  (0.0701513 -0.0111436 0)
  (0.0795197 0.0223332 0)
  (0.0907026 0.0487282 0)
  (0.107972 0.0802682 0)
  (0.137727 0.0733964 0)
  (0.128479 0.0118033 0)
  (0.113283 -0.0234561 0)
  (0.102987 -0.0389344 0)
  (0.0946325 -0.0417672 0)
  (0.0873397 -0.0368487 0)
  (0.081292 -0.0274872 0)
  (0.0810233 -0.0159936 0)
  (0.0871506 -0.0101264 0)
  (0.0908773 -0.00678897 0)
  (0.0908794 -0.00455214 0)
  (0.0885289 -0.00264892 0)
  (0.084373 -0.000741194 0)
  (0.0779291 0.00147349 0)
  (0.068068 0.00446509 0)
  (0.050916 0.00910795 0)
  (0.0390194 0.0298731 0)
  (0.0295746 0.0454671 0)
  (0.0456358 0.0590467 0)
  (-0.107202 0.0979387 0)
  (0.60859 0.407634 0)
  (-0.234129 0.190889 0)
  (-0.0430619 0.132934 0)
  (-0.0670326 0.0759749 0)
  (-0.0643239 0.00558364 0)
  (-0.0344387 -0.0781776 0)
  (-0.00579976 -0.144669 0)
  (0.0184281 -0.180917 0)
  (0.0351842 -0.18631 0)
  (0.0473234 -0.170033 0)
  (0.0558162 -0.138332 0)
  (0.0619155 -0.0983156 0)
  (0.0664639 -0.0569334 0)
  (0.070888 -0.0189572 0)
  (0.0771574 0.0131031 0)
  (0.0868205 0.0357829 0)
  (0.102672 0.0453532 0)
  (0.114774 0.016735 0)
  (0.113628 -0.0116572 0)
  (0.106299 -0.0261382 0)
  (0.0959083 -0.0322962 0)
  (0.0847263 -0.0326934 0)
  (0.0743676 -0.0284 0)
  (0.06606 -0.0203308 0)
  (0.0617991 -0.00887784 0)
  (0.0611252 -0.00201159 0)
  (0.0603264 0.00139328 0)
  (0.0587438 0.00354375 0)
  (0.0569093 0.00564186 0)
  (0.0547225 0.00827396 0)
  (0.0516738 0.0118786 0)
  (0.0472578 0.0169642 0)
  (0.0402928 0.0242133 0)
  (0.0334411 0.0381476 0)
  (0.0253728 0.0539871 0)
  (0.0529903 0.0724437 0)
  (-0.0297746 0.105817 0)
  (0.0446328 0.027807 0)
  (-0.0615226 -0.0339204 0)
  (-0.268419 -0.056093 0)
  (0.703282 0.453372 0)
  (-0.272665 0.209355 0)
  (-0.00778031 0.130228 0)
  (-0.0150935 0.074466 0)
  (0.0185813 -0.0186 0)
  (0.0539561 -0.108132 0)
  (0.0769254 -0.167385 0)
  (0.0884496 -0.194681 0)
  (0.090825 -0.194358 0)
  (0.0872264 -0.173526 0)
  (0.080457 -0.139144 0)
  (0.0726834 -0.0977236 0)
  (0.065753 -0.0563019 0)
  (0.0612698 -0.0200381 0)
  (0.0604752 0.00805292 0)
  (0.0648166 0.0252586 0)
  (0.0746778 0.0287553 0)
  (0.0821397 0.0138718 0)
  (0.0821172 -0.00190624 0)
  (0.0758676 -0.0133958 0)
  (0.0660864 -0.0196983 0)
  (0.0553667 -0.0210988 0)
  (0.0452356 -0.0184451 0)
  (0.0368612 -0.0127596 0)
  (0.0314107 -0.00546462 0)
  (0.0288668 -0.000674802 0)
  (0.0276806 0.00175023 0)
  (0.0274885 0.00329463 0)
  (0.0279669 0.00516237 0)
  (0.0289061 0.00808717 0)
  (0.0299873 0.0125557 0)
  (0.0310745 0.0189991 0)
  (0.0318014 0.0276634 0)
  (0.0333757 0.0392724 0)
  (0.0334831 0.0534125 0)
  (0.0616388 0.0736673 0)
  (0.0411495 0.0936893 0)
  (0.0882807 0.0630018 0)
  (0.113514 0.0420046 0)
  (-0.130331 -0.00754945 0)
  (0.771688 0.494213 0)
  (-0.291798 0.191075 0)
  (0.0310949 0.0713065 0)
  (0.0632413 0.0232166 0)
  (0.122772 -0.0658156 0)
  (0.154952 -0.138176 0)
  (0.16677 -0.181129 0)
  (0.162031 -0.195145 0)
  (0.145103 -0.185421 0)
  (0.121205 -0.159246 0)
  (0.0954204 -0.12331 0)
  (0.0710334 -0.0826054 0)
  (0.050937 -0.0437468 0)
  (0.0365866 -0.0116406 0)
  (0.0289111 0.0103705 0)
  (0.0299773 0.0212947 0)
  (0.0360274 0.0221447 0)
  (0.0404658 0.0131607 0)
  (0.0396707 0.00223721 0)
  (0.0349229 -0.00620553 0)
  (0.0268608 -0.0107241 0)
  (0.0176456 -0.0116225 0)
  (0.00875625 -0.00972847 0)
  (0.00139127 -0.00598943 0)
  (-0.00332725 -0.00175384 0)
  (-0.00534037 0.000755359 0)
  (-0.0051034 0.00164559 0)
  (-0.00352811 0.00204985 0)
  (-0.000739577 0.00303835 0)
  (0.0032813 0.00536641 0)
  (0.00836619 0.00937106 0)
  (0.0146163 0.0152791 0)
  (0.021891 0.023153 0)
  (0.0311616 0.0325876 0)
  (0.0402735 0.0431157 0)
  (0.065174 0.0589385 0)
  (0.078947 0.0669076 0)
  (0.114154 0.0439985 0)
  (0.15525 0.0379567 0)
  (-0.0337613 0.0885504 0)
  (0.882417 0.487618 0)
  (-0.0363781 0.166224 0)
  (0.127099 -0.0189494 0)
  (0.235009 -0.0920261 0)
  (0.275269 -0.1332 0)
  (0.279409 -0.163174 0)
  (0.26183 -0.17705 0)
  (0.227893 -0.172947 0)
  (0.183024 -0.153205 0)
  (0.133766 -0.123256 0)
  (0.086827 -0.0884589 0)
  (0.045468 -0.0516505 0)
  (0.0144546 -0.0191317 0)
  (-0.00664749 0.00447522 0)
  (-0.0124941 0.0150191 0)
  (-0.0112939 0.0189873 0)
  (-0.00709298 0.0179303 0)
  (-0.00435137 0.0120364 0)
  (-0.00546491 0.00496486 0)
  (-0.00961844 -0.000406371 0)
  (-0.0158452 -0.0031178 0)
  (-0.0230923 -0.00353634 0)
  (-0.0299182 -0.00247497 0)
  (-0.0353441 -0.000796593 0)
  (-0.0385603 0.00055153 0)
  (-0.0394965 0.00076271 0)
  (-0.0389387 2.78212e-05 0)
  (-0.0374701 -0.00107978 0)
  (-0.0348052 -0.00197541 0)
  (-0.0305148 -0.00204941 0)
  (-0.0240624 -0.000831022 0)
  (-0.0155598 0.00179428 0)
  (-0.00588849 0.00555654 0)
  (0.00765263 0.00979392 0)
  (0.0197899 0.0133066 0)
  (0.0390496 0.0195421 0)
  (0.0561179 0.0146617 0)
  (0.072812 -0.00890901 0)
  (0.131145 0.0411932 0)
  (-0.426936 0.20415 0)
  (1.0379 0.428063 0)
  (0.498088 0.280692 0)
  (0.510199 0.167377 0)
  (0.525943 0.0600838 0)
  (0.476309 -0.0233943 0)
  (0.402795 -0.0786226 0)
  (0.324687 -0.104574 0)
  (0.245699 -0.106251 0)
  (0.167994 -0.0902448 0)
  (0.0955003 -0.0646909 0)
  (0.0337366 -0.0356783 0)
  (-0.0191612 -0.00601275 0)
  (-0.0440397 0.008254 0)
  (-0.0532892 0.013965 0)
  (-0.0547824 0.0160978 0)
  (-0.0528991 0.0164917 0)
  (-0.0499873 0.0150681 0)
  (-0.0484598 0.0117548 0)
  (-0.0495385 0.00789546 0)
  (-0.052881 0.00478594 0)
  (-0.0575256 0.00298529 0)
  (-0.0624314 0.00224899 0)
  (-0.066919 0.00205109 0)
  (-0.0704647 0.00185452 0)
  (-0.0730697 0.00123748 0)
  (-0.0751372 2.43191e-05 0)
  (-0.0772261 -0.00148543 0)
  (-0.0797185 -0.00279273 0)
  (-0.0832367 -0.00332284 0)
  (-0.088181 -0.0024185 0)
  (-0.0948335 0.000526432 0)
  (-0.103274 0.00593089 0)
  (-0.114434 0.0140641 0)
  (-0.130951 0.0253148 0)
  (-0.155791 0.0396483 0)
  (-0.190612 0.0556946 0)
  (-0.238558 0.0692623 0)
  (-0.293086 0.0767552 0)
  (-0.356551 0.0783267 0)
  (-0.602887 0.0755041 0)
  (-0.0663712 0.0416993 0)
  (0.106592 -0.0304381 0)
  (0.16983 -0.0802557 0)
  (0.139925 -0.0797634 0)
  (0.0972935 -0.0629589 0)
  (0.0498417 -0.0414707 0)
  (-0.00439168 -0.0152128 0)
  (-0.0524298 0.00486381 0)
  (-0.0805742 0.0147725 0)
  (-0.0930617 0.0180139 0)
  (-0.0965863 0.0176439 0)
  (-0.096372 0.0169936 0)
  (-0.0943371 0.0165506 0)
  (-0.0915919 0.016293 0)
  (-0.0890606 0.0157908 0)
  (-0.0877427 0.0148066 0)
  (-0.0880935 0.0137346 0)
  (-0.0898373 0.013081 0)
  (-0.0923265 0.0131069 0)
  (-0.0949157 0.0137098 0)
  (-0.0971999 0.0145789 0)
  (-0.0990354 0.0153719 0)
  (-0.100543 0.0158116 0)
  (-0.102004 0.0157407 0)
  (-0.103691 0.0151971 0)
  (-0.105741 0.0143861 0)
  (-0.108199 0.0137143 0)
  (-0.111003 0.0138241 0)
  (-0.114031 0.015601 0)
  (-0.117105 0.0200792 0)
  (-0.120064 0.0282323 0)
  (-0.122916 0.0405873 0)
  (-0.125857 0.0565356 0)
  (-0.128784 0.0730759 0)
  (-0.128488 0.0819245 0)
  (-0.106112 0.0652609 0)
  (-0.0282651 -0.0169362 0)
  (-0.263029 -0.200793 0)
  (0.0738166 0.187755 0)
  (0.0290933 0.0352605 0)
  (-0.00772384 -0.0246371 0)
  (-0.0534398 -0.0239085 0)
  (-0.0940887 -0.0127446 0)
  (-0.123844 -0.00425971 0)
  (-0.140784 0.0010365 0)
  (-0.145663 0.00190569 0)
  (-0.145546 0.000380629 0)
  (-0.141971 -0.00186285 0)
  (-0.137159 -0.0047618 0)
  (-0.132292 -0.00728703 0)
  (-0.127587 -0.00923198 0)
  (-0.12311 -0.0109309 0)
  (-0.119062 -0.0129942 0)
  (-0.115788 -0.0158952 0)
  (-0.113485 -0.0196753 0)
  (-0.112063 -0.0240616 0)
  (-0.111229 -0.0286421 0)
  (-0.110663 -0.0330389 0)
  (-0.110151 -0.0369917 0)
  (-0.109634 -0.040343 0)
  (-0.109184 -0.0429558 0)
  (-0.108921 -0.0445989 0)
  (-0.108907 -0.0448702 0)
  (-0.109057 -0.0432781 0)
  (-0.109095 -0.0393998 0)
  (-0.108541 -0.0329951 0)
  (-0.106691 -0.0240025 0)
  (-0.102609 -0.0123953 0)
  (-0.0951975 0.00195455 0)
  (-0.0834577 0.0190005 0)
  (-0.0668979 0.0374037 0)
  (-0.0461032 0.0529467 0)
  (-0.0237836 0.0593464 0)
  (0.0193503 0.0345428 0)
  (0.141827 -0.0274934 0)
  (-0.195911 -0.101361 0)
  (-0.0865748 -0.337466 0)
  (-0.430322 -0.123289 0)
  (-0.308889 0.0779484 0)
  (-0.280002 0.0118127 0)
  (-0.241587 0.0173163 0)
  (-0.23698 0.0286399 0)
  (-0.234106 0.0373795 0)
  (-0.228149 0.0452202 0)
  (-0.218527 0.052247 0)
  (-0.206793 0.0577716 0)
  (-0.194967 0.0622826 0)
  (-0.184032 0.0663633 0)
  (-0.174462 0.0703338 0)
  (-0.166038 0.0745329 0)
  (-0.158215 0.0791825 0)
  (-0.150539 0.0845084 0)
  (-0.142828 0.0907 0)
  (-0.135179 0.0977994 0)
  (-0.127799 0.105616 0)
  (-0.120861 0.113717 0)
  (-0.114454 0.121534 0)
  (-0.108592 0.12854 0)
  (-0.103254 0.134391 0)
  (-0.0984111 0.13891 0)
  (-0.0940546 0.141976 0)
  (-0.0901908 0.143376 0)
  (-0.0868019 0.142777 0)
  (-0.0837906 0.13983 0)
  (-0.0809172 0.13437 0)
  (-0.0776814 0.126644 0)
  (-0.0731053 0.117453 0)
  (-0.0655509 0.108134 0)
  (-0.0530234 0.100391 0)
  (-0.0342604 0.0959076 0)
  (-0.00849786 0.0951758 0)
  (0.0309032 0.0954915 0)
  (0.0639456 0.0927732 0)
  (0.0960166 0.085364 0)
  (0.158754 0.0667707 0)
  (-0.258699 0.0334897 0)
)
;

boundaryField
{
  floor
  {
    type noSlip;
  }
  ceiling
  {
    type noSlip;
  }
  sWall
  {
    type noSlip;
  }
  nWall
  {
    type noSlip;
  }
  sideWalls
  {
    type empty;
  }
  glass1
  {
    type noSlip;
  }
  glass2
  {
    type noSlip;
  }
  sun
  {
    type noSlip;
  }
  heatsource1
  {
    type noSlip;
  }
  heatsource2
  {
    type noSlip;
  }
  Table_master
  {
    type noSlip;
  }
  Table_slave
  {
    type noSlip;
  }
  inlet
  {
    type fixedValue;
    value uniform (0.0382683 -0.092388 0);
  }
  outlet
  {
    type zeroGradient;
  }
} 	// ************************************************************************* //

