// -*- C++ -*-
// File generated by PyFoam - sorry for the ugliness

FoamFile
{
 version 2.0;
 format ascii;
 class volScalarField;
 location "700";
 object T;
}

dimensions [ 0 0 0 1 0 0 0 ];

internalField nonuniform List<scalar> 459
(
  303.006
  302.748
  302.738
  302.737
  302.736
  302.735
  302.731
  302.724
  302.717
  302.714
  302.717
  302.73
  302.736
  302.74
  302.751
  302.992
  302.965
  302.952
  302.96
  302.977
  302.991
  303.003
  303.013
  303.023
  303.033
  303.043
  303.053
  303.064
  303.074
  303.085
  303.097
  303.11
  303.128
  303.162
  303.173
  302.783
  302.762
  302.765
  302.769
  302.769
  302.76
  302.742
  302.722
  302.71
  302.713
  302.727
  302.737
  302.74
  302.743
  302.741
  302.735
  302.996
  302.932
  302.923
  302.939
  302.962
  302.984
  302.994
  303.002
  303.01
  303.018
  303.026
  303.034
  303.043
  303.052
  303.062
  303.074
  303.089
  303.11
  303.154
  303.351
  302.831
  302.796
  302.809
  302.823
  302.829
  302.814
  302.774
  302.732
  302.708
  302.711
  302.731
  302.747
  302.753
  302.753
  302.75
  302.743
  302.948
  302.907
  302.907
  302.936
  302.974
  303.008
  303.011
  303.015
  303.021
  303.027
  303.034
  303.041
  303.05
  303.058
  303.067
  303.08
  303.094
  303.113
  303.155
  303.533
  302.892
  302.837
  302.863
  302.896
  302.916
  302.887
  302.813
  302.742
  302.704
  302.708
  302.735
  302.761
  302.776
  302.776
  302.771
  302.762
  302.77
  302.793
  302.835
  302.894
  302.96
  303.022
  303.072
  303.113
  303.146
  303.173
  303.198
  303.222
  303.243
  303.263
  303.281
  303.295
  303.221
  303.165
  303.142
  303.165
  303.715
  302.971
  302.886
  302.918
  302.977
  303.015
  302.959
  302.841
  302.745
  302.698
  302.704
  302.741
  302.784
  302.811
  302.818
  302.816
  302.813
  302.829
  302.864
  302.92
  302.988
  303.06
  303.127
  303.184
  303.234
  303.273
  303.304
  303.33
  303.35
  303.363
  303.37
  303.37
  303.36
  303.308
  303.232
  303.179
  303.177
  303.366
  303.435
  303.428
  303.883
  303.075
  302.961
  302.986
  303.083
  303.095
  302.992
  302.848
  302.733
  302.683
  302.698
  302.755
  302.82
  302.868
  302.889
  302.896
  302.905
  302.935
  302.986
  303.052
  303.125
  303.197
  303.261
  303.314
  303.359
  303.393
  303.42
  303.44
  303.452
  303.457
  303.454
  303.443
  303.422
  303.374
  303.301
  303.233
  303.205
  303.283
  303.323
  303.371
  304.045
  303.241
  303.126
  303.146
  303.218
  303.148
  302.978
  302.799
  302.68
  302.649
  302.694
  302.787
  302.885
  302.958
  303.001
  303.02
  303.042
  303.086
  303.149
  303.216
  303.285
  303.348
  303.402
  303.446
  303.48
  303.505
  303.524
  303.535
  303.539
  303.536
  303.525
  303.507
  303.479
  303.435
  303.373
  303.306
  303.266
  303.285
  303.307
  303.345
  304.27
  303.671
  303.538
  303.52
  303.386
  303.125
  302.847
  302.647
  302.569
  302.605
  302.714
  302.863
  303.002
  303.1
  303.153
  303.178
  303.21
  303.262
  303.327
  303.391
  303.447
  303.495
  303.533
  303.562
  303.583
  303.597
  303.604
  303.607
  303.603
  303.593
  303.578
  303.557
  303.53
  303.49
  303.443
  303.395
  303.369
  303.389
  303.408
  303.514
  304.596
  304.307
  304.066
  303.807
  303.206
  302.683
  302.386
  302.316
  302.42
  302.615
  302.825
  303.045
  303.209
  303.281
  303.318
  303.349
  303.389
  303.44
  303.496
  303.546
  303.588
  303.618
  303.64
  303.654
  303.661
  303.661
  303.656
  303.647
  303.634
  303.619
  303.604
  303.591
  303.579
  303.573
  303.575
  303.588
  303.615
  303.646
  303.664
  303.72
  296.192
  297.032
  298.641
  300.092
  301.169
  301.961
  302.558
  302.996
  303.208
  303.329
  303.401
  303.447
  303.481
  303.515
  303.554
  303.596
  303.636
  303.67
  303.694
  303.709
  303.717
  303.717
  303.713
  303.705
  303.693
  303.681
  303.667
  303.654
  303.642
  303.633
  303.626
  303.624
  303.63
  303.644
  303.668
  303.7
  303.744
  303.809
  296.638
  298.303
  300.247
  301.69
  302.464
  302.922
  303.202
  303.364
  303.462
  303.525
  303.568
  303.601
  303.631
  303.661
  303.691
  303.719
  303.743
  303.76
  303.77
  303.772
  303.77
  303.763
  303.754
  303.743
  303.73
  303.718
  303.705
  303.692
  303.681
  303.671
  303.663
  303.659
  303.66
  303.668
  303.684
  303.714
  303.738
  303.79
  301.897
  299.983
  299.786
  301.951
  302.855
  303.209
  303.389
  303.506
  303.586
  303.641
  303.681
  303.712
  303.736
  303.757
  303.775
  303.791
  303.805
  303.815
  303.821
  303.823
  303.821
  303.816
  303.808
  303.799
  303.789
  303.778
  303.767
  303.756
  303.744
  303.733
  303.721
  303.711
  303.701
  303.693
  303.688
  303.69
  303.699
  303.713
  303.728
  303.785
)
;

boundaryField
{
  floor
  {
    type wallHeatTransfer;
    Tinf uniform 305.2;
    alphaWall uniform 0.24;
    value nonuniform List<scalar> 29
(
  303.039
  303.384
  303.321
  303.272
  303.262
  303.276
  303.294
  303.318
  303.344
  303.369
  303.394
  303.418
  303.441
  303.463
  303.485
  303.507
  303.529
  303.554
  303.582
  303.636
  303.636
  303.583
  303.555
  303.544
  303.039
  303.384
  303.39
  303.274
  302.998
)
;
  }
  ceiling
  {
    type wallHeatTransfer;
    Tinf uniform 303.2;
    alphaWall uniform 0.24;
    value nonuniform List<scalar> 43
(
  301.984
  300.198
  300.011
  302.029
  302.878
  303.208
  303.375
  303.482
  303.554
  303.601
  303.635
  303.66
  303.681
  303.698
  303.713
  303.726
  303.736
  303.744
  303.747
  303.747
  303.743
  303.737
  303.729
  303.72
  303.71
  303.7
  303.69
  303.68
  303.671
  303.662
  303.654
  303.647
  303.641
  303.637
  303.636
  303.64
  303.649
  303.659
  303.67
  303.718
  304.532
  304.263
  297.059
)
;
  }
  sWall
  {
    type wallHeatTransfer;
    Tinf uniform 315.2;
    alphaWall uniform 0.36;
    value uniform 303.189;
  }
  nWall
  {
    type wallHeatTransfer;
    Tinf uniform 307.2;
    alphaWall uniform 0.36;
    value nonuniform List<scalar> 6
(
  304.132
  304.063
  303.964
  304.291
  304.266
  304.341
)
;
  }
  sideWalls
  {
    type empty;
  }
  glass1
  {
    type wallHeatTransfer;
    Tinf uniform 315.2;
    alphaWall uniform 4.3;
    value nonuniform List<scalar> 9
(
  311.095
  310.483
  310.102
  309.816
  309.58
  309.367
  309.218
  309.3
  309.539
)
;
  }
  glass2
  {
    type wallHeatTransfer;
    Tinf uniform 307.2;
    alphaWall uniform 4.3;
    value nonuniform List<scalar> 2
(
  305.792
  305.921
)
;
  }
  sun
  {
    type wallHeatTransfer;
    Tinf uniform 305.2;
    alphaWall uniform 0.24;
    value nonuniform List<scalar> 14
(
  303.219
  302.969
  302.955
  302.946
  302.937
  302.928
  302.918
  302.909
  302.901
  302.901
  302.909
  302.939
  302.965
  302.996
)
;
  }
  heatsource1
  {
    type fixedGradient;
    gradient uniform 0;
  }
  heatsource2
  {
    type fixedGradient;
    gradient uniform 0;
  }
  Table_master
  {
    type zeroGradient;
  }
  Table_slave
  {
    type zeroGradient;
  }
  inlet
  {
    type fixedValue;
    value uniform 293.15;
  }
  outlet
  {
    type zeroGradient;
  }
} 	// ************************************************************************* //

