/*--------------------------------*- C++ -*----------------------------------*\
  =========                 |
  \\      /  F ield         | OpenFOAM: The Open Source CFD Toolbox
   \\    /   O peration     | Website:  https://openfoam.org
    \\  /    A nd           | Version:  6
     \\/     M anipulation  |
\*---------------------------------------------------------------------------*/
FoamFile
{
    version     2.0;
    format      ascii;
    class       volScalarField;
    location    "1300";
    object      alphat;
}
// * * * * * * * * * * * * * * * * * * * * * * * * * * * * * * * * * * * * * //

dimensions      [1 -1 -1 0 0 0 0];

internalField   nonuniform List<scalar> 
459
(
0.00124155
0.00135508
0.00138127
0.00144742
0.00150882
0.00156688
0.00162478
0.00167929
0.00171702
0.0017305
0.00171276
0.00165897
0.00156653
0.00143759
0.00128684
0.00053819
0.00064021
0.0007238
0.000733111
0.000712397
0.000682231
0.000639564
0.000595983
0.000556412
0.000521462
0.000490676
0.000463472
0.000439328
0.000417809
0.000398122
0.000379292
0.000360036
0.000348756
0.000320103
0.00168795
0.00400944
0.00379462
0.00440056
0.0049963
0.00559225
0.00610589
0.00651173
0.00688807
0.00719976
0.00740456
0.00746062
0.00731837
0.00686054
0.00559567
0.00131124
0.000829823
0.00055893
0.00118275
0.00166064
0.00202346
0.00223945
0.00224785
0.0017644
0.00150943
0.00132926
0.00119222
0.00108427
0.000997033
0.000923971
0.000856318
0.000790996
0.000732862
0.000681957
0.000820216
0.000426855
0.00205879
0.00543824
0.00462723
0.00574336
0.00625785
0.00663496
0.00693279
0.00720302
0.00751581
0.00785263
0.0081733
0.00842055
0.00854272
0.00844528
0.00787705
0.00602706
0.00136196
0.00103877
0.00152282
0.00199341
0.00245439
0.00279796
0.00276461
0.000910806
0.000804083
0.000717496
0.000647302
0.000590005
0.000542808
0.000503633
0.000471142
0.000444725
0.000478543
0.000549906
0.000933969
0.000500541
0.00241473
0.00695211
0.0045725
0.00598704
0.00636269
0.00645819
0.0065499
0.00671571
0.00698568
0.00734114
0.00774151
0.00810645
0.00837953
0.00847768
0.00835247
0.00768224
0.00508299
0.00158893
0.00189694
0.00241717
0.0029947
0.00351348
0.00387107
0.00368817
0.00103235
0.00094211
0.000877395
0.000828075
0.000786179
0.000747385
0.000710104
0.000670909
0.000625478
0.0005868
0.000594101
0.00109847
0.000558552
0.00277745
0.00892665
0.00494498
0.00571792
0.006224
0.00616875
0.00613847
0.00627626
0.00652988
0.0068952
0.00733595
0.00773453
0.00800874
0.00811055
0.00804507
0.00778126
0.00711203
0.00603025
0.00565361
0.00558665
0.00563411
0.00569065
0.00568772
0.00549673
0.00466425
0.00425076
0.00400868
0.00382289
0.00362921
0.00335447
0.00297799
0.00251709
0.00200496
0.00149993
0.00111349
0.00110885
0.000765581
0.000693767
0.000834678
0.000937675
0.0031627
0.0110931
0.00679836
0.00555527
0.0060496
0.00621141
0.00606772
0.00618752
0.00639626
0.00673311
0.00716496
0.00757971
0.00784909
0.00790196
0.0077637
0.00753568
0.0073225
0.00718342
0.00718471
0.00720222
0.00715646
0.00703838
0.0068532
0.00658776
0.0061934
0.00583772
0.00552188
0.00521897
0.00491155
0.00458348
0.00417668
0.00367522
0.00308032
0.00242759
0.00184765
0.0013619
0.00106507
0.000913812
0.00129418
0.000981468
0.00352378
0.0126525
0.00973556
0.00706912
0.00661669
0.00662949
0.00645628
0.00636709
0.00647648
0.00680113
0.00725725
0.00769156
0.00794458
0.00793649
0.00771966
0.00747768
0.00743802
0.0076478
0.00788294
0.00794353
0.00780871
0.00753769
0.00717967
0.006763
0.00631344
0.0058901
0.0055015
0.00514053
0.00480764
0.00451022
0.00425096
0.00394084
0.00350507
0.00296219
0.0024382
0.00194604
0.0016042
0.00148129
0.00146826
0.00111486
0.00359934
0.0114529
0.00995062
0.0088342
0.00813877
0.00734927
0.00671526
0.00647007
0.00662036
0.00705872
0.00760641
0.00805842
0.00824164
0.00811057
0.00779207
0.00756783
0.00769234
0.00802023
0.00813265
0.00796091
0.00758637
0.00708643
0.00652318
0.00595631
0.00544059
0.00500341
0.00463749
0.00433409
0.00409426
0.0039236
0.00382711
0.00378716
0.00365375
0.00333579
0.00305462
0.0029169
0.00301337
0.00333693
0.00414637
0.0016915
0.00350898
0.00419285
0.00473667
0.00490484
0.00492387
0.00505799
0.00541884
0.00603362
0.0068395
0.00767319
0.00833847
0.00867076
0.00856585
0.00812589
0.00770463
0.00763199
0.00769611
0.00767094
0.00742517
0.0069748
0.00638004
0.00572449
0.00508949
0.00454064
0.00410401
0.00376721
0.00350449
0.00329614
0.0031286
0.00299007
0.0028694
0.00275839
0.00267381
0.00261309
0.00258984
0.0025979
0.00257865
0.00248012
0.00231376
0.0015697
0.0021578
0.00382677
0.00532921
0.00658833
0.0076085
0.00851619
0.00919333
0.00950646
0.00942426
0.00898048
0.00822232
0.00742142
0.00695698
0.00676917
0.00655878
0.00619119
0.00567297
0.00506908
0.00446187
0.00391351
0.00346441
0.00312866
0.0028886
0.00271861
0.00259884
0.00251666
0.00246435
0.00243731
0.00243516
0.0024614
0.0025004
0.00254868
0.002601
0.00263798
0.00262769
0.00255335
0.00225549
0.00125357
0.00251626
0.005396
0.00742274
0.00834932
0.00897273
0.00940453
0.00927213
0.00863359
0.00772182
0.00678023
0.00599886
0.00543979
0.00506326
0.00471771
0.00430967
0.00385217
0.00339401
0.00298674
0.00266421
0.00243209
0.00227765
0.00217642
0.00211231
0.00207828
0.00207215
0.00208948
0.00212638
0.00217817
0.00224979
0.00233799
0.00243986
0.00254897
0.00264981
0.0027188
0.00273828
0.00269833
0.00194362
0.00128192
0.00215004
0.00226446
0.00234864
0.00241629
0.00218747
0.00201119
0.00192928
0.00183912
0.00170998
0.00154983
0.0013723
0.00119906
0.00104767
0.000928031
0.000841103
0.000778895
0.000733075
0.000698914
0.000674674
0.000659791
0.000653517
0.000654718
0.000662311
0.000675489
0.000693995
0.000717474
0.00074549
0.000778356
0.000816702
0.00086169
0.00091275
0.000969938
0.00103374
0.0011045
0.00118158
0.00126431
0.00127903
0.00114376
0.00108464
0.00128261
)
;

boundaryField
{
    floor
    {
        type            compressible::alphatWallFunction;
        Prt             0.85;
        value           nonuniform List<scalar> 
29
(
0.000182082
7.50618e-05
9.03709e-05
0.000102691
0.000104053
0.000101022
9.65881e-05
9.02757e-05
8.37746e-05
7.7821e-05
7.25189e-05
6.78116e-05
6.3621e-05
5.98757e-05
5.65155e-05
5.3422e-05
5.04445e-05
4.73801e-05
4.55751e-05
4.09553e-05
4.09547e-05
5.79308e-05
6.93239e-05
7.81446e-05
0.00018208
7.50609e-05
7.82004e-05
0.000147742
0.000222906
)
;
    }
    ceiling
    {
        type            compressible::alphatWallFunction;
        Prt             0.85;
        value           nonuniform List<scalar> 
43
(
0.000296481
0.000311225
0.000322025
0.000330792
0.000301482
0.000278663
0.00026799
0.000256178
0.000239139
0.000217805
0.000193862
0.000170158
0.000149121
0.000132246
0.000119825
0.000110843
0.000104172
9.91659e-05
9.55956e-05
9.33957e-05
9.24665e-05
9.26444e-05
9.37685e-05
9.57155e-05
9.84422e-05
0.000101889
0.000105984
0.000110765
0.000116312
0.000122781
0.000130074
0.000138187
0.000147171
0.000157061
0.000167752
0.000179136
0.000181155
0.000162518
0.000154297
0.000181654
0.00046767
0.000550846
0.000343278
)
;
    }
    sWall
    {
        type            compressible::alphatWallFunction;
        Prt             0.85;
        value           uniform 0.000295262;
    }
    nWall
    {
        type            compressible::alphatWallFunction;
        Prt             0.85;
        value           nonuniform List<scalar> 6(0.000133289 0.000139481 0.00015816 0.000177339 0.000181221 0.000181323);
    }
    sideWalls
    {
        type            empty;
    }
    glass1
    {
        type            compressible::alphatWallFunction;
        Prt             0.85;
        value           nonuniform List<scalar> 9(0.000171551 0.000230956 0.000279107 0.000324533 0.000370159 0.000417987 0.000462311 0.000471658 0.000460862);
    }
    glass2
    {
        type            compressible::alphatWallFunction;
        Prt             0.85;
        value           nonuniform List<scalar> 2(0.000234945 0.000218857);
    }
    sun
    {
        type            compressible::alphatWallFunction;
        Prt             0.85;
        value           nonuniform List<scalar> 
14
(
0.000175895
0.000191396
0.000194953
0.000203907
0.000212177
0.000219962
0.000227694
0.000234947
0.00023995
0.000241734
0.000239384
0.000232243
0.000219911
0.000202575
)
;
    }
    heatsource1
    {
        type            compressible::alphatWallFunction;
        Prt             0.85;
        value           nonuniform List<scalar> 3(9.84009e-05 0.000118894 0.000133609);
    }
    heatsource2
    {
        type            compressible::alphatWallFunction;
        Prt             0.85;
        value           nonuniform List<scalar> 4(0.000185549 0.000118196 0.000118195 0.000192457);
    }
    Table_master
    {
        type            compressible::alphatWallFunction;
        Prt             0.85;
        value           nonuniform List<scalar> 9(0.000129787 0.00011448 0.000101883 9.15353e-05 8.29872e-05 7.58689e-05 6.99018e-05 6.49085e-05 6.08165e-05);
    }
    Table_slave
    {
        type            compressible::alphatWallFunction;
        Prt             0.85;
        value           nonuniform List<scalar> 9(0.00014697 0.000134239 0.000125022 0.000117944 0.000111892 0.000106253 0.000100801 9.50318e-05 8.82927e-05);
    }
    inlet
    {
        type            fixedValue;
        value           uniform 1.94e-05;
    }
    outlet
    {
        type            zeroGradient;
    }
}


// ************************************************************************* //
