/*--------------------------------*- C++ -*----------------------------------*\
  =========                 |
  \\      /  F ield         | OpenFOAM: The Open Source CFD Toolbox
   \\    /   O peration     | Website:  https://openfoam.org
    \\  /    A nd           | Version:  6
     \\/     M anipulation  |
\*---------------------------------------------------------------------------*/
FoamFile
{
    version     2.0;
    format      ascii;
    class       volScalarField;
    location    "1200";
    object      nut;
}
// * * * * * * * * * * * * * * * * * * * * * * * * * * * * * * * * * * * * * //

dimensions      [0 2 -1 0 0 0 0];

internalField   nonuniform List<scalar> 
459
(
0.00108797
0.00118827
0.00121256
0.00127127
0.00132603
0.00137819
0.00143083
0.00147812
0.00150921
0.00151742
0.00149692
0.00144374
0.00135447
0.00122801
0.0010756
0.000471984
0.000560638
0.000636731
0.000651452
0.000635929
0.0006107
0.000572247
0.000532509
0.000496414
0.000464586
0.000436601
0.000411918
0.000390041
0.000370577
0.000352799
0.000335832
0.000318537
0.000307761
0.0002818
0.00147474
0.00354857
0.00337666
0.00391837
0.00445425
0.00498399
0.00542441
0.00578443
0.00611176
0.00637537
0.00654056
0.00657687
0.00644779
0.00606404
0.00505437
0.00112601
0.0007468
0.000485614
0.00106248
0.00151772
0.00187304
0.00209088
0.00209871
0.00161487
0.00137186
0.00120303
0.00107588
0.000976409
0.000896422
0.000829834
0.00076802
0.0007078
0.000653739
0.000607035
0.000724125
0.000371425
0.00179518
0.00481172
0.00413567
0.00510033
0.00554942
0.0058793
0.00613902
0.00638607
0.00666743
0.0069664
0.0072445
0.00745726
0.0075621
0.00745782
0.00693961
0.00526287
0.00118616
0.000882272
0.00133664
0.00179909
0.0022651
0.00261697
0.00258084
0.000812878
0.000714457
0.000634958
0.000570821
0.000518705
0.000475955
0.00044061
0.000411457
0.000388003
0.00042041
0.000487551
0.000826606
0.000433952
0.00210178
0.00611873
0.00410351
0.00531389
0.00562423
0.00570805
0.00580076
0.00596096
0.00620883
0.0065337
0.00688595
0.00720534
0.00744251
0.00750772
0.00738073
0.00674458
0.00428286
0.00137595
0.00165338
0.00214453
0.00271452
0.00324234
0.0036099
0.00342668
0.000923218
0.000839844
0.00077992
0.000734031
0.000694955
0.000659111
0.00062463
0.000588475
0.000546792
0.000511957
0.00052228
0.000972836
0.000483136
0.00241379
0.00781502
0.00443118
0.00510582
0.0055108
0.00546707
0.00545764
0.00558907
0.00581577
0.0061554
0.00654141
0.00688583
0.00711338
0.00718983
0.00712867
0.00689806
0.00630283
0.00538685
0.0050956
0.00508838
0.00518492
0.00527902
0.00529801
0.00510987
0.00428197
0.00386935
0.003624
0.00343561
0.00324397
0.00297992
0.00263001
0.0022097
0.00174878
0.00130158
0.000967731
0.000977466
0.000664841
0.000598259
0.00071982
0.000809475
0.00274525
0.0096794
0.0060388
0.00501194
0.00542277
0.00553108
0.00542452
0.00551417
0.00569794
0.00600803
0.00639786
0.00675643
0.00697361
0.00700216
0.00688466
0.00672242
0.00660108
0.00655342
0.00661757
0.00668
0.00666982
0.00657666
0.00640281
0.00613318
0.00572216
0.00534906
0.00502113
0.00471303
0.00440702
0.00408508
0.00369891
0.00323525
0.00269573
0.00211431
0.00160819
0.00119585
0.00093341
0.00079972
0.00112958
0.000848391
0.0030542
0.0110131
0.00855982
0.0063446
0.00600428
0.00593876
0.00572852
0.00563829
0.00575416
0.00606832
0.00648691
0.00686266
0.00706124
0.00703479
0.00686037
0.00672472
0.00681831
0.00711654
0.0073809
0.00745555
0.00733868
0.00708537
0.00673864
0.00632236
0.00586012
0.00541764
0.00501173
0.00463915
0.00430117
0.00400469
0.00375208
0.00346304
0.00307098
0.00258934
0.00213112
0.00170903
0.00141434
0.00131181
0.00130094
0.000971693
0.00311956
0.00991849
0.00865261
0.00773653
0.00708307
0.00635186
0.00583195
0.00567987
0.00587673
0.00631054
0.00681201
0.00719503
0.00732538
0.00719693
0.00696669
0.00690675
0.00718764
0.00755979
0.00767239
0.007525
0.00718591
0.00671713
0.00616989
0.0055966
0.0050549
0.00458532
0.00419175
0.00386951
0.00361924
0.00344372
0.00334382
0.00330071
0.00318939
0.00291611
0.00268102
0.00257403
0.00267195
0.00296099
0.0036526
0.00146426
0.00304338
0.00362775
0.00408795
0.00421059
0.00424353
0.00440522
0.00478526
0.00539567
0.00615787
0.00691185
0.00748236
0.00772319
0.00758466
0.00721623
0.00703401
0.00710753
0.0072525
0.00726514
0.00705785
0.00665826
0.0061152
0.00548492
0.00484159
0.0042567
0.00377594
0.00340344
0.00311921
0.00290251
0.00273676
0.00260718
0.00250035
0.0024067
0.00233723
0.00228849
0.00226995
0.00227503
0.00225323
0.00216144
0.00201269
0.00135666
0.00178371
0.00321032
0.00464416
0.00585785
0.00684808
0.00768782
0.00825851
0.00847755
0.00834729
0.00790055
0.00724109
0.00668106
0.00646086
0.00640146
0.00626118
0.00595452
0.00549177
0.00492401
0.00432091
0.00375391
0.00327172
0.0028959
0.0026236
0.00243297
0.00230194
0.00221498
0.00216166
0.00213527
0.00213372
0.00215754
0.00219305
0.00223635
0.00228204
0.00231286
0.00230126
0.00223497
0.00196802
0.00108202
0.00210825
0.00466728
0.00659775
0.00744496
0.00805583
0.00832246
0.00806621
0.0074522
0.00668254
0.00595197
0.00539129
0.00501944
0.0047754
0.00451757
0.00418507
0.00378716
0.00335848
0.00294726
0.00259765
0.00233078
0.0021432
0.00201938
0.00193864
0.00188832
0.0018636
0.00186377
0.0018846
0.00192206
0.00197903
0.00205239
0.00213908
0.00223268
0.00231881
0.00237682
0.00238847
0.00233033
0.00168663
0.00110612
0.00181897
0.00191525
0.00198583
0.00205933
0.00187894
0.00174297
0.001686
0.00160408
0.00148851
0.00134753
0.00119878
0.00105767
0.000936888
0.000843164
0.00077436
0.000722665
0.00068164
0.000647994
0.000621005
0.000601173
0.00058884
0.000583644
0.000584807
0.000591639
0.000603695
0.000620956
0.000643295
0.000670385
0.000702736
0.000741218
0.00078529
0.00083499
0.00089066
0.000952507
0.00101977
0.00109196
0.00110113
0.000984765
0.000933697
0.00110557
)
;

boundaryField
{
    floor
    {
        type            nutkWallFunction;
        Cmu             0.09;
        kappa           0.41;
        E               9.8;
        value           nonuniform List<scalar> 
29
(
0.000129578
5.61175e-05
6.74063e-05
7.69206e-05
7.87451e-05
7.68216e-05
7.36828e-05
6.88681e-05
6.38506e-05
5.92531e-05
5.51645e-05
5.15405e-05
4.83198e-05
4.54447e-05
4.28694e-05
4.05019e-05
3.82281e-05
3.58948e-05
3.44326e-05
3.08814e-05
3.08813e-05
4.29809e-05
5.11946e-05
5.75497e-05
0.000129578
5.61174e-05
5.78686e-05
0.000106772
0.000164126
)
;
    }
    ceiling
    {
        type            nutkWallFunction;
        Cmu             0.09;
        kappa           0.41;
        E               9.8;
        value           nonuniform List<scalar> 
43
(
0.000213461
0.000224016
0.000231717
0.000239801
0.000220162
0.000205206
0.000198904
0.000189793
0.000176847
0.000160899
0.000143868
0.00012749
0.000113272
0.000102094
9.37958e-05
8.75037e-05
8.24721e-05
7.83185e-05
7.49677e-05
7.2494e-05
7.09507e-05
7.02991e-05
7.04445e-05
7.13001e-05
7.28073e-05
7.49592e-05
7.77336e-05
8.10824e-05
8.50607e-05
8.97648e-05
9.51167e-05
0.00010111
0.000107774
0.000115121
0.000123049
0.000131492
0.000132559
0.000118931
0.000112893
0.000133078
0.000344643
0.000405037
0.000244895
)
;
    }
    sWall
    {
        type            nutkWallFunction;
        Cmu             0.09;
        kappa           0.41;
        E               9.8;
        value           uniform 0.000213521;
    }
    nWall
    {
        type            nutkWallFunction;
        Cmu             0.09;
        kappa           0.41;
        E               9.8;
        value           nonuniform List<scalar> 6(9.80394e-05 0.000102721 0.000117393 0.000130342 0.000133149 0.000133086);
    }
    sideWalls
    {
        type            empty;
    }
    glass1
    {
        type            nutkWallFunction;
        Cmu             0.09;
        kappa           0.41;
        E               9.8;
        value           nonuniform List<scalar> 9(0.000131134 0.00017552 0.000211296 0.000244874 0.000278508 0.000313739 0.000346177 0.000353006 0.000345074);
    }
    glass2
    {
        type            nutkWallFunction;
        Cmu             0.09;
        kappa           0.41;
        E               9.8;
        value           nonuniform List<scalar> 2(0.000174191 0.000162002);
    }
    sun
    {
        type            nutkWallFunction;
        Cmu             0.09;
        kappa           0.41;
        E               9.8;
        value           nonuniform List<scalar> 
14
(
0.000131028
0.000142655
0.000145454
0.000152195
0.00015845
0.000164382
0.000170343
0.000175677
0.000179174
0.000180096
0.000177791
0.000171799
0.000161685
0.000147228
)
;
    }
    heatsource1
    {
        type            nutkWallFunction;
        Cmu             0.09;
        kappa           0.41;
        E               9.8;
        value           nonuniform List<scalar> 3(7.21295e-05 8.71533e-05 9.80384e-05);
    }
    heatsource2
    {
        type            nutkWallFunction;
        Cmu             0.09;
        kappa           0.41;
        E               9.8;
        value           nonuniform List<scalar> 4(0.000135445 9.04475e-05 9.04475e-05 0.000142406);
    }
    Table_master
    {
        type            nutkWallFunction;
        Cmu             0.09;
        kappa           0.41;
        E               9.8;
        value           nonuniform List<scalar> 9(9.845e-05 8.64991e-05 7.67028e-05 6.86917e-05 6.21013e-05 5.66343e-05 5.2068e-05 4.82672e-05 4.51846e-05);
    }
    Table_slave
    {
        type            nutkWallFunction;
        Cmu             0.09;
        kappa           0.41;
        E               9.8;
        value           nonuniform List<scalar> 9(0.000111648 0.000101694 9.4468e-05 8.88904e-05 8.41081e-05 7.96931e-05 7.54187e-05 7.09061e-05 6.56612e-05);
    }
    inlet
    {
        type            calculated;
        value           uniform 0.000100623;
    }
    outlet
    {
        type            calculated;
        value           nonuniform List<scalar> 2(0.00181897 0.00191525);
    }
}


// ************************************************************************* //
