// -*- C++ -*-
// File generated by PyFoam - sorry for the ugliness

FoamFile
{
 version 2.0;
 format ascii;
 class volScalarField;
 location "1200";
 object T;
}

dimensions [ 0 0 0 1 0 0 0 ];

internalField nonuniform List<scalar> 459
(
  303.335
  303.073
  303.06
  303.056
  303.053
  303.049
  303.044
  303.038
  303.029
  303.017
  303.005
  302.997
  302.992
  302.994
  303.006
  303.098
  303.078
  303.071
  303.075
  303.079
  303.084
  303.089
  303.093
  303.098
  303.102
  303.107
  303.111
  303.115
  303.12
  303.124
  303.128
  303.133
  303.14
  303.16
  303.512
  303.114
  303.092
  303.094
  303.097
  303.098
  303.095
  303.086
  303.067
  303.041
  303.015
  302.994
  302.982
  302.979
  302.981
  302.978
  302.974
  303.101
  303.061
  303.056
  303.06
  303.066
  303.072
  303.075
  303.077
  303.079
  303.081
  303.082
  303.084
  303.086
  303.088
  303.09
  303.095
  303.101
  303.111
  303.144
  303.697
  303.165
  303.128
  303.14
  303.155
  303.165
  303.169
  303.157
  303.125
  303.078
  303.031
  302.997
  302.978
  302.973
  302.976
  302.977
  302.977
  303.054
  303.046
  303.049
  303.059
  303.071
  303.082
  303.082
  303.082
  303.082
  303.082
  303.083
  303.083
  303.084
  303.085
  303.086
  303.089
  303.094
  303.103
  303.138
  303.885
  303.227
  303.166
  303.186
  303.217
  303.245
  303.262
  303.247
  303.194
  303.118
  303.047
  302.997
  302.972
  302.968
  302.974
  302.98
  302.983
  302.994
  303.008
  303.028
  303.05
  303.072
  303.093
  303.109
  303.123
  303.135
  303.146
  303.155
  303.164
  303.17
  303.176
  303.181
  303.183
  303.155
  303.129
  303.116
  303.14
  304.069
  303.306
  303.207
  303.225
  303.27
  303.32
  303.356
  303.334
  303.254
  303.144
  303.052
  302.991
  302.964
  302.962
  302.974
  302.988
  303.002
  303.018
  303.038
  303.062
  303.088
  303.114
  303.137
  303.157
  303.175
  303.19
  303.203
  303.214
  303.222
  303.226
  303.227
  303.224
  303.216
  303.194
  303.162
  303.134
  303.14
  303.225
  303.273
  303.278
  304.235
  303.406
  303.273
  303.269
  303.314
  303.384
  303.43
  303.383
  303.273
  303.146
  303.04
  302.973
  302.948
  302.955
  302.978
  303.005
  303.03
  303.056
  303.083
  303.112
  303.141
  303.168
  303.191
  303.211
  303.229
  303.243
  303.255
  303.265
  303.27
  303.272
  303.267
  303.259
  303.246
  303.224
  303.192
  303.16
  303.148
  303.182
  303.201
  303.237
  304.385
  303.568
  303.427
  303.399
  303.425
  303.491
  303.487
  303.391
  303.243
  303.096
  302.986
  302.93
  302.923
  302.95
  302.994
  303.039
  303.078
  303.113
  303.146
  303.176
  303.204
  303.229
  303.25
  303.267
  303.282
  303.294
  303.303
  303.309
  303.312
  303.31
  303.302
  303.289
  303.272
  303.251
  303.222
  303.191
  303.173
  303.18
  303.19
  303.22
  304.604
  303.991
  303.831
  303.737
  303.706
  303.657
  303.517
  303.316
  303.114
  302.961
  302.878
  302.864
  302.9
  302.963
  303.037
  303.101
  303.151
  303.19
  303.22
  303.246
  303.269
  303.288
  303.305
  303.318
  303.328
  303.336
  303.341
  303.343
  303.342
  303.338
  303.33
  303.318
  303.301
  303.281
  303.26
  303.238
  303.228
  303.238
  303.256
  303.384
  304.917
  304.629
  304.366
  304.137
  303.933
  303.627
  303.26
  302.952
  302.763
  302.696
  302.723
  302.812
  302.921
  303.029
  303.134
  303.199
  303.24
  303.268
  303.29
  303.309
  303.326
  303.34
  303.351
  303.359
  303.365
  303.368
  303.369
  303.368
  303.365
  303.362
  303.359
  303.358
  303.358
  303.362
  303.374
  303.394
  303.424
  303.455
  303.479
  303.54
  296.897
  298.853
  299.858
  300.452
  301.025
  301.561
  302.022
  302.394
  302.685
  302.932
  303.094
  303.189
  303.248
  303.286
  303.312
  303.332
  303.348
  303.361
  303.372
  303.38
  303.385
  303.389
  303.391
  303.392
  303.392
  303.392
  303.392
  303.392
  303.392
  303.393
  303.396
  303.402
  303.413
  303.429
  303.45
  303.472
  303.493
  303.537
  297.327
  299.119
  300.129
  300.946
  301.676
  302.227
  302.605
  302.868
  303.049
  303.169
  303.245
  303.294
  303.326
  303.349
  303.365
  303.379
  303.389
  303.397
  303.403
  303.407
  303.409
  303.41
  303.411
  303.411
  303.411
  303.411
  303.411
  303.411
  303.412
  303.413
  303.415
  303.419
  303.427
  303.437
  303.45
  303.468
  303.49
  303.515
  299.539
  299.467
  299.463
  301.304
  302.196
  302.628
  302.858
  303.023
  303.14
  303.223
  303.282
  303.322
  303.35
  303.369
  303.382
  303.392
  303.399
  303.404
  303.408
  303.41
  303.412
  303.413
  303.414
  303.415
  303.416
  303.417
  303.417
  303.418
  303.419
  303.419
  303.42
  303.421
  303.423
  303.425
  303.429
  303.436
  303.444
  303.451
  303.509
  303.599
)
;

boundaryField
{
  floor
  {
    type wallHeatTransfer;
    Tinf uniform 305.2;
    alphaWall uniform 0.24;
    value nonuniform List<scalar> 29
(
  303.238
  303.497
  303.438
  303.401
  303.399
  303.409
  303.422
  303.441
  303.463
  303.484
  303.505
  303.525
  303.544
  303.563
  303.581
  303.598
  303.616
  303.636
  303.651
  303.693
  303.693
  303.6
  303.552
  303.525
  303.238
  303.497
  303.492
  303.318
  303.187
)
;
  }
  ceiling
  {
    type wallHeatTransfer;
    Tinf uniform 303.2;
    alphaWall uniform 0.24;
    value nonuniform List<scalar> 43
(
  299.794
  299.717
  299.705
  301.424
  302.265
  302.67
  302.884
  303.037
  303.145
  303.221
  303.274
  303.309
  303.332
  303.348
  303.358
  303.365
  303.369
  303.373
  303.375
  303.376
  303.377
  303.378
  303.379
  303.38
  303.381
  303.382
  303.384
  303.385
  303.387
  303.389
  303.391
  303.393
  303.396
  303.399
  303.404
  303.411
  303.419
  303.423
  303.473
  303.558
  304.837
  304.572
  297.688
)
;
  }
  sWall
  {
    type wallHeatTransfer;
    Tinf uniform 315.2;
    alphaWall uniform 0.36;
    value uniform 301.125;
  }
  nWall
  {
    type wallHeatTransfer;
    Tinf uniform 307.2;
    alphaWall uniform 0.36;
    value nonuniform List<scalar> 6
(
  304.001
  303.944
  303.866
  304.088
  304.06
  304.133
)
;
  }
  sideWalls
  {
    type empty;
  }
  glass1
  {
    type wallHeatTransfer;
    Tinf uniform 315.2;
    alphaWall uniform 4.3;
    value nonuniform List<scalar> 9
(
  311.431
  310.799
  310.402
  310.1
  309.849
  309.62
  309.445
  309.513
  309.738
)
;
  }
  glass2
  {
    type wallHeatTransfer;
    Tinf uniform 307.2;
    alphaWall uniform 4.3;
    value nonuniform List<scalar> 2
(
  305.756
  305.871
)
;
  }
  sun
  {
    type wallHeatTransfer;
    Tinf uniform 305.2;
    alphaWall uniform 0.24;
    value nonuniform List<scalar> 14
(
  303.531
  303.282
  303.267
  303.256
  303.246
  303.237
  303.228
  303.217
  303.206
  303.194
  303.185
  303.182
  303.188
  303.205
)
;
  }
  heatsource1
  {
    type fixedGradient;
    gradient uniform 0;
  }
  heatsource2
  {
    type fixedGradient;
    gradient uniform 0;
  }
  Table_master
  {
    type zeroGradient;
  }
  Table_slave
  {
    type zeroGradient;
  }
  inlet
  {
    type fixedValue;
    value uniform 293.15;
  }
  outlet
  {
    type zeroGradient;
  }
} 	// ************************************************************************* //

