// -*- C++ -*-
// File generated by PyFoam - sorry for the ugliness

FoamFile
{
 version 2.0;
 format ascii;
 class volScalarField;
 location "600";
 object T;
}

dimensions [ 0 0 0 1 0 0 0 ];

internalField nonuniform List<scalar> 459
(
  303.32
  303.056
  303.044
  303.04
  303.037
  303.033
  303.029
  303.023
  303.014
  303.002
  302.99
  302.981
  302.976
  302.976
  302.986
  303.072
  303.053
  303.047
  303.05
  303.055
  303.059
  303.063
  303.067
  303.071
  303.075
  303.079
  303.082
  303.086
  303.09
  303.093
  303.097
  303.101
  303.107
  303.126
  303.498
  303.098
  303.075
  303.079
  303.082
  303.083
  303.08
  303.072
  303.054
  303.029
  303.002
  302.981
  302.968
  302.963
  302.963
  302.959
  302.953
  303.074
  303.038
  303.033
  303.037
  303.043
  303.049
  303.051
  303.052
  303.054
  303.055
  303.055
  303.056
  303.057
  303.059
  303.061
  303.064
  303.07
  303.079
  303.11
  303.684
  303.149
  303.112
  303.124
  303.139
  303.15
  303.154
  303.145
  303.114
  303.068
  303.022
  302.986
  302.965
  302.958
  302.959
  302.96
  302.958
  303.03
  303.023
  303.028
  303.038
  303.049
  303.059
  303.059
  303.058
  303.058
  303.057
  303.057
  303.057
  303.057
  303.057
  303.057
  303.06
  303.063
  303.071
  303.104
  303.873
  303.211
  303.149
  303.169
  303.2
  303.229
  303.246
  303.236
  303.186
  303.112
  303.04
  302.988
  302.96
  302.954
  302.958
  302.963
  302.966
  302.977
  302.99
  303.01
  303.031
  303.052
  303.072
  303.088
  303.101
  303.112
  303.122
  303.131
  303.139
  303.145
  303.149
  303.153
  303.155
  303.125
  303.098
  303.084
  303.105
  304.056
  303.289
  303.189
  303.207
  303.251
  303.301
  303.339
  303.323
  303.249
  303.143
  303.047
  302.984
  302.953
  302.948
  302.957
  302.971
  302.984
  303
  303.019
  303.043
  303.068
  303.093
  303.115
  303.134
  303.151
  303.166
  303.178
  303.187
  303.194
  303.197
  303.197
  303.193
  303.186
  303.164
  303.131
  303.102
  303.106
  303.188
  303.235
  303.241
  304.223
  303.39
  303.255
  303.249
  303.293
  303.359
  303.414
  303.376
  303.273
  303.147
  303.038
  302.967
  302.937
  302.94
  302.96
  302.986
  303.011
  303.036
  303.063
  303.091
  303.119
  303.145
  303.168
  303.187
  303.203
  303.216
  303.227
  303.235
  303.239
  303.239
  303.234
  303.225
  303.212
  303.191
  303.16
  303.127
  303.114
  303.147
  303.165
  303.201
  304.373
  303.551
  303.409
  303.377
  303.402
  303.466
  303.474
  303.389
  303.248
  303.1
  302.986
  302.924
  302.911
  302.933
  302.973
  303.017
  303.056
  303.09
  303.122
  303.152
  303.179
  303.203
  303.223
  303.239
  303.252
  303.262
  303.27
  303.275
  303.276
  303.273
  303.264
  303.252
  303.236
  303.215
  303.187
  303.156
  303.138
  303.144
  303.155
  303.184
  304.592
  303.976
  303.813
  303.716
  303.679
  303.643
  303.519
  303.327
  303.127
  302.968
  302.877
  302.854
  302.883
  302.941
  303.011
  303.074
  303.124
  303.163
  303.193
  303.218
  303.24
  303.258
  303.273
  303.285
  303.294
  303.3
  303.303
  303.303
  303.301
  303.297
  303.288
  303.276
  303.26
  303.242
  303.221
  303.199
  303.189
  303.202
  303.22
  303.344
  304.905
  304.616
  304.351
  304.123
  303.926
  303.651
  303.296
  302.984
  302.782
  302.7
  302.713
  302.79
  302.894
  302.999
  303.099
  303.167
  303.208
  303.236
  303.258
  303.276
  303.291
  303.304
  303.313
  303.32
  303.324
  303.326
  303.326
  303.324
  303.321
  303.317
  303.314
  303.313
  303.314
  303.319
  303.332
  303.354
  303.385
  303.417
  303.438
  303.493
  296.946
  298.961
  300.003
  300.538
  301.057
  301.558
  301.999
  302.36
  302.645
  302.883
  303.056
  303.153
  303.214
  303.251
  303.276
  303.295
  303.31
  303.322
  303.331
  303.338
  303.343
  303.345
  303.347
  303.347
  303.347
  303.346
  303.346
  303.346
  303.347
  303.348
  303.352
  303.359
  303.372
  303.39
  303.414
  303.437
  303.457
  303.48
  297.38
  299.193
  300.172
  300.941
  301.614
  302.173
  302.555
  302.823
  303.008
  303.131
  303.208
  303.258
  303.289
  303.311
  303.326
  303.338
  303.347
  303.354
  303.358
  303.361
  303.362
  303.363
  303.364
  303.364
  303.364
  303.365
  303.365
  303.365
  303.366
  303.367
  303.37
  303.376
  303.385
  303.397
  303.413
  303.431
  303.431
  303.462
  299.525
  299.455
  299.45
  301.258
  302.14
  302.575
  302.812
  302.981
  303.099
  303.184
  303.243
  303.283
  303.31
  303.328
  303.341
  303.349
  303.355
  303.36
  303.363
  303.365
  303.367
  303.368
  303.369
  303.369
  303.37
  303.371
  303.372
  303.372
  303.373
  303.374
  303.375
  303.376
  303.378
  303.381
  303.385
  303.395
  303.404
  303.41
  303.413
  303.452
)
;

boundaryField
{
  floor
  {
    type wallHeatTransfer;
    Tinf uniform 305.2;
    alphaWall uniform 0.24;
    value nonuniform List<scalar> 29
(
  303.218
  303.477
  303.417
  303.381
  303.38
  303.389
  303.403
  303.421
  303.442
  303.463
  303.483
  303.502
  303.521
  303.539
  303.557
  303.574
  303.591
  303.61
  303.625
  303.667
  303.667
  303.57
  303.522
  303.495
  303.218
  303.477
  303.47
  303.294
  303.172
)
;
  }
  ceiling
  {
    type wallHeatTransfer;
    Tinf uniform 303.2;
    alphaWall uniform 0.24;
    value nonuniform List<scalar> 43
(
  299.78
  299.704
  299.692
  301.38
  302.212
  302.621
  302.841
  302.998
  303.108
  303.185
  303.239
  303.274
  303.297
  303.312
  303.321
  303.327
  303.331
  303.334
  303.336
  303.338
  303.339
  303.34
  303.341
  303.342
  303.343
  303.344
  303.346
  303.347
  303.349
  303.35
  303.352
  303.354
  303.357
  303.361
  303.366
  303.376
  303.384
  303.389
  303.391
  303.424
  304.826
  304.559
  297.736
)
;
  }
  sWall
  {
    type wallHeatTransfer;
    Tinf uniform 315.2;
    alphaWall uniform 0.36;
    value uniform 301.106;
  }
  nWall
  {
    type wallHeatTransfer;
    Tinf uniform 307.2;
    alphaWall uniform 0.36;
    value nonuniform List<scalar> 6
(
  303.969
  303.912
  303.828
  304.012
  303.991
  304.049
)
;
  }
  sideWalls
  {
    type empty;
  }
  glass1
  {
    type wallHeatTransfer;
    Tinf uniform 315.2;
    alphaWall uniform 4.3;
    value nonuniform List<scalar> 9
(
  311.441
  310.804
  310.404
  310.099
  309.845
  309.615
  309.437
  309.505
  309.73
)
;
  }
  glass2
  {
    type wallHeatTransfer;
    Tinf uniform 307.2;
    alphaWall uniform 4.3;
    value nonuniform List<scalar> 2
(
  305.713
  305.824
)
;
  }
  sun
  {
    type wallHeatTransfer;
    Tinf uniform 305.2;
    alphaWall uniform 0.24;
    value nonuniform List<scalar> 14
(
  303.518
  303.268
  303.253
  303.243
  303.233
  303.224
  303.215
  303.205
  303.193
  303.182
  303.173
  303.169
  303.174
  303.189
)
;
  }
  heatsource1
  {
    type fixedGradient;
    gradient uniform 0;
  }
  heatsource2
  {
    type fixedGradient;
    gradient uniform 0;
  }
  Table_master
  {
    type zeroGradient;
  }
  Table_slave
  {
    type zeroGradient;
  }
  inlet
  {
    type fixedValue;
    value uniform 293.15;
  }
  outlet
  {
    type zeroGradient;
  }
} 	// ************************************************************************* //

