/*--------------------------------*- C++ -*----------------------------------*\
  =========                 |
  \\      /  F ield         | OpenFOAM: The Open Source CFD Toolbox
   \\    /   O peration     | Website:  https://openfoam.org
    \\  /    A nd           | Version:  6
     \\/     M anipulation  |
\*---------------------------------------------------------------------------*/
FoamFile
{
    version     2.0;
    format      ascii;
    class       surfaceScalarField;
    location    "1000";
    object      phi;
}
// * * * * * * * * * * * * * * * * * * * * * * * * * * * * * * * * * * * * * //

dimensions      [1 0 -1 0 0 0 0];

internalField   nonuniform List<scalar> 
852
(
-0.00295814
0.00301547
-0.00399793
0.00103979
-0.00479809
0.000800155
-0.00542152
0.00062343
-0.00583479
0.000413273
-0.00600989
0.000175097
-0.00591868
-9.12037e-05
-0.00553914
-0.000379538
-0.00488691
-0.000652234
-0.00402673
-0.000860181
-0.00305831
-0.000968419
-0.00209329
-0.000965014
-0.00123384
-0.000859454
-0.000541992
-0.000691845
-0.00054033
-0.000777624
0.000780596
-0.000523057
-0.000254566
7.12175e-05
-0.000594273
0.000572681
-0.000501462
0.000921385
-0.000348703
0.00114914
-0.000227757
0.00127628
-0.000127139
0.0013379
-6.16172e-05
0.00137208
-3.4179e-05
0.00139319
-2.11065e-05
0.00140524
-1.20553e-05
0.0014098
-4.55149e-06
0.00140553
4.26801e-06
0.00138497
2.05618e-05
0.00132707
5.7894e-05
0.00119646
0.000130614
0.000980861
0.000215601
0.000715356
0.000265506
0.000719332
-0.00211915
0.00528909
-0.00313912
0.00205976
-0.00396795
0.00162899
-0.00458757
0.00124305
-0.00499919
0.000824894
-0.00518376
0.000359666
-0.00510988
-0.000165084
-0.0047597
-0.000729719
-0.00416133
-0.0012506
-0.0033902
-0.00163131
-0.00254433
-0.00181429
-0.00171849
-0.00179085
-0.000993378
-0.00158457
-0.000443234
-0.00124199
-0.000174943
-0.00080862
0.000116721
-0.000291715
0.000116671
0.000252198
0.000537059
0.000657229
-0.000659596
0.000924896
-0.000861939
0.0011496
-0.000726161
0.00132839
-0.000527494
0.00144398
-0.000343352
0.00146466
-0.00014782
0.00146974
-6.66973e-05
0.00147589
-4.03277e-05
0.00148106
-2.62732e-05
0.00148449
-1.5483e-05
0.00148635
-6.40628e-06
0.001486
4.61321e-06
0.00148026
2.63034e-05
0.00144154
9.66158e-05
0.00127551
0.000296644
0.000986649
0.000504464
0.00062413
0.000628026
0.00135359
-0.00148941
0.00701482
-0.00237185
0.00294221
-0.00311235
0.00236949
-0.00364827
0.00177897
-0.00401387
0.00119049
-0.004185
0.000530802
-0.00410756
-0.000242529
-0.00375546
-0.00108181
-0.00318243
-0.00182364
-0.00248176
-0.00233198
-0.00174842
-0.00254762
-0.00105529
-0.00248398
-0.000454505
-0.00218535
1.90427e-05
-0.00171553
0.000330977
-0.00112055
0.000471806
-0.000432543
0.000588477
0.0014929
-0.000946364
0.00171278
-0.000879478
0.00167162
-0.000820773
0.00166095
-0.000715492
0.00168587
-0.000552418
0.00172787
-0.000385346
0.0015802
0.00151366
0.00147349
0.00144737
0.00143204
0.00142579
0.00143055
0.00145701
0.00155378
0.0012842
0.000566227
0.00095355
0.000835111
0.00053603
0.00104555
0.00190495
-0.00104293
0.00836377
-0.00174475
0.00364403
-0.00224258
0.00286732
-0.0026017
0.00213809
-0.00285373
0.00144253
-0.00296217
0.000639242
-0.00283046
-0.000374238
-0.00244121
-0.00147107
-0.00189523
-0.00236962
-0.00129505
-0.00293216
-0.000716326
-0.00312634
-0.00019904
-0.00300127
0.00024084
-0.00262523
0.000603735
-0.00207843
0.000927059
-0.00144388
0.00129205
-0.000797533
0.00213994
-0.000259413
0.00249759
-0.000349279
0.00214682
-0.000595596
0.00201163
-0.000744283
0.00188278
-0.000691931
0.00176715
-0.000599853
0.00169369
-0.000478958
0.00163479
-0.000326448
0.00177557
-0.000140935
0.00186164
-8.62189e-05
0.00193048
-6.8995e-05
0.00198413
-5.37998e-05
0.00200867
-2.46904e-05
0.00198261
2.59073e-05
0.00188061
0.000101848
0.00166927
0.000211189
0.00129354
0.000375574
0.00113495
0.000724816
0.000825111
0.00114495
0.000360514
0.00151014
0.00228546
-0.000728719
0.00945768
-0.00126216
0.00417747
-0.00138452
0.00298968
-0.00147825
0.00223182
-0.00154094
0.00150522
-0.00150373
0.000602028
-0.00123165
-0.000646321
-0.000792098
-0.00191062
-0.000316622
-0.00284509
0.000115656
-0.00336443
0.000469959
-0.00348064
0.000741351
-0.00327266
0.000951342
-0.00283522
0.00112968
-0.00225677
0.00131058
-0.00162478
0.00154195
-0.0010289
0.00186737
-0.000584829
0.00197403
-0.000455941
0.00189207
-0.000513641
0.00171602
-0.000568227
0.00155761
-0.000533522
0.001422
-0.000464237
0.0013227
-0.000379661
0.00127563
-0.000279377
0.00131805
-0.000183357
0.00137155
-0.000139716
0.00142932
-0.00012677
0.00148815
-0.000112623
0.00153764
-7.41832e-05
0.00155766
5.88755e-06
0.00152687
0.000132646
0.00143322
0.000304836
0.00127749
0.000531306
0.00113265
0.00086965
0.000970173
0.00130744
0.000618729
0.00186159
0.000525843
0.00237834
-0.000979653
0.00150529
-0.00144575
0.00046589
-0.00139737
-0.000630962
0.0105037
-0.000997364
0.00454388
-0.000603728
0.00259604
-0.000311321
0.00193942
-9.78717e-05
0.00129177
0.000223838
0.000280319
0.000702826
-0.00112531
0.00114064
-0.00234844
0.0014542
-0.00315865
0.00162901
-0.00353924
0.00169028
-0.00354191
0.0016704
-0.00325278
0.00160182
-0.00276665
0.00152216
-0.0021771
0.0014648
-0.00156741
0.0014548
-0.0010189
0.00148542
-0.000615449
0.00145346
-0.000423984
0.00132869
-0.00038887
0.00115018
-0.000389709
0.00098633
-0.000369674
0.000855923
-0.00033383
0.000767103
-0.000290839
0.000730588
-0.000242862
0.000749846
-0.000202614
0.000799825
-0.000189694
0.000866389
-0.000193332
0.000943726
-0.000189959
0.00102597
-0.000156422
0.00110167
-6.98199e-05
0.00115265
8.16711e-05
0.00117345
0.000284035
0.00117292
0.000531837
0.00119532
0.000847254
0.00128695
0.0012158
0.00146442
0.00168412
0.00190519
0.00193757
0.00216748
0.001243
0.00177643
0.000856943
0.000437162
-0.000717245
0.0116806
-0.000603439
0.00443007
0.000471654
0.00152095
0.00114745
0.00126362
0.00171822
0.000721006
0.00236193
-0.000363394
0.00291699
-0.00168037
0.00322427
-0.00265571
0.0032776
-0.00321198
0.00312255
-0.00338419
0.00282302
-0.00324238
0.00244312
-0.00287287
0.00203776
-0.00236129
0.00165535
-0.00179469
0.00132888
-0.00124094
0.00107855
-0.000768578
0.000901429
-0.000438326
0.000750724
-0.000273278
0.000591075
-0.00022922
0.000430271
-0.000228905
0.000291609
-0.000231011
0.000186467
-0.000228688
0.000119336
-0.000223707
9.4677e-05
-0.000218202
0.000110922
-0.000218858
0.000154405
-0.000233177
0.000214507
-0.000253433
0.00028926
-0.000264712
0.000382596
-0.000249757
0.000499501
-0.000186724
0.000628628
-4.74556e-05
0.000758484
0.00015418
0.000898823
0.000391499
0.00108734
0.000658735
0.00137046
0.000932689
0.00181446
0.00124012
0.00248477
0.00126726
0.00302985
0.000697924
0.00304428
0.000842515
0.00354376
0.00260185
0.00959233
0.00327903
0.00375289
0.00344255
0.00135743
0.00389295
0.000813218
0.00458121
3.27463e-05
0.00527338
-0.00105556
0.00555723
-0.00196422
0.00543497
-0.00253345
0.00499355
-0.00277055
0.00433726
-0.00272791
0.00356832
-0.00247344
0.00277329
-0.00207784
0.00201272
-0.00160071
0.00134172
-0.00112368
0.000787658
-0.000686878
0.000372994
-0.000353914
9.66602e-05
-0.000161991
-8.72506e-05
-8.93669e-05
-0.000228289
-8.81811e-05
-0.000347347
-0.000109845
-0.000445516
-0.000132842
-0.000520517
-0.000153686
-0.000571304
-0.000172919
-0.000597344
-0.000192161
-0.000601643
-0.000214559
-0.000592997
-0.000241822
-0.000577483
-0.000268947
-0.000554634
-0.000287559
-0.000516423
-0.000287968
-0.000444311
-0.000258835
-0.000308369
-0.000183397
-0.000122339
-3.18488e-05
9.62601e-05
0.000172901
0.000367493
0.000387503
0.000701552
0.000598631
0.00113868
0.000802995
0.00161047
0.000795467
0.00180195
0.00050645
0.00106192
0.00158254
0.00486372
0.010156
0.0139017
0.0122275
0.00303164
0.0113244
0.00171628
0.01059
0.000767095
0.00970157
-0.000167083
0.00855623
-0.000818886
0.00726089
-0.0012381
0.00590959
-0.00141925
0.00457116
-0.00138948
0.00330864
-0.00121093
0.00217257
-0.00094177
0.0011742
-0.000602348
0.000355786
-0.000305265
-0.000247499
-8.35924e-05
-0.000623157
2.17453e-05
-0.000826955
4.18075e-05
-0.000943407
2.70853e-05
-0.00102997
-1.61464e-06
-0.00110729
-3.25226e-05
-0.00117806
-6.20743e-05
-0.00124193
-8.98173e-05
-0.0012992
-0.000115646
-0.00135132
-0.000140038
-0.00140219
-0.000163686
-0.00145904
-0.000184974
-0.00152932
-0.000198668
-0.00162041
-0.000196467
-0.00174138
-0.000166995
-0.00190377
-9.64507e-05
-0.00211496
2.77974e-05
-0.00236215
0.000215339
-0.00267049
0.000481247
-0.00312525
0.000842263
-0.00382155
0.00129493
-0.00482434
0.00180578
-0.00624839
0.00221953
-0.0079631
0.00222115
-0.0074586
0.00107805
-0.00230889
0.00510166
0.00455811
0.00409855
0.00271939
0.00450089
0.000364753
0.00454184
-0.000208033
0.00413474
-0.000411783
0.00345126
-0.000554622
0.00260388
-0.000571872
0.00168492
-0.000470518
0.000768441
-0.000294446
-9.14074e-05
-8.19207e-05
-0.000790357
9.66024e-05
-0.00124883
0.000153211
-0.0014975
0.000165072
-0.00161993
0.000144178
-0.0016878
0.000109684
-0.00173591
7.5189e-05
-0.00178096
4.34341e-05
-0.00182968
1.62074e-05
-0.00188548
-6.27631e-06
-0.00194837
-2.69296e-05
-0.00201778
-4.62316e-05
-0.0020948
-6.30208e-05
-0.00218079
-7.76929e-05
-0.00227787
-8.78977e-05
-0.00238721
-8.93219e-05
-0.0025078
-7.5881e-05
-0.00263521
-3.95842e-05
-0.00276096
2.93065e-05
-0.00287321
0.00014004
-0.00296968
0.000311818
-0.00305861
0.000570177
-0.00314676
0.000930413
-0.00323177
0.00137994
-0.00326763
0.00184163
-0.0031961
0.002148
-0.00283765
0.0018627
-0.0015669
-0.000192703
-0.00380096
-0.000439912
0.00505456
0.000857051
0.00142242
0.000824573
0.000397231
0.000554371
6.217e-05
0.000178681
-3.60926e-05
-0.000342437
-3.35028e-05
-0.000931001
1.66925e-05
-0.00148131
7.97909e-05
-0.00191306
0.000137307
-0.00217617
0.000181185
-0.00228085
0.000201287
-0.00231585
0.000188216
-0.00231342
0.000162641
-0.00230294
0.000133698
-0.00230054
0.000107285
-0.00231012
8.4766e-05
-0.00233137
6.46888e-05
-0.00236151
4.63516e-05
-0.00239767
2.9876e-05
-0.00243993
1.53347e-05
-0.00248797
1.81372e-06
-0.00254135
-9.64095e-06
-0.0026
-1.90443e-05
-0.00266242
-2.54751e-05
-0.00272485
-2.689e-05
-0.00278059
-2.01404e-05
-0.00281905
-1.12773e-06
-0.00282862
3.88769e-05
-0.00279674
0.000108158
-0.00270022
0.000215305
-0.00250639
0.000376347
-0.00218792
0.000611945
-0.00172952
0.000921542
-0.00110743
0.00121954
-0.000142288
0.00118286
0.00115723
0.000563183
0.00156987
-0.000605343
-0.00214899
-0.00793743
-0.0107898
-0.00569118
-0.00424585
-0.0038345
-0.00376308
-0.00379303
-0.00382268
-0.00380385
-0.00372323
-0.00358618
-0.00340618
-0.0032069
-0.00302137
-0.00286199
-0.002732
-0.00262878
-0.00254836
-0.00248823
-0.00244658
-0.00242148
-0.00241096
-0.00241394
-0.00242834
-0.00245208
-0.00248216
-0.00251356
-0.00253808
-0.00254347
-0.0025087
-0.00240449
-0.00219299
-0.0018203
-0.00121188
-0.000293763
0.000922402
0.00210179
0.00266132
0.00205206
)
;

boundaryField
{
    floor
    {
        type            calculated;
        value           nonuniform List<scalar> 
29
(
0
0
0
0
0
0
0
0
0
0
0
0
0
0
0
0
0
0
0
0
-3.97544e-06
-1.01243e-05
-1.53312e-05
-1.99916e-05
-1.66164e-06
-2.97217e-06
-8.65993e-06
-9.47669e-06
-8.36515e-06
)
;
    }
    ceiling
    {
        type            calculated;
        value           nonuniform List<scalar> 
43
(
-4.66462e-05
-4.53718e-05
-4.41021e-05
-2.28973e-05
-1.41206e-05
-9.24938e-06
-6.14395e-06
-3.85337e-06
-2.13371e-06
-8.30318e-07
2.54803e-07
1.18954e-06
2.00253e-06
2.6946e-06
3.25866e-06
3.70813e-06
4.06614e-06
4.34784e-06
4.55829e-06
4.70027e-06
4.78099e-06
4.81141e-06
4.80179e-06
4.75862e-06
4.69257e-06
4.60751e-06
4.50565e-06
4.38844e-06
4.25639e-06
4.10818e-06
3.9548e-06
3.8027e-06
3.65741e-06
3.52652e-06
3.42416e-06
3.38032e-06
3.47109e-06
3.65859e-06
3.91919e-06
4.97279e-06
1.02718e-05
7.22614e-06
-5.65297e-05
)
;
    }
    sWall
    {
        type            calculated;
        value           uniform -0.000271654;
    }
    nWall
    {
        type            calculated;
        value           nonuniform List<scalar> 6(-4.85805e-05 -5.80987e-05 -6.23237e-05 -7.48223e-05 -8.20986e-05 -0.000101906);
    }
    sideWalls
    {
        type            empty;
        value           nonuniform 0();
    }
    glass1
    {
        type            calculated;
        value           nonuniform List<scalar> 9(-5.73236e-05 -0.000154465 -0.000236326 -0.00030602 -0.000365191 -0.000415062 -0.00045964 -0.00051358 -0.000573949);
    }
    glass2
    {
        type            calculated;
        value           nonuniform List<scalar> 2(-0.000258035 -0.000285993);
    }
    sun
    {
        type            calculated;
        value           uniform 0;
    }
    heatsource1
    {
        type            calculated;
        value           nonuniform List<scalar> 3(2.04191e-07 2.04135e-07 2.04152e-07);
    }
    heatsource2
    {
        type            calculated;
        value           nonuniform List<scalar> 4(5.11923e-08 5.12773e-08 0 0);
    }
    Table_master
    {
        type            calculated;
        value           nonuniform List<scalar> 9(-1.5314e-07 -1.53231e-07 -1.53263e-07 -1.53285e-07 -1.533e-07 -1.53311e-07 -1.53316e-07 -1.53311e-07 -1.53282e-07);
    }
    Table_slave
    {
        type            calculated;
        value           nonuniform List<scalar> 9(1.53017e-07 1.53036e-07 1.53015e-07 1.52998e-07 1.52991e-07 1.52994e-07 1.53009e-07 1.53051e-07 1.53132e-07);
    }
    inlet
    {
        type            calculated;
        value           uniform -0.00662813;
    }
    outlet
    {
        type            calculated;
        value           nonuniform List<scalar> 2(0.00825573 0.00289778);
    }
}


// ************************************************************************* //
