// -*- C++ -*-
// File generated by PyFoam - sorry for the ugliness

FoamFile
{
 version 2.0;
 format ascii;
 class volScalarField;
 location "1000";
 object T;
}

dimensions [ 0 0 0 1 0 0 0 ];

internalField nonuniform List<scalar> 459
(
  303.388
  303.125
  303.112
  303.108
  303.104
  303.1
  303.096
  303.09
  303.081
  303.069
  303.057
  303.047
  303.04
  303.039
  303.046
  303.133
  303.113
  303.105
  303.108
  303.111
  303.115
  303.119
  303.123
  303.127
  303.131
  303.135
  303.139
  303.143
  303.146
  303.15
  303.154
  303.158
  303.164
  303.183
  303.567
  303.167
  303.144
  303.147
  303.15
  303.15
  303.148
  303.141
  303.124
  303.099
  303.072
  303.048
  303.032
  303.025
  303.024
  303.022
  303.019
  303.136
  303.098
  303.091
  303.093
  303.098
  303.102
  303.104
  303.106
  303.107
  303.108
  303.11
  303.111
  303.112
  303.113
  303.116
  303.12
  303.126
  303.135
  303.167
  303.753
  303.217
  303.18
  303.192
  303.206
  303.218
  303.222
  303.215
  303.188
  303.144
  303.095
  303.055
  303.03
  303.02
  303.019
  303.02
  303.02
  303.086
  303.08
  303.083
  303.091
  303.101
  303.109
  303.109
  303.109
  303.109
  303.109
  303.109
  303.109
  303.109
  303.109
  303.11
  303.113
  303.117
  303.125
  303.159
  303.942
  303.279
  303.217
  303.236
  303.266
  303.295
  303.314
  303.308
  303.266
  303.195
  303.119
  303.06
  303.026
  303.014
  303.015
  303.021
  303.025
  303.035
  303.048
  303.065
  303.084
  303.103
  303.119
  303.132
  303.143
  303.152
  303.16
  303.167
  303.173
  303.178
  303.181
  303.184
  303.185
  303.162
  303.143
  303.133
  303.159
  304.125
  303.357
  303.256
  303.272
  303.315
  303.363
  303.404
  303.399
  303.334
  303.233
  303.13
  303.057
  303.018
  303.006
  303.012
  303.024
  303.037
  303.053
  303.071
  303.093
  303.116
  303.138
  303.157
  303.172
  303.187
  303.198
  303.207
  303.215
  303.22
  303.222
  303.221
  303.217
  303.21
  303.192
  303.167
  303.147
  303.156
  303.23
  303.276
  303.283
  304.291
  303.457
  303.321
  303.313
  303.354
  303.415
  303.478
  303.455
  303.363
  303.239
  303.123
  303.041
  303
  302.994
  303.01
  303.034
  303.058
  303.083
  303.109
  303.135
  303.16
  303.183
  303.202
  303.218
  303.231
  303.241
  303.249
  303.255
  303.258
  303.257
  303.252
  303.244
  303.233
  303.215
  303.19
  303.165
  303.16
  303.19
  303.207
  303.243
  304.439
  303.618
  303.474
  303.439
  303.457
  303.513
  303.54
  303.475
  303.344
  303.196
  303.071
  302.994
  302.968
  302.98
  303.015
  303.056
  303.095
  303.13
  303.161
  303.189
  303.213
  303.234
  303.25
  303.263
  303.274
  303.282
  303.287
  303.29
  303.291
  303.287
  303.279
  303.267
  303.253
  303.235
  303.212
  303.188
  303.175
  303.183
  303.194
  303.223
  304.657
  304.041
  303.878
  303.775
  303.727
  303.708
  303.609
  303.433
  303.234
  303.064
  302.955
  302.913
  302.929
  302.978
  303.042
  303.104
  303.155
  303.194
  303.224
  303.247
  303.266
  303.282
  303.294
  303.304
  303.31
  303.315
  303.318
  303.318
  303.316
  303.311
  303.303
  303.291
  303.277
  303.261
  303.243
  303.226
  303.22
  303.233
  303.252
  303.379
  304.967
  304.68
  304.414
  304.184
  303.996
  303.771
  303.437
  303.118
  302.891
  302.78
  302.767
  302.824
  302.92
  303.02
  303.116
  303.189
  303.232
  303.26
  303.281
  303.298
  303.312
  303.322
  303.33
  303.336
  303.339
  303.341
  303.341
  303.34
  303.338
  303.335
  303.333
  303.333
  303.335
  303.342
  303.356
  303.38
  303.412
  303.445
  303.467
  303.522
  297.024
  299.145
  300.258
  300.716
  301.161
  301.602
  302.012
  302.36
  302.639
  302.865
  303.059
  303.166
  303.232
  303.272
  303.297
  303.315
  303.328
  303.339
  303.347
  303.354
  303.358
  303.361
  303.363
  303.364
  303.365
  303.365
  303.366
  303.367
  303.368
  303.371
  303.375
  303.384
  303.397
  303.417
  303.441
  303.464
  303.483
  303.504
  297.461
  299.333
  300.274
  300.976
  301.576
  302.108
  302.516
  302.8
  302.998
  303.133
  303.22
  303.273
  303.306
  303.327
  303.342
  303.353
  303.362
  303.368
  303.373
  303.376
  303.378
  303.38
  303.381
  303.383
  303.384
  303.385
  303.386
  303.387
  303.389
  303.391
  303.395
  303.401
  303.41
  303.424
  303.439
  303.458
  303.456
  303.486
  299.531
  299.461
  299.456
  301.235
  302.099
  302.542
  302.792
  302.969
  303.097
  303.186
  303.249
  303.292
  303.321
  303.34
  303.352
  303.361
  303.367
  303.371
  303.375
  303.377
  303.38
  303.382
  303.384
  303.385
  303.387
  303.389
  303.39
  303.392
  303.394
  303.395
  303.397
  303.399
  303.401
  303.405
  303.41
  303.42
  303.43
  303.436
  303.438
  303.477
)
;

boundaryField
{
  floor
  {
    type wallHeatTransfer;
    Tinf uniform 305.2;
    alphaWall uniform 0.24;
    value nonuniform List<scalar> 29
(
  303.267
  303.53
  303.469
  303.434
  303.434
  303.443
  303.457
  303.475
  303.495
  303.516
  303.535
  303.554
  303.573
  303.59
  303.607
  303.624
  303.641
  303.659
  303.674
  303.715
  303.715
  303.618
  303.57
  303.542
  303.267
  303.53
  303.521
  303.34
  303.226
)
;
  }
  ceiling
  {
    type wallHeatTransfer;
    Tinf uniform 303.2;
    alphaWall uniform 0.24;
    value nonuniform List<scalar> 43
(
  299.785
  299.709
  299.698
  301.359
  302.174
  302.59
  302.823
  302.987
  303.106
  303.187
  303.244
  303.282
  303.306
  303.321
  303.33
  303.336
  303.341
  303.344
  303.346
  303.348
  303.35
  303.351
  303.353
  303.355
  303.357
  303.36
  303.362
  303.364
  303.366
  303.369
  303.371
  303.374
  303.378
  303.382
  303.388
  303.398
  303.407
  303.412
  303.413
  303.446
  304.885
  304.621
  297.811
)
;
  }
  sWall
  {
    type wallHeatTransfer;
    Tinf uniform 315.2;
    alphaWall uniform 0.36;
    value uniform 301.11;
  }
  nWall
  {
    type wallHeatTransfer;
    Tinf uniform 307.2;
    alphaWall uniform 0.36;
    value nonuniform List<scalar> 6
(
  304.007
  303.952
  303.869
  304.036
  304.014
  304.073
)
;
  }
  sideWalls
  {
    type empty;
  }
  glass1
  {
    type wallHeatTransfer;
    Tinf uniform 315.2;
    alphaWall uniform 4.3;
    value nonuniform List<scalar> 9
(
  311.496
  310.86
  310.458
  310.152
  309.896
  309.663
  309.482
  309.548
  309.77
)
;
  }
  glass2
  {
    type wallHeatTransfer;
    Tinf uniform 307.2;
    alphaWall uniform 4.3;
    value nonuniform List<scalar> 2
(
  305.734
  305.839
)
;
  }
  sun
  {
    type wallHeatTransfer;
    Tinf uniform 305.2;
    alphaWall uniform 0.24;
    value nonuniform List<scalar> 14
(
  303.581
  303.332
  303.317
  303.307
  303.297
  303.288
  303.279
  303.269
  303.257
  303.246
  303.236
  303.23
  303.232
  303.244
)
;
  }
  heatsource1
  {
    type fixedGradient;
    gradient uniform 0;
  }
  heatsource2
  {
    type fixedGradient;
    gradient uniform 0;
  }
  Table_master
  {
    type zeroGradient;
  }
  Table_slave
  {
    type zeroGradient;
  }
  inlet
  {
    type fixedValue;
    value uniform 293.15;
  }
  outlet
  {
    type zeroGradient;
  }
} 	// ************************************************************************* //

