/*--------------------------------*- C++ -*----------------------------------*\
  =========                 |
  \\      /  F ield         | OpenFOAM: The Open Source CFD Toolbox
   \\    /   O peration     | Website:  https://openfoam.org
    \\  /    A nd           | Version:  6
     \\/     M anipulation  |
\*---------------------------------------------------------------------------*/
FoamFile
{
    version     2.0;
    format      ascii;
    class       surfaceScalarField;
    location    "300";
    object      phi;
}
// * * * * * * * * * * * * * * * * * * * * * * * * * * * * * * * * * * * * * //

dimensions      [1 0 -1 0 0 0 0];

internalField   nonuniform List<scalar> 
852
(
-0.00228756
0.0023467
-0.00234143
5.39317e-05
-0.00234584
4.48011e-06
-0.00241138
6.5625e-05
-0.0024902
7.88988e-05
-0.00255597
6.5861e-05
-0.00259313
3.72594e-05
-0.00258838
-4.65615e-06
-0.00252729
-6.09895e-05
-0.0023931
-0.000134086
-0.00216957
-0.000223426
-0.00184253
-0.00032694
-0.00139374
-0.000448696
-0.000782757
-0.000610883
-0.000781164
-0.00073005
0.000734068
-0.000885461
0.000155376
-0.000894732
9.26763e-06
-0.00082729
-6.74233e-05
-0.00072931
-9.79488e-05
-0.000620862
-0.000108409
-0.000489982
-0.000130837
-0.000365866
-0.000124065
-0.000283469
-8.23387e-05
-0.000248577
-3.48304e-05
-0.00024644
-2.07311e-06
-0.000252605
6.23283e-06
-0.000250402
-2.12351e-06
-0.000229079
-2.12165e-05
-0.000159073
-6.98575e-05
-1.9309e-05
-0.000139561
0.000216772
-0.000235845
0.000379155
-0.000162154
0.000382205
-0.00163746
0.00413414
-0.00206965
0.000486211
-0.00223995
0.000174871
-0.0023569
0.000182681
-0.00245692
0.00017903
-0.00253583
0.000144877
-0.0025862
8.77496e-05
-0.00259946
8.72516e-06
-0.0025664
-9.39314e-05
-0.00247615
-0.00022422
-0.00231466
-0.000384801
-0.00206602
-0.000575469
-0.00171912
-0.000795477
-0.00129819
-0.0010317
-0.000864495
-0.00121476
0.000226053
-0.0010905
0.000226061
-0.000319852
0.00106391
-0.000492517
0.000328004
-0.000587128
0.000103875
-0.000619899
-3.46074e-05
-0.000607158
-0.000110607
-0.000621469
-9.40239e-05
-0.000608686
-0.000143557
-0.000594508
-0.000138154
-0.000590015
-8.67222e-05
-0.00058865
-3.60753e-05
-0.000584049
-6.54419e-06
-0.000574477
-3.18833e-06
-0.000569692
-6.7175e-06
-0.000581115
-9.55074e-06
-0.000584405
-6.62831e-05
-0.000524144
-0.000199517
-0.000538088
-0.000221613
-0.000524694
-0.0001753
-0.00013572
-0.00119168
0.00554541
-0.00176334
0.00105798
-0.00202039
0.000432025
-0.00218128
0.000343694
-0.0022997
0.000297568
-0.00239
0.000235299
-0.00245545
0.000153323
-0.00249424
4.76473e-05
-0.00250267
-8.53709e-05
-0.00247687
-0.00024989
-0.00241118
-0.000450363
-0.00230011
-0.000686411
-0.00214419
-0.000951261
-0.00195709
-0.00121868
-0.0017542
-0.00141751
-0.00141931
-0.00142526
-0.00119314
-0.000412417
0.0014893
-0.000613067
0.000528711
-0.000702494
0.000193426
-0.000747627
1.06951e-05
-0.000741059
-0.000116939
-0.000566811
-0.000268036
-0.000710125
-0.000847978
-0.000934353
-0.000970047
-0.000976165
-0.000978862
-0.00098501
-0.000993935
-0.00105959
-0.000800287
-0.000458376
-0.000650857
-0.000370615
-0.000440254
-0.000385488
-0.000570584
-0.000863956
0.00668509
-0.00147286
0.001667
-0.00174775
0.000707041
-0.00193252
0.000528582
-0.00205529
0.000420475
-0.00214031
0.000320446
-0.00220325
0.000216398
-0.00225184
9.63704e-05
-0.00228953
-4.75453e-05
-0.00232023
-0.000219047
-0.0023498
-0.000420654
-0.00238576
-0.000650309
-0.00244113
-0.000895732
-0.00253487
-0.00112478
-0.00267298
-0.00127923
-0.00282164
-0.00127643
-0.00308075
-0.000933852
-0.00277999
-0.000291543
-0.00186236
0.000571813
-0.00189434
0.000560909
-0.0020212
0.000320551
-0.00214147
0.00013125
-0.00222612
-3.19879e-05
-0.00235821
-0.000135617
-0.00222878
-0.000129222
-0.00208542
-0.000143116
-0.0019253
-0.000159845
-0.00175773
-0.00016726
-0.0015925
-0.000164869
-0.00143793
-0.000154178
-0.00129553
-0.000141982
-0.00114624
-0.000148873
-0.000925618
-0.00022024
-0.000967215
-0.000416318
-0.000783103
-0.000554311
-0.000421681
-0.000746533
-0.000987681
-0.000620956
0.00762945
-0.0012316
0.00227776
-0.00142718
0.000902757
-0.00158956
0.000691112
-0.00171114
0.000542196
-0.00177645
0.000385896
-0.0018099
0.000249986
-0.00183319
0.000119803
-0.00186003
-2.05605e-05
-0.00190158
-0.000177353
-0.00197037
-0.00035171
-0.00207749
-0.000543046
-0.00223193
-0.000741121
-0.00243626
-0.000920285
-0.00267903
-0.00103627
-0.00293422
-0.00102102
-0.00308575
-0.000782091
-0.00304007
-0.000336971
-0.00260719
0.000139204
-0.00231385
0.000267849
-0.00219457
0.000201577
-0.00215342
9.042e-05
-0.00215193
-3.31411e-05
-0.00216098
-0.000126196
-0.00211484
-0.00017498
-0.00204707
-0.000210469
-0.00197048
-0.000235999
-0.00188882
-0.000248459
-0.00180606
-0.000247154
-0.00172383
-0.000235913
-0.00163792
-0.000227399
-0.00153707
-0.000249246
-0.00141544
-0.000341434
-0.00130858
-0.000522776
-0.00108632
-0.000776228
-0.000699597
-0.00113294
-0.00017887
-0.0015081
0.00123769
-0.00141645
0.00170373
-0.000465828
0.0017348
-0.000576316
0.00857095
-0.001104
0.00280558
-0.000979026
0.000777932
-0.00100159
0.000713839
-0.00116265
0.00070342
-0.00124647
0.000469875
-0.0012532
0.000256873
-0.00123366
0.000100424
-0.00122049
-3.35868e-05
-0.00123569
-0.000162001
-0.00129516
-0.00029208
-0.00140922
-0.000428828
-0.00158108
-0.000569105
-0.00180388
-0.000697307
-0.00205845
-0.000781502
-0.00230677
-0.000772485
-0.0024653
-0.000623318
-0.00245256
-0.000349445
-0.0022377
-7.53554e-05
-0.00202014
5.05911e-05
-0.00187439
5.61447e-05
-0.00178975
6.10685e-06
-0.00175432
-6.82257e-05
-0.00174354
-0.000136618
-0.00173108
-0.000187071
-0.00171535
-0.000225812
-0.0016983
-0.000252647
-0.00168113
-0.0002652
-0.00166543
-0.000262421
-0.00165283
-0.000248068
-0.00164441
-0.000235389
-0.00164191
-0.000251329
-0.00165016
-0.000332803
-0.00166145
-0.000511138
-0.00162422
-0.000813148
-0.00148498
-0.00127189
-0.00114462
-0.00184817
-0.000327258
-0.0022335
0.000431278
-0.001224
0.00220433
-0.000777438
0.00975265
-0.00067679
0.00270506
9.06857e-06
9.22332e-05
0.000170516
0.00055257
-0.00010781
0.000981932
-0.000319228
0.000681475
-0.000381171
0.000318995
-0.000372089
9.15158e-05
-0.000349486
-5.6023e-05
-0.000350462
-0.000160862
-0.000395688
-0.000246694
-0.000497958
-0.000326395
-0.000660442
-0.000406453
-0.000873394
-0.000484177
-0.00111289
-0.000541818
-0.00133847
-0.000546689
-0.00149316
-0.000468398
-0.00152376
-0.000318595
-0.00143711
-0.000161719
-0.00131592
-7.02931e-05
-0.00121301
-4.64353e-05
-0.00114442
-6.21517e-05
-0.00111346
-9.88584e-05
-0.00110874
-0.000141015
-0.00111665
-0.000178825
-0.00113173
-0.000210382
-0.00115139
-0.000232619
-0.00117445
-0.000241763
-0.00120171
-0.000234765
-0.00123757
-0.000211807
-0.00129244
-0.000180127
-0.00138517
-0.000158216
-0.00153996
-0.000177644
-0.00176912
-0.000281654
-0.00205932
-0.000522639
-0.00238647
-0.000944463
-0.00269764
-0.00153673
-0.00277111
-0.00215973
-0.00178733
-0.00220739
0.000461219
0.00185776
0.00834987
0.00272412
0.00183882
0.00285726
-4.07403e-05
0.0023031
0.00110691
0.00172369
0.00156153
0.00135405
0.00105131
0.00112377
0.000549469
0.000969576
0.00024589
0.000862313
5.1421e-05
0.000784652
-8.3026e-05
0.000705553
-0.000167422
0.000595636
-0.000216306
0.000442348
-0.00025299
0.000247152
-0.000288801
2.60191e-05
-0.000320494
-0.000185731
-0.000334734
-0.000343412
-0.000310496
-0.000415684
-0.000246085
-0.00040806
-0.000169085
-0.00036293
-0.000115148
-0.000316547
-9.25298e-05
-0.000285373
-9.30309e-05
-0.000275388
-0.000108548
-0.000284694
-0.00013141
-0.000307785
-0.00015543
-0.0003407
-0.000177155
-0.000379871
-0.000193126
-0.000421939
-0.000199362
-0.000464614
-0.000191747
-0.000508836
-0.000167232
-0.000562897
-0.00012571
-0.00064881
-7.19506e-05
-0.000808524
-1.75844e-05
-0.00110254
1.27008e-05
-0.00159214
-3.27358e-05
-0.00233145
-0.000204876
-0.003403
-0.000464963
-0.00477878
-0.000783777
-0.00504112
-0.00194492
-0.00442764
0.00884933
0.0106766
0.00848161
0.0021544
0.0055409
0.00404778
0.00419882
0.00290379
0.00343768
0.00181263
0.00294167
0.00104565
0.0026115
0.000576237
0.00236779
0.00029531
0.00216193
0.000123021
0.00197823
1.64654e-05
0.00180825
-4.61458e-05
0.00163768
-8.22327e-05
0.00145722
-0.000108142
0.00126848
-0.000131559
0.00108508
-0.000151123
0.000931405
-0.000156609
0.00082775
-0.000142201
0.000774927
-0.00011602
0.000753706
-9.36747e-05
0.000743935
-8.24968e-05
0.000733277
-8.21049e-05
0.000715105
-9.0104e-05
0.000687282
-0.000103312
0.000650252
-0.000118124
0.000605225
-0.000131848
0.000554741
-0.000142358
0.00050264
-0.00014697
0.00045382
-0.00014263
0.000413617
-0.000126727
0.000386685
-9.84715e-05
0.000376004
-6.09605e-05
0.000383084
-2.43588e-05
0.00040798
-1.18954e-05
0.000439324
-6.37879e-05
0.00045494
-0.000220213
0.000472549
-0.00048231
0.000556699
-0.000867685
0.000409176
-0.00179717
-0.00385046
-0.00204085
0.00273964
-0.000105091
0.00211225
0.00156611
0.00123279
0.00236616
0.00101277
0.00269631
0.000715684
0.00283719
0.000435543
0.00288768
0.000245024
0.00288465
0.000126249
0.00284512
5.61951e-05
0.00278237
1.68055e-05
0.00270298
-2.63242e-06
0.00260767
-1.26293e-05
0.00249593
-1.96024e-05
0.00237151
-2.64892e-05
0.00224573
-3.06109e-05
0.00213295
-2.91936e-05
0.00204154
-2.43776e-05
0.00196978
-2.16664e-05
0.00191149
-2.39595e-05
0.00186063
-3.10031e-05
0.00181231
-4.15331e-05
0.00176328
-5.40212e-05
0.00171109
-6.56796e-05
0.00165472
-7.52276e-05
0.00159507
-8.24476e-05
0.00153461
-8.62532e-05
0.00147759
-8.53479e-05
0.00143
-7.88722e-05
0.00139913
-6.73312e-05
0.0013926
-5.41728e-05
0.00141673
-4.82235e-05
0.00147215
-6.70481e-05
0.0015471
-0.000138474
0.00162016
-0.000293019
0.00168757
-0.000549473
0.00175307
-0.000932947
0.00155596
-0.00159983
-0.00225804
-0.000506237
0.00322733
0.00123773
0.000368528
0.00198906
0.000481699
0.00259112
0.000410934
0.00306754
0.000239496
0.00337324
0.000130072
0.00354591
7.25774e-05
0.00363104
4.13523e-05
0.00365958
2.78784e-05
0.0036489
2.77084e-05
0.00361049
3.60086e-05
0.00355061
4.74751e-05
0.00347426
5.697e-05
0.00338508
6.29153e-05
0.00328962
6.5078e-05
0.00319688
6.37697e-05
0.00311374
5.89957e-05
0.00304158
5.07183e-05
0.00297811
3.97481e-05
0.00291985
2.74887e-05
0.00286342
1.51234e-05
0.00280621
3.42452e-06
0.00274703
-6.26178e-06
0.00268573
-1.36942e-05
0.00262269
-1.91755e-05
0.00255932
-2.26468e-05
0.00249849
-2.42849e-05
0.00244448
-2.46236e-05
0.00240235
-2.49608e-05
0.00237646
-2.80492e-05
0.00236755
-3.90855e-05
0.00236755
-6.68115e-05
0.00235309
-0.000123788
0.00228444
-0.000224138
0.00211337
-0.000378177
0.00176086
-0.000580219
0.00103919
-0.000877956
-0.0011774
0.00424896
-0.000611289
0.0025882
0.00292917
0.00338125
0.00375997
0.00396449
0.00405694
0.00408949
0.00408875
0.00407288
0.00405566
0.00404608
0.00404783
0.00405941
0.00407763
0.00409898
0.00412015
0.00413771
0.0041481
0.00414855
0.00413765
0.00411522
0.00408185
0.00403951
0.00399045
0.00393661
0.00388002
0.0038225
0.00376534
0.00370856
0.00364935
0.00357973
0.0034829
0.0033295
0.00307598
0.00266847
0.00205879
0.00115211
)
;

boundaryField
{
    floor
    {
        type            calculated;
        value           nonuniform List<scalar> 
29
(
0
0
0
0
0
0
0
0
0
0
0
0
0
0
0
0
0
0
0
0
-2.84377e-06
-6.5131e-06
-4.9674e-06
-4.23654e-06
-1.49759e-06
-4.09328e-06
-1.00606e-05
-1.30131e-05
-9.05701e-06
)
;
    }
    ceiling
    {
        type            calculated;
        value           nonuniform List<scalar> 
43
(
7.38204e-05
5.44017e-05
2.81247e-05
2.78576e-05
2.99146e-05
3.25062e-05
3.52641e-05
3.79121e-05
4.03064e-05
4.2366e-05
4.40167e-05
4.519e-05
4.58418e-05
4.59736e-05
4.56413e-05
4.49342e-05
4.39615e-05
4.28399e-05
4.16797e-05
4.05655e-05
3.95431e-05
3.86237e-05
3.77965e-05
3.70408e-05
3.63151e-05
3.55981e-05
3.48859e-05
3.41737e-05
3.34588e-05
3.27436e-05
3.20379e-05
3.13608e-05
3.07404e-05
3.0212e-05
2.98122e-05
2.95736e-05
2.9524e-05
2.96542e-05
2.89072e-05
3.11481e-05
1.4058e-05
1.16503e-05
1.88199e-05
)
;
    }
    sWall
    {
        type            calculated;
        value           uniform -0.000123258;
    }
    nWall
    {
        type            calculated;
        value           nonuniform List<scalar> 6(-3.06856e-05 -3.75213e-05 -4.35352e-05 -3.62598e-05 -4.12658e-05 -5.62623e-05);
    }
    sideWalls
    {
        type            empty;
        value           nonuniform 0();
    }
    glass1
    {
        type            calculated;
        value           nonuniform List<scalar> 9(-5.90884e-05 -0.000149919 -0.000219518 -0.000275664 -0.000323337 -0.000365114 -0.000404184 -0.000454897 -0.000513439);
    }
    glass2
    {
        type            calculated;
        value           nonuniform List<scalar> 2(-0.000152185 -0.000167795);
    }
    sun
    {
        type            calculated;
        value           uniform 0;
    }
    heatsource1
    {
        type            calculated;
        value           nonuniform List<scalar> 3(2.02308e-07 2.02352e-07 2.02533e-07);
    }
    heatsource2
    {
        type            calculated;
        value           nonuniform List<scalar> 4(5.09331e-08 5.10747e-08 0 0);
    }
    Table_master
    {
        type            calculated;
        value           nonuniform List<scalar> 9(-1.53562e-07 -1.53489e-07 -1.53402e-07 -1.53319e-07 -1.53235e-07 -1.53136e-07 -1.53013e-07 -1.52859e-07 -1.52638e-07);
    }
    Table_slave
    {
        type            calculated;
        value           nonuniform List<scalar> 9(1.52204e-07 1.52236e-07 1.52264e-07 1.52293e-07 1.52317e-07 1.52329e-07 1.52322e-07 1.52293e-07 1.5222e-07);
    }
    inlet
    {
        type            calculated;
        value           uniform 0.00145591;
    }
    outlet
    {
        type            calculated;
        value           nonuniform List<scalar> 2(-0.00419913 0.00480623);
    }
}


// ************************************************************************* //
