/*--------------------------------*- C++ -*----------------------------------*\
  =========                 |
  \\      /  F ield         | OpenFOAM: The Open Source CFD Toolbox
   \\    /   O peration     | Website:  https://openfoam.org
    \\  /    A nd           | Version:  6
     \\/     M anipulation  |
\*---------------------------------------------------------------------------*/
FoamFile
{
    version     2.0;
    format      ascii;
    class       volScalarField;
    location    "1300";
    object      epsilon;
}
// * * * * * * * * * * * * * * * * * * * * * * * * * * * * * * * * * * * * * //

dimensions      [0 2 -3 0 0 0 0];

internalField   nonuniform List<scalar> 
459
(
0.000424293
0.000549338
0.000580765
0.000667697
0.000755566
0.000845129
0.000940726
0.00103901
0.00111231
0.00114203
0.00111206
0.00101632
0.000862869
0.000675812
0.000493366
3.50309e-05
5.96317e-05
8.58319e-05
8.80353e-05
8.06232e-05
7.07611e-05
5.85118e-05
4.75778e-05
3.8895e-05
3.21466e-05
2.68767e-05
2.27174e-05
1.94042e-05
1.6729e-05
1.45007e-05
1.25562e-05
1.07448e-05
9.73772e-06
7.49181e-06
0.00107341
0.00157298
0.000515906
0.000498954
0.000520934
0.000559553
0.00061911
0.000698779
0.000775499
0.000823996
0.000823885
0.000769018
0.000667608
0.000541807
0.000438027
0.000519703
0.000121318
3.99058e-05
9.42599e-05
0.000104787
9.80388e-05
8.53941e-05
7.27785e-05
6.65378e-05
5.3811e-05
4.24785e-05
3.35381e-05
2.6677e-05
2.14342e-05
1.74229e-05
1.43674e-05
1.21262e-05
1.07495e-05
1.01615e-05
2.62992e-05
1.78265e-05
0.00195713
0.00387473
0.000634238
0.00047236
0.000492313
0.000551436
0.000641882
0.000757635
0.00086526
0.000930416
0.00093523
0.000880238
0.000777094
0.000651186
0.000533068
0.000475254
0.000562579
0.000266961
0.000208786
0.000165782
0.000132727
0.000107147
9.16211e-05
0.000168304
0.000116703
8.35243e-05
6.17434e-05
4.70413e-05
3.68334e-05
2.95684e-05
2.43165e-05
2.0533e-05
1.56773e-05
1.31618e-05
4.97849e-05
2.85204e-05
0.00317175
0.00806988
0.00100136
0.000474087
0.000476727
0.000559471
0.000695535
0.000868956
0.00100659
0.0010742
0.00106764
0.000997349
0.000874742
0.000729409
0.000600981
0.000517307
0.000498438
0.000903261
0.000522324
0.000320862
0.000218477
0.000159779
0.00012317
0.000105995
0.00024395
0.000187335
0.000152913
0.000129785
0.000111952
9.6718e-05
8.33992e-05
7.0715e-05
5.76261e-05
3.43875e-05
2.23198e-05
8.26671e-05
3.94722e-05
0.00484539
0.0144425
0.00198215
0.000553358
0.00047804
0.000587103
0.000831133
0.00109406
0.00124247
0.00128743
0.00124848
0.00114387
0.00098797
0.000806326
0.000630377
0.0004861
0.000387458
0.000345861
0.000283844
0.000227575
0.000182315
0.000146857
0.000119469
0.000100546
9.70456e-05
9.0844e-05
8.48549e-05
7.88709e-05
7.23426e-05
6.5112e-05
5.7869e-05
5.09828e-05
4.46573e-05
3.59472e-05
2.76624e-05
5.92046e-05
4.56637e-05
7.45425e-05
0.000130415
0.000184527
0.00717783
0.0215145
0.00448007
0.00103278
0.000670065
0.000776538
0.00127283
0.00154454
0.00162638
0.00160238
0.00150852
0.00135368
0.00114496
0.000906544
0.000674366
0.000483015
0.000351523
0.000277749
0.000233239
0.000197656
0.000165238
0.000137116
0.00011454
9.86756e-05
9.08525e-05
8.78075e-05
8.63233e-05
8.4383e-05
8.0758e-05
7.44886e-05
6.53929e-05
5.58206e-05
4.70443e-05
3.92129e-05
3.40719e-05
4.48855e-05
4.70328e-05
5.74425e-05
0.000241026
0.00021083
0.0099608
0.0257688
0.00936579
0.00342516
0.00218264
0.00214113
0.00236684
0.00235284
0.00222781
0.00206272
0.00186717
0.00162726
0.00133841
0.00102464
0.000727311
0.000490041
0.000334606
0.000250684
0.000206101
0.0001744
0.000146688
0.000123651
0.000106754
9.67764e-05
9.37233e-05
9.54125e-05
9.8937e-05
0.000102559
0.000105041
0.00010465
9.81003e-05
8.68497e-05
7.56203e-05
6.60846e-05
6.21995e-05
6.93904e-05
8.81521e-05
0.000140523
0.000323769
0.00031416
0.0106471
0.0287511
0.0156176
0.00994115
0.00703525
0.00544197
0.0043138
0.003554
0.00303706
0.00265315
0.00231046
0.0019465
0.00154081
0.00112519
0.000746952
0.000462676
0.000293244
0.000209868
0.000169687
0.000143129
0.000122204
0.000107174
9.84665e-05
9.58985e-05
9.87311e-05
0.000105584
0.000115202
0.000127185
0.000141607
0.000158368
0.000176427
0.000188164
0.000197956
0.000219031
0.000262671
0.00039361
0.00072533
0.00136899
0.00399964
0.00117995
0.00989916
0.0168641
0.013535
0.0102223
0.0077964
0.00614098
0.00502177
0.00425632
0.00370478
0.00324018
0.00276437
0.00223045
0.0016451
0.00109442
0.000622592
0.000331697
0.000210114
0.000156341
0.000128273
0.000109847
9.73709e-05
9.03515e-05
8.84722e-05
9.12059e-05
9.79431e-05
0.000108211
0.000122016
0.000140065
0.000163742
0.000195087
0.000236814
0.000292807
0.000369556
0.000484439
0.000653427
0.000882408
0.00114391
0.00137168
0.001547
0.000966334
0.00495671
0.0066626
0.00668268
0.00618504
0.00550367
0.00485238
0.00420954
0.0035115
0.00274358
0.00193016
0.00106186
0.00056324
0.000299937
0.000177469
0.000124647
9.88867e-05
8.4435e-05
7.57408e-05
7.09134e-05
6.94361e-05
7.09326e-05
7.50204e-05
8.1492e-05
9.04135e-05
0.000102216
0.000117756
0.000138401
0.000166214
0.000204424
0.000258002
0.000332245
0.000434207
0.000567187
0.000718552
0.00084775
0.000900937
0.000844823
0.000534353
0.00342778
0.00673331
0.00663803
0.00533739
0.00450748
0.00384176
0.0029993
0.00210103
0.00133651
0.000781749
0.000427558
0.000239163
0.000144675
0.00010038
7.96153e-05
6.90818e-05
6.35641e-05
6.10901e-05
6.08547e-05
6.24315e-05
6.55609e-05
7.02338e-05
7.6617e-05
8.49912e-05
9.58681e-05
0.000110073
0.000128886
0.000154265
0.000188943
0.00023651
0.000301856
0.000389857
0.000500995
0.000626836
0.000720089
0.000815518
0.000760866
0.00056122
0.00217945
0.00254481
0.0028405
0.003145
0.00234145
0.00180665
0.00157787
0.00137391
0.0011098
0.000834945
0.000579463
0.000382884
0.000250916
0.000171137
0.000125694
9.93817e-05
8.33134e-05
7.33001e-05
6.74531e-05
6.48008e-05
6.4697e-05
6.66874e-05
7.05478e-05
7.63174e-05
8.38208e-05
9.33197e-05
0.000105225
0.000120144
0.000139
0.000163315
0.000193907
0.000232266
0.000280654
0.000341945
0.000418943
0.000526485
0.000563515
0.000521659
0.000428938
0.000343061
)
;

boundaryField
{
    floor
    {
        Cmu             0.09;
        kappa           0.41;
        E               9.8;
        type            epsilonWallFunction;
        value           nonuniform List<scalar> 
29
(
0.000493366
3.50309e-05
5.96317e-05
8.58319e-05
8.80353e-05
8.06232e-05
7.07611e-05
5.85118e-05
4.75778e-05
3.8895e-05
3.21466e-05
2.68767e-05
2.27174e-05
1.94042e-05
1.6729e-05
1.45007e-05
1.25562e-05
1.07448e-05
9.73772e-06
7.49181e-06
7.49181e-06
1.78265e-05
2.85204e-05
3.94722e-05
0.000493366
3.50309e-05
3.99058e-05
0.000266961
0.000903261
)
;
    }
    ceiling
    {
        Cmu             0.09;
        kappa           0.41;
        E               9.8;
        type            epsilonWallFunction;
        value           nonuniform List<scalar> 
43
(
0.00217945
0.00254481
0.0028405
0.003145
0.00234145
0.00180665
0.00157787
0.00137391
0.0011098
0.000834945
0.000579463
0.000382884
0.000250916
0.000171137
0.000125694
9.93817e-05
8.33134e-05
7.33001e-05
6.74531e-05
6.48008e-05
6.4697e-05
6.66874e-05
7.05478e-05
7.63174e-05
8.38208e-05
9.33197e-05
0.000105225
0.000120144
0.000139
0.000163315
0.000193907
0.000232266
0.000280654
0.000341945
0.000418943
0.000526485
0.000563515
0.000521659
0.000428938
0.000343061
0.00989916
0.0168641
0.00342778
)
;
    }
    sWall
    {
        Cmu             0.09;
        kappa           0.41;
        E               9.8;
        type            epsilonWallFunction;
        value           uniform 0.00217945;
    }
    nWall
    {
        Cmu             0.09;
        kappa           0.41;
        E               9.8;
        type            epsilonWallFunction;
        value           nonuniform List<scalar> 6(0.000184527 0.00021083 0.00031416 0.000534353 0.00056122 0.000343061);
    }
    sideWalls
    {
        type            empty;
    }
    glass1
    {
        Cmu             0.09;
        kappa           0.41;
        E               9.8;
        type            epsilonWallFunction;
        value           nonuniform List<scalar> 9(0.000424293 0.00107341 0.00195713 0.00317175 0.00484539 0.00717783 0.0099608 0.0106471 0.00989916);
    }
    glass2
    {
        Cmu             0.09;
        kappa           0.41;
        E               9.8;
        type            epsilonWallFunction;
        value           nonuniform List<scalar> 2(0.00117995 0.000966334);
    }
    sun
    {
        Cmu             0.09;
        kappa           0.41;
        E               9.8;
        type            epsilonWallFunction;
        value           nonuniform List<scalar> 
14
(
0.000424293
0.000549338
0.000580765
0.000667697
0.000755566
0.000845129
0.000940726
0.00103901
0.00111231
0.00114203
0.00111206
0.00101632
0.000862869
0.000675812
)
;
    }
    heatsource1
    {
        Cmu             0.09;
        kappa           0.41;
        E               9.8;
        type            epsilonWallFunction;
        value           nonuniform List<scalar> 3(7.45425e-05 0.000130415 0.000184527);
    }
    heatsource2
    {
        Cmu             0.09;
        kappa           0.41;
        E               9.8;
        type            epsilonWallFunction;
        value           nonuniform List<scalar> 4(0.000519703 0.000121318 0.000121318 0.000562579);
    }
    Table_master
    {
        Cmu             0.09;
        kappa           0.41;
        E               9.8;
        type            epsilonWallFunction;
        value           nonuniform List<scalar> 9(0.000168304 0.000116703 8.35243e-05 6.17434e-05 4.70413e-05 3.68334e-05 2.95684e-05 2.43165e-05 2.0533e-05);
    }
    Table_slave
    {
        Cmu             0.09;
        kappa           0.41;
        E               9.8;
        type            epsilonWallFunction;
        value           nonuniform List<scalar> 9(0.00024395 0.000187335 0.000152913 0.000129785 0.000111952 9.6718e-05 8.33992e-05 7.0715e-05 5.76261e-05);
    }
    inlet
    {
        type            turbulentMixingLengthDissipationRateInlet;
        mixingLength    0.01;
        phi             phi;
        k               k;
        value           uniform 0.000101881;
    }
    outlet
    {
        type            zeroGradient;
    }
}


// ************************************************************************* //
