/*--------------------------------*- C++ -*----------------------------------*\
  =========                 |
  \\      /  F ield         | OpenFOAM: The Open Source CFD Toolbox
   \\    /   O peration     | Website:  https://openfoam.org
    \\  /    A nd           | Version:  6
     \\/     M anipulation  |
\*---------------------------------------------------------------------------*/
FoamFile
{
    version     2.0;
    format      ascii;
    class       surfaceScalarField;
    location    "1300";
    object      phi;
}
// * * * * * * * * * * * * * * * * * * * * * * * * * * * * * * * * * * * * * //

dimensions      [1 0 -1 0 0 0 0];

internalField   nonuniform List<scalar> 
852
(
-0.00295888
0.00301619
-0.00399994
0.00104105
-0.00480052
0.000800588
-0.00542368
0.00062316
-0.00583599
0.00041231
-0.00600932
0.00017333
-0.00591545
-9.38725e-05
-0.00553249
-0.00038296
-0.00487666
-0.000655826
-0.00401348
-0.000863186
-0.00304332
-0.000970163
-0.0020782
-0.000965117
-0.00122069
-0.000857508
-0.000533486
-0.000687205
-0.000531823
-0.000778297
0.000781265
-0.000524147
-0.000254149
7.09429e-05
-0.00059509
0.000574693
-0.00050375
0.000926365
-0.000351672
0.00115702
-0.00023065
0.00128575
-0.00012873
0.00134765
-6.19079e-05
0.00138166
-3.40068e-05
0.00140245
-2.0788e-05
0.00141408
-1.16335e-05
0.00141813
-4.05165e-06
0.0014133
4.83136e-06
0.00139204
2.12646e-05
0.00133313
5.89035e-05
0.00120096
0.000132174
0.000983272
0.000217689
0.000716033
0.000267239
0.000720001
-0.00211991
0.00529054
-0.00314081
0.00206195
-0.00397006
0.00162984
-0.00458956
0.00124266
-0.0050004
0.000823143
-0.00518334
0.000356276
-0.00510691
-0.000170305
-0.00475351
-0.000736355
-0.00415197
-0.00125736
-0.00337842
-0.00163674
-0.00253136
-0.00181722
-0.00170561
-0.00179087
-0.000981772
-0.00158134
-0.000433367
-0.00123561
-0.000164086
-0.000801105
0.000121211
-0.000285347
0.000121159
0.000250066
0.000539851
0.000655583
-0.000659666
0.000924787
-0.000864294
0.00115133
-0.000730296
0.00133262
-0.000532955
0.00145071
-0.000348747
0.00147199
-0.00015001
0.00147706
-6.6973e-05
0.00148325
-4.02002e-05
0.00148847
-2.60033e-05
0.00149191
-1.50717e-05
0.00149373
-5.87417e-06
0.00149331
5.2454e-06
0.00148745
2.7128e-05
0.00144834
9.8015e-05
0.00128083
0.000299684
0.000989922
0.000508598
0.000625581
0.00063158
0.0013557
-0.00148992
0.00701676
-0.00237285
0.00294489
-0.00311371
0.0023707
-0.00364965
0.0017786
-0.00401465
0.00118814
-0.0041843
0.000525926
-0.00410425
-0.000250353
-0.00374905
-0.00109156
-0.00317337
-0.00183304
-0.00247104
-0.00233907
-0.0017373
-0.00255096
-0.00104466
-0.00248352
-0.000445044
-0.00218095
2.73654e-05
-0.00170802
0.000338073
-0.00111181
0.000476641
-0.000423915
0.000597801
0.00149184
-0.000942509
0.00171171
-0.000879534
0.00167087
-0.000823456
0.00166085
-0.000720275
0.00168718
-0.000559293
0.00173362
-0.000395187
0.00158377
0.00151695
0.0014769
0.00145105
0.00143613
0.00143041
0.00143581
0.00146309
0.00156126
0.00128954
0.000571402
0.000957087
0.000841053
0.000537631
0.00105104
0.00190866
-0.00104314
0.0083659
-0.00174497
0.00364671
-0.00224294
0.00286867
-0.00260203
0.00213769
-0.00285356
0.00143966
-0.00296044
0.000632808
-0.00282583
-0.000384964
-0.00243378
-0.0014836
-0.00188616
-0.00238066
-0.00128542
-0.00293981
-0.000707179
-0.0031292
-0.000190828
-0.00299987
0.000247903
-0.00261969
0.00060999
-0.0020701
0.000932401
-0.00143422
0.00129638
-0.000787897
0.00214509
-0.000250911
0.00249796
-0.000344509
0.00214785
-0.000592395
0.00201168
-0.000743366
0.00188167
-0.000693446
0.00176479
-0.000603389
0.00168958
-0.000484083
0.00162643
-0.000332036
0.00177015
-0.000143879
0.00185824
-8.82345e-05
0.00192937
-7.12919e-05
0.00198578
-5.6562e-05
0.00201336
-2.77332e-05
0.00198997
2.32454e-05
0.00188947
0.000100344
0.0016778
0.000211515
0.00129943
0.000378217
0.00113996
0.000730876
0.000828367
0.00115264
0.000362081
0.00151732
0.00229073
-0.000728735
0.00945982
-0.00126179
0.00417977
-0.00138394
0.00299082
-0.00147732
0.00223108
-0.00153944
0.00150178
-0.00149982
0.000593184
-0.00122455
-0.00066023
-0.000783279
-0.00192487
-0.000307602
-0.00285634
0.000123772
-0.00337119
0.000476727
-0.00348215
0.000746684
-0.00326983
0.000955713
-0.00282871
0.00113338
-0.00224777
0.00131372
-0.00161457
0.00154467
-0.00101884
0.00186986
-0.000576104
0.00197499
-0.000449641
0.00189224
-0.000509644
0.00171518
-0.000566303
0.00155537
-0.000533639
0.0014181
-0.000466114
0.00131689
-0.000382881
0.00126809
-0.000283233
0.00131099
-0.000186779
0.00136597
-0.00014321
0.00142575
-0.000131079
0.00148711
-0.000117922
0.00153955
-8.01691e-05
0.00156229
5.03014e-07
0.00153305
0.000129581
0.00143944
0.000305125
0.00128242
0.000535242
0.00113616
0.000877136
0.000971802
0.001317
0.000617581
0.00187154
0.00051878
0.00238953
-0.000987437
0.00150601
-0.00145116
0.000463518
-0.00140283
-0.000630844
0.0105057
-0.000996626
0.00454555
-0.000602372
0.00259656
-0.000308807
0.00193751
-9.40243e-05
0.001287
0.000231187
0.000267973
0.000712815
-0.00114186
0.00115036
-0.00236242
0.00146227
-0.00316825
0.00163495
-0.00354386
0.00169439
-0.00354159
0.00167276
-0.00324821
0.00160294
-0.00275889
0.00152253
-0.00216735
0.00146474
-0.00155679
0.00145456
-0.00100866
0.00148506
-0.000606605
0.00145262
-0.000417193
0.00132714
-0.000384164
0.00114769
-0.00038686
0.000982579
-0.000368526
0.000850699
-0.000334235
0.000760458
-0.000292639
0.000723059
-0.000245833
0.000742734
-0.000206454
0.000794242
-0.000194718
0.000862992
-0.000199829
0.00094285
-0.000197779
0.00102757
-0.000164886
0.00110579
-7.77246e-05
0.00115841
7.69638e-05
0.00117877
0.000284762
0.0011764
0.000537619
0.00119679
0.000856746
0.00128632
0.00122747
0.00146132
0.00169654
0.00190075
0.0019501
0.00215985
0.00124691
0.00176994
0.000853425
0.000425151
-0.00071659
0.011682
-0.000602105
0.00443107
0.000474429
0.00152003
0.00115312
0.00125882
0.00172936
0.00071076
0.00237587
-0.000378538
0.00292909
-0.00169507
0.00323367
-0.002667
0.0032839
-0.00321848
0.00312577
-0.00338573
0.00282359
-0.00323941
0.00244153
-0.00286614
0.00203474
-0.00235211
0.00165166
-0.00178427
0.00132499
-0.00123012
0.00107492
-0.000758586
0.000898221
-0.000429905
0.000747664
-0.000266637
0.000587796
-0.000224295
0.000426422
-0.000225485
0.000286924
-0.000229028
0.000180919
-0.00022823
0.000113203
-0.000224923
8.85677e-05
-0.000221197
0.000105772
-0.000223659
0.000150982
-0.000239928
0.000213237
-0.000262084
0.000290283
-0.000274825
0.000385786
-0.000260389
0.000504293
-0.000196231
0.000634505
-5.32479e-05
0.000764149
0.000155117
0.000902402
0.000399366
0.00108878
0.00067037
0.00137045
0.000945798
0.0018133
0.0012537
0.00248268
0.00128072
0.00302611
0.000703476
0.00304642
0.000833118
0.00353412
0.00260348
0.00959206
0.00328148
0.00375306
0.00344679
0.00135473
0.00390067
0.000804931
0.00459334
1.80905e-05
0.00528586
-0.00107106
0.00556717
-0.00197638
0.00544094
-0.00254078
0.00499538
-0.00277291
0.00433545
-0.0027258
0.00356365
-0.00246762
0.00276643
-0.00206892
0.00200472
-0.0015904
0.0013336
-0.00111314
0.000779937
-0.000676464
0.000366441
-0.00034509
9.1386e-05
-0.000154849
-9.16308e-05
-8.36198e-05
-0.000232232
-8.36935e-05
-0.000351169
-0.000106549
-0.000449313
-0.000130884
-0.000524176
-0.000153367
-0.000574577
-0.000174522
-0.00059991
-0.000195864
-0.000603176
-0.000220392
-0.000593384
-0.00024972
-0.000576861
-0.000278607
-0.000553303
-0.000298383
-0.000514681
-0.000299011
-0.000442194
-0.000268718
-0.000304952
-0.00019049
-0.000116677
-3.31571e-05
0.000103459
0.00017923
0.000375794
0.000398034
0.000711929
0.000609664
0.00115263
0.000812997
0.00162948
0.000803866
0.0018227
0.000510256
0.00107399
0.00158183
0.00486627
0.0101557
0.0139016
0.0122308
0.0030255
0.0113328
0.00170292
0.0105988
0.000752065
0.00970611
-0.000178321
0.00855648
-0.000826751
0.00725706
-0.00124136
0.00590213
-0.00141798
0.00456094
-0.00138461
0.00329678
-0.00120345
0.00215943
-0.000931572
0.00116124
-0.000592215
0.000343939
-0.000295841
-0.000257372
-7.5152e-05
-0.000630525
2.80623e-05
-0.00083227
4.68962e-05
-0.000947159
3.12696e-05
-0.00103247
1.61793e-06
-0.00110877
-3.02492e-05
-0.00117872
-6.09341e-05
-0.00124191
-9.0174e-05
-0.00129875
-0.000117681
-0.00135082
-0.000143797
-0.00140217
-0.000169043
-0.00146013
-0.000191757
-0.00153221
-0.000206528
-0.00162571
-0.000204889
-0.00174939
-0.000175329
-0.00191428
-0.000103827
-0.00212731
2.25417e-05
-0.00237381
0.000213338
-0.00267794
0.000483369
-0.0031283
0.000848387
-0.00382234
0.00130371
-0.00482524
0.00181589
-0.00625068
0.00222931
-0.00796781
0.00222739
-0.00746336
0.00107738
-0.002311
0.00510009
0.00455431
0.00409275
0.00271027
0.00449131
0.000353505
0.00453038
-0.000217393
0.00412097
-0.000417345
0.00343443
-0.000554818
0.002585
-0.000568546
0.00166522
-0.000464829
0.000748721
-0.000286954
-0.000109272
-7.358e-05
-0.000803769
0.000102283
-0.00125715
0.000157537
-0.00150131
0.000169008
-0.0016211
0.000147853
-0.00168769
0.000113486
-0.00173508
7.86632e-05
-0.0017797
4.62337e-05
-0.00182806
1.81136e-05
-0.0018838
-5.19527e-06
-0.00194733
-2.66366e-05
-0.00201824
-4.67785e-05
-0.00209756
-6.44728e-05
-0.00218663
-7.997e-05
-0.00228723
-9.116e-05
-0.00240018
-9.35816e-05
-0.00252407
-8.09964e-05
-0.00265412
-4.52808e-05
-0.0027815
2.35584e-05
-0.00289407
0.000135112
-0.0029892
0.000308466
-0.00307552
0.000569691
-0.00316031
0.00093317
-0.00324198
0.00138538
-0.00327473
0.00184864
-0.00320018
0.00215476
-0.0028391
0.0018663
-0.00156811
-0.000193602
-0.00380417
-0.000438255
0.00504918
0.000855498
0.00141651
0.000816484
0.00039252
0.0005401
5.89903e-05
0.0001584
-3.5645e-05
-0.00036621
-3.02084e-05
-0.000954379
1.9623e-05
-0.00150135
8.21444e-05
-0.00192785
0.000139547
-0.0021846
0.000183166
-0.00228502
0.0002027
-0.0023171
0.000189625
-0.00231221
0.000164115
-0.00229967
0.00013531
-0.00229539
0.000109207
-0.00230368
8.69551e-05
-0.00232452
6.70771e-05
-0.00235523
4.88195e-05
-0.00239259
3.21692e-05
-0.00243658
1.73456e-05
-0.00248664
3.28119e-06
-0.00254209
-9.0168e-06
-0.00260276
-1.92969e-05
-0.00266728
-2.6641e-05
-0.00273192
-2.89462e-05
-0.00278994
-2.2972e-05
-0.00283072
-4.50175e-06
-0.00284204
3.48779e-05
-0.0028114
0.000104474
-0.00271548
0.00021254
-0.00252097
0.000375187
-0.00220058
0.000612773
-0.00173933
0.000924134
-0.00111389
0.00122321
-0.000144781
0.00118565
0.00115956
0.000561955
0.00157445
-0.000608487
-0.00214747
-0.0079347
-0.010788
-0.00569472
-0.00425536
-0.0038488
-0.00378064
-0.00381022
-0.00383665
-0.00381496
-0.00373205
-0.00359282
-0.00341091
-0.00321028
-0.00302341
-0.00286262
-0.00273108
-0.00262601
-0.00254347
-0.00248103
-0.002437
-0.00240971
-0.00239727
-0.0023989
-0.00241278
-0.00243688
-0.00246824
-0.00250179
-0.00252926
-0.00253813
-0.00250746
-0.00240705
-0.00219841
-0.00182698
-0.00121782
-0.000297196
0.000922552
0.00210465
0.00266287
0.00205039
)
;

boundaryField
{
    floor
    {
        type            calculated;
        value           nonuniform List<scalar> 
29
(
0
0
0
0
0
0
0
0
0
0
0
0
0
0
0
0
0
0
0
0
-3.96785e-06
-1.01199e-05
-1.5329e-05
-1.99839e-05
-1.66252e-06
-2.96796e-06
-8.6517e-06
-9.47785e-06
-8.36057e-06
)
;
    }
    ceiling
    {
        type            calculated;
        value           nonuniform List<scalar> 
43
(
-4.66479e-05
-4.53739e-05
-4.41042e-05
-2.28482e-05
-1.40393e-05
-9.1626e-06
-6.06557e-06
-3.77914e-06
-2.06876e-06
-7.65732e-07
3.19434e-07
1.25431e-06
2.0669e-06
2.75876e-06
3.32275e-06
3.77302e-06
4.1335e-06
4.42006e-06
4.63767e-06
4.78792e-06
4.87631e-06
4.91259e-06
4.90696e-06
4.86597e-06
4.80011e-06
4.71477e-06
4.61252e-06
4.49499e-06
4.36268e-06
4.21417e-06
4.05862e-06
3.90327e-06
3.75362e-06
3.61758e-06
3.5098e-06
3.46016e-06
3.54809e-06
3.73495e-06
3.997e-06
5.05784e-06
1.02727e-05
7.22723e-06
-5.66176e-05
)
;
    }
    sWall
    {
        type            calculated;
        value           uniform -0.000271735;
    }
    nWall
    {
        type            calculated;
        value           nonuniform List<scalar> 6(-4.8528e-05 -5.80443e-05 -6.2552e-05 -7.4949e-05 -8.22475e-05 -0.000102138);
    }
    sideWalls
    {
        type            empty;
        value           nonuniform 0();
    }
    glass1
    {
        type            calculated;
        value           nonuniform List<scalar> 9(-5.73079e-05 -0.000154439 -0.0002363 -0.000306002 -0.000365181 -0.000415058 -0.000459644 -0.000513588 -0.000573959);
    }
    glass2
    {
        type            calculated;
        value           nonuniform List<scalar> 2(-0.000258156 -0.000286088);
    }
    sun
    {
        type            calculated;
        value           uniform 0;
    }
    heatsource1
    {
        type            calculated;
        value           nonuniform List<scalar> 3(2.04186e-07 2.04129e-07 2.04146e-07);
    }
    heatsource2
    {
        type            calculated;
        value           nonuniform List<scalar> 4(5.11927e-08 5.12764e-08 0 0);
    }
    Table_master
    {
        type            calculated;
        value           nonuniform List<scalar> 9(-1.53136e-07 -1.53228e-07 -1.5326e-07 -1.53282e-07 -1.53297e-07 -1.53307e-07 -1.53312e-07 -1.53307e-07 -1.53277e-07);
    }
    Table_slave
    {
        type            calculated;
        value           nonuniform List<scalar> 9(1.53016e-07 1.53035e-07 1.53013e-07 1.52994e-07 1.52986e-07 1.52989e-07 1.53002e-07 1.53044e-07 1.53125e-07);
    }
    inlet
    {
        type            calculated;
        value           uniform -0.0066289;
    }
    outlet
    {
        type            calculated;
        value           nonuniform List<scalar> 2(0.00825308 0.00289867);
    }
}


// ************************************************************************* //
