/*--------------------------------*- C++ -*----------------------------------*\
  =========                 |
  \\      /  F ield         | OpenFOAM: The Open Source CFD Toolbox
   \\    /   O peration     | Website:  https://openfoam.org
    \\  /    A nd           | Version:  6
     \\/     M anipulation  |
\*---------------------------------------------------------------------------*/
FoamFile
{
    version     2.0;
    format      ascii;
    class       volScalarField;
    location    "1500";
    object      T;
}
// * * * * * * * * * * * * * * * * * * * * * * * * * * * * * * * * * * * * * //

dimensions      [0 0 0 1 0 0 0];

internalField   nonuniform List<scalar> 
459
(
303.389
303.126
303.113
303.109
303.105
303.101
303.097
303.091
303.082
303.07
303.058
303.048
303.041
303.04
303.047
303.135
303.115
303.107
303.11
303.113
303.117
303.121
303.125
303.13
303.134
303.137
303.141
303.145
303.149
303.153
303.157
303.161
303.167
303.186
303.567
303.168
303.145
303.148
303.151
303.151
303.149
303.142
303.125
303.1
303.072
303.049
303.033
303.026
303.025
303.023
303.02
303.138
303.099
303.093
303.095
303.1
303.104
303.106
303.108
303.109
303.111
303.112
303.113
303.114
303.116
303.118
303.122
303.128
303.138
303.17
303.754
303.218
303.181
303.193
303.207
303.218
303.223
303.216
303.189
303.145
303.096
303.056
303.031
303.021
303.02
303.021
303.022
303.088
303.081
303.085
303.093
303.103
303.111
303.111
303.111
303.111
303.111
303.111
303.111
303.112
303.112
303.113
303.116
303.12
303.128
303.163
303.942
303.28
303.218
303.237
303.267
303.296
303.314
303.309
303.266
303.195
303.119
303.061
303.026
303.015
303.016
303.022
303.026
303.037
303.049
303.067
303.086
303.105
303.121
303.135
303.145
303.154
303.163
303.17
303.176
303.18
303.184
303.187
303.188
303.166
303.146
303.136
303.162
304.126
303.358
303.257
303.273
303.316
303.364
303.405
303.399
303.334
303.232
303.129
303.057
303.018
303.007
303.013
303.025
303.039
303.054
303.073
303.095
303.118
303.14
303.159
303.175
303.189
303.201
303.21
303.218
303.223
303.225
303.224
303.22
303.213
303.196
303.17
303.15
303.16
303.234
303.28
303.286
304.291
303.458
303.323
303.315
303.355
303.416
303.479
303.455
303.362
303.238
303.122
303.041
303.001
302.995
303.011
303.035
303.06
303.084
303.11
303.137
303.162
303.185
303.205
303.221
303.234
303.244
303.252
303.258
303.261
303.261
303.256
303.247
303.236
303.218
303.193
303.168
303.163
303.194
303.211
303.246
304.44
303.619
303.476
303.44
303.459
303.516
303.541
303.475
303.343
303.194
303.07
302.994
302.969
302.982
303.016
303.058
303.097
303.132
303.163
303.191
303.216
303.236
303.253
303.266
303.277
303.285
303.291
303.294
303.294
303.291
303.283
303.271
303.256
303.238
303.215
303.191
303.179
303.187
303.197
303.226
304.658
304.042
303.879
303.777
303.729
303.709
303.607
303.431
303.231
303.062
302.954
302.914
302.93
302.979
303.044
303.107
303.157
303.196
303.226
303.25
303.269
303.285
303.297
303.307
303.314
303.319
303.321
303.321
303.319
303.315
303.307
303.295
303.28
303.264
303.247
303.229
303.223
303.236
303.255
303.382
304.968
304.681
304.415
304.184
303.996
303.768
303.432
303.113
302.888
302.778
302.767
302.826
302.923
303.023
303.119
303.192
303.235
303.263
303.284
303.301
303.315
303.326
303.334
303.339
303.343
303.345
303.345
303.344
303.342
303.339
303.337
303.337
303.339
303.345
303.36
303.383
303.416
303.449
303.471
303.525
297.019
299.133
300.241
300.705
301.155
301.601
302.014
302.363
302.643
302.87
303.063
303.17
303.235
303.275
303.3
303.318
303.332
303.342
303.351
303.357
303.362
303.365
303.367
303.368
303.368
303.369
303.37
303.371
303.372
303.374
303.379
303.387
303.401
303.42
303.444
303.468
303.487
303.507
297.446
299.323
300.263
300.972
301.577
302.115
302.522
302.806
303.003
303.137
303.223
303.276
303.309
303.331
303.346
303.357
303.365
303.372
303.376
303.379
303.382
303.384
303.385
303.386
303.388
303.389
303.39
303.391
303.392
303.395
303.398
303.405
303.414
303.427
303.443
303.461
303.46
303.49
301.293
299.545
299.46
301.232
302.101
302.547
302.797
302.974
303.102
303.19
303.253
303.296
303.325
303.343
303.356
303.364
303.37
303.375
303.378
303.381
303.383
303.385
303.387
303.389
303.391
303.392
303.394
303.396
303.397
303.399
303.401
303.403
303.405
303.409
303.414
303.424
303.433
303.439
303.442
303.48
)
;

boundaryField
{
    floor
    {
        type            wallHeatTransfer;
        Tinf            uniform 305.2;
        alphaWall       uniform 0.24;
        value           nonuniform List<scalar> 
29
(
303.269
303.532
303.471
303.435
303.435
303.445
303.458
303.476
303.497
303.517
303.537
303.556
303.574
303.592
303.609
303.625
303.642
303.661
303.676
303.717
303.717
303.621
303.573
303.545
303.269
303.532
303.523
303.342
303.227
)
;
    }
    ceiling
    {
        type            wallHeatTransfer;
        Tinf            uniform 303.2;
        alphaWall       uniform 0.24;
        value           nonuniform List<scalar> 
43
(
301.418
299.784
299.701
301.356
302.176
302.594
302.828
302.992
303.11
303.191
303.248
303.286
303.31
303.324
303.334
303.34
303.344
303.347
303.349
303.351
303.353
303.355
303.357
303.358
303.361
303.363
303.365
303.367
303.369
303.372
303.375
303.377
303.381
303.385
303.391
303.401
303.41
303.415
303.416
303.449
304.886
304.621
297.797
)
;
    }
    sWall
    {
        type            wallHeatTransfer;
        Tinf            uniform 315.2;
        alphaWall       uniform 0.36;
        value           uniform 302.621;
    }
    nWall
    {
        type            wallHeatTransfer;
        Tinf            uniform 307.2;
        alphaWall       uniform 0.36;
        value           nonuniform List<scalar> 6(304.011 303.956 303.875 304.039 304.018 304.077);
    }
    sideWalls
    {
        type            empty;
    }
    glass1
    {
        type            wallHeatTransfer;
        Tinf            uniform 315.2;
        alphaWall       uniform 4.3;
        value           nonuniform List<scalar> 9(311.495 310.859 310.458 310.151 309.896 309.663 309.482 309.548 309.77);
    }
    glass2
    {
        type            wallHeatTransfer;
        Tinf            uniform 307.2;
        alphaWall       uniform 4.3;
        value           nonuniform List<scalar> 2(305.738 305.843);
    }
    sun
    {
        type            wallHeatTransfer;
        Tinf            uniform 305.2;
        alphaWall       uniform 0.24;
        value           nonuniform List<scalar> 
14
(
303.582
303.333
303.318
303.308
303.298
303.289
303.28
303.269
303.258
303.246
303.236
303.231
303.233
303.245
)
;
    }
    heatsource1
    {
        type            fixedGradient;
        gradient        uniform 0;
    }
    heatsource2
    {
        type            fixedGradient;
        gradient        uniform 0;
    }
    Table_master
    {
        type            zeroGradient;
    }
    Table_slave
    {
        type            zeroGradient;
    }
    inlet
    {
        type            fixedValue;
        value           uniform 293.15;
    }
    outlet
    {
        type            zeroGradient;
    }
}


// ************************************************************************* //
