/*--------------------------------*- C++ -*----------------------------------*\
  =========                 |
  \\      /  F ield         | OpenFOAM: The Open Source CFD Toolbox
   \\    /   O peration     | Website:  https://openfoam.org
    \\  /    A nd           | Version:  6
     \\/     M anipulation  |
\*---------------------------------------------------------------------------*/
FoamFile
{
    version     2.0;
    format      ascii;
    class       volScalarField;
    location    "1500";
    object      epsilon;
}
// * * * * * * * * * * * * * * * * * * * * * * * * * * * * * * * * * * * * * //

dimensions      [0 2 -3 0 0 0 0];

internalField   nonuniform List<scalar> 
459
(
0.000427039
0.000553119
0.000585068
0.000672783
0.000761502
0.000852013
0.000948763
0.00104775
0.00112118
0.0011502
0.00111867
0.00102074
0.000864658
0.000674879
0.000490494
3.4574e-05
5.84123e-05
8.40756e-05
8.65227e-05
7.90873e-05
6.92779e-05
5.7088e-05
4.62466e-05
3.76761e-05
3.10438e-05
2.58851e-05
2.18282e-05
1.86021e-05
1.60074e-05
1.38543e-05
1.19831e-05
1.0251e-05
9.33414e-06
7.22914e-06
0.00107834
0.00157809
0.000519807
0.00050325
0.000525861
0.00056537
0.000626131
0.000706844
0.000784002
0.000831993
0.00083049
0.000773788
0.000670416
0.000542814
0.000437604
0.000516961
0.000123274
3.91638e-05
9.19427e-05
0.000102996
9.66308e-05
8.43269e-05
7.19067e-05
6.56773e-05
5.29521e-05
4.16559e-05
3.27778e-05
2.59907e-05
2.08234e-05
1.68773e-05
1.38789e-05
1.16733e-05
1.02919e-05
9.68651e-06
2.58581e-05
1.73515e-05
0.00196432
0.00388127
0.000638434
0.000476873
0.000497796
0.000558316
0.000650536
0.000767848
0.000875921
0.000940336
0.000943494
0.000886531
0.000781136
0.000653074
0.000533867
0.000474944
0.000564218
0.000257997
0.000204334
0.000163333
0.000131358
0.000106309
9.09186e-05
0.000165412
0.000114171
8.1363e-05
5.991e-05
4.5481e-05
3.54949e-05
2.84067e-05
2.32933e-05
1.9611e-05
1.49373e-05
1.25541e-05
4.99432e-05
2.80257e-05
0.00318119
0.00807794
0.00100644
0.000478813
0.00048275
0.000567657
0.000706758
0.000882143
0.00101963
0.00108602
0.00107752
0.00100516
0.000879832
0.000732821
0.000603144
0.000518543
0.000498988
0.000902263
0.000521729
0.000320827
0.000218757
0.000160207
0.000123567
0.000106082
0.000240589
0.000183282
0.000148382
0.000125033
0.000107268
9.23611e-05
7.94062e-05
6.71488e-05
5.45844e-05
3.25541e-05
2.13157e-05
8.4905e-05
3.90211e-05
0.00485717
0.0144526
0.00198989
0.000558662
0.000484747
0.000597503
0.000848168
0.00111155
0.00125812
0.00130102
0.00125987
0.00115281
0.000994307
0.000810489
0.000633092
0.000488091
0.00038919
0.000347486
0.000285275
0.000229076
0.000183897
0.00014837
0.000120678
0.000101203
9.68978e-05
8.99202e-05
8.32946e-05
7.68829e-05
7.01694e-05
6.29433e-05
5.56911e-05
4.87844e-05
4.24717e-05
3.41036e-05
2.65416e-05
5.97684e-05
4.62567e-05
7.48977e-05
0.000130686
0.000185186
0.00719222
0.0215281
0.00449477
0.00104183
0.000679959
0.000794226
0.00129995
0.00156659
0.00164456
0.0016179
0.00152165
0.00136388
0.001152
0.000910858
0.000676973
0.000485016
0.000353527
0.000279849
0.000235353
0.000199843
0.0001674
0.000138957
0.0001157
9.88587e-05
8.99131e-05
8.58028e-05
8.34543e-05
8.09604e-05
7.72039e-05
7.12682e-05
6.26908e-05
5.35145e-05
4.50659e-05
3.76224e-05
3.32393e-05
4.48624e-05
4.8005e-05
5.79116e-05
0.00024167
0.000211868
0.00997522
0.0257854
0.00938908
0.00344884
0.00221205
0.00219082
0.00240141
0.00237804
0.00224813
0.00208022
0.00188199
0.00163859
0.00134588
0.00102878
0.000729434
0.000491702
0.000336619
0.0002531
0.000208646
0.000176835
0.000148712
0.000124863
0.000106786
9.53894e-05
9.08514e-05
9.11563e-05
9.35077e-05
9.62952e-05
9.84905e-05
9.86217e-05
9.37855e-05
8.37077e-05
7.33499e-05
6.47003e-05
6.20039e-05
6.97009e-05
8.68851e-05
0.000131091
0.000319688
0.000308012
0.01066
0.0287422
0.0156244
0.0099571
0.00707186
0.00547067
0.00433735
0.0035752
0.00305734
0.00267236
0.00232715
0.00195881
0.00154836
0.00112876
0.000748123
0.000463846
0.000295168
0.000212303
0.000172017
0.000144881
0.000123041
0.000106781
9.66025e-05
9.2417e-05
9.35931e-05
9.88307e-05
0.00010693
0.000117568
0.000130942
0.000147151
0.000165537
0.00018075
0.000191509
0.000213176
0.000257079
0.000376542
0.00065041
0.00119238
0.00405192
0.00108475
0.00991007
0.0168735
0.0135399
0.0102282
0.00780596
0.00615497
0.00503975
0.00427813
0.00372919
0.00326412
0.00278405
0.00224262
0.001651
0.00109578
0.000620676
0.000331957
0.000211288
0.000157623
0.000129279
0.000110341
9.68329e-05
8.84782e-05
8.50697e-05
8.61801e-05
9.12806e-05
9.99334e-05
0.000112158
0.000128683
0.000150924
0.000180978
0.000221677
0.000276693
0.000352886
0.000463508
0.000627414
0.000853346
0.00112236
0.00137817
0.00157794
0.000871414
0.00494237
0.00664631
0.00669411
0.00620237
0.0055274
0.00488225
0.0042391
0.00353374
0.00275426
0.00192261
0.00105495
0.000560448
0.000299912
0.000179151
0.000126163
9.9882e-05
8.47071e-05
7.51126e-05
6.94006e-05
6.69028e-05
6.72525e-05
7.01633e-05
7.54625e-05
8.32346e-05
9.39037e-05
0.000108298
0.000127727
0.000154159
0.000190609
0.00024204
0.000313901
0.000413906
0.00054931
0.000717317
0.000894919
0.00104057
0.00098164
0.000443942
0.00341474
0.00673236
0.00665458
0.00535737
0.00452661
0.00385005
0.00299722
0.00209451
0.00133107
0.000779068
0.000429349
0.000241972
0.000147752
0.000103317
8.20845e-05
7.09825e-05
6.48024e-05
6.15689e-05
6.0509e-05
6.12354e-05
6.35195e-05
6.72635e-05
7.2588e-05
7.9805e-05
8.93726e-05
0.000102005
0.000118825
0.000141563
0.000172739
0.000215607
0.000274659
0.000354773
0.000457849
0.000576615
0.000691836
0.000841066
0.000464059
0.000474727
0.0021729
0.00253721
0.00283145
0.00313628
0.00234019
0.00181469
0.00159393
0.00138816
0.00112146
0.000842699
0.000586114
0.000389255
0.000257007
0.000176577
0.000130276
0.000102999
8.58719e-05
7.46958e-05
6.76141e-05
6.37075e-05
6.23553e-05
6.30947e-05
6.56424e-05
6.9915e-05
7.60534e-05
8.4124e-05
9.43993e-05
0.000107414
0.000123986
0.000145438
0.000172595
0.000206754
0.000249831
0.000304163
0.000371772
0.000454471
0.000472761
0.000337377
0.000288328
0.000477655
)
;

boundaryField
{
    floor
    {
        Cmu             0.09;
        kappa           0.41;
        E               9.8;
        type            epsilonWallFunction;
        value           nonuniform List<scalar> 
29
(
0.000490494
3.4574e-05
5.84123e-05
8.40756e-05
8.65227e-05
7.90873e-05
6.92779e-05
5.7088e-05
4.62466e-05
3.76761e-05
3.10438e-05
2.58851e-05
2.18282e-05
1.86021e-05
1.60074e-05
1.38543e-05
1.19831e-05
1.0251e-05
9.33414e-06
7.22914e-06
7.22914e-06
1.73515e-05
2.80257e-05
3.90211e-05
0.000490494
3.4574e-05
3.91638e-05
0.000257997
0.000902263
)
;
    }
    ceiling
    {
        Cmu             0.09;
        kappa           0.41;
        E               9.8;
        type            epsilonWallFunction;
        value           nonuniform List<scalar> 
43
(
0.0021729
0.00253721
0.00283145
0.00313628
0.00234019
0.00181469
0.00159393
0.00138816
0.00112146
0.000842699
0.000586114
0.000389255
0.000257007
0.000176577
0.000130276
0.000102999
8.58719e-05
7.46958e-05
6.76141e-05
6.37075e-05
6.23553e-05
6.30947e-05
6.56424e-05
6.9915e-05
7.60534e-05
8.4124e-05
9.43993e-05
0.000107414
0.000123986
0.000145438
0.000172595
0.000206754
0.000249831
0.000304163
0.000371772
0.000454471
0.000472761
0.000337377
0.000288328
0.000477655
0.00991007
0.0168735
0.00341474
)
;
    }
    sWall
    {
        Cmu             0.09;
        kappa           0.41;
        E               9.8;
        type            epsilonWallFunction;
        value           uniform 0.0021729;
    }
    nWall
    {
        Cmu             0.09;
        kappa           0.41;
        E               9.8;
        type            epsilonWallFunction;
        value           nonuniform List<scalar> 6(0.000185186 0.000211868 0.000308012 0.000443942 0.000474727 0.000477655);
    }
    sideWalls
    {
        type            empty;
    }
    glass1
    {
        Cmu             0.09;
        kappa           0.41;
        E               9.8;
        type            epsilonWallFunction;
        value           nonuniform List<scalar> 9(0.000427039 0.00107834 0.00196432 0.00318119 0.00485717 0.00719222 0.00997522 0.01066 0.00991007);
    }
    glass2
    {
        Cmu             0.09;
        kappa           0.41;
        E               9.8;
        type            epsilonWallFunction;
        value           nonuniform List<scalar> 2(0.00108475 0.000871414);
    }
    sun
    {
        Cmu             0.09;
        kappa           0.41;
        E               9.8;
        type            epsilonWallFunction;
        value           nonuniform List<scalar> 
14
(
0.000427039
0.000553119
0.000585068
0.000672783
0.000761502
0.000852013
0.000948763
0.00104775
0.00112118
0.0011502
0.00111867
0.00102074
0.000864658
0.000674879
)
;
    }
    heatsource1
    {
        Cmu             0.09;
        kappa           0.41;
        E               9.8;
        type            epsilonWallFunction;
        value           nonuniform List<scalar> 3(7.48977e-05 0.000130686 0.000185186);
    }
    heatsource2
    {
        Cmu             0.09;
        kappa           0.41;
        E               9.8;
        type            epsilonWallFunction;
        value           nonuniform List<scalar> 4(0.000516961 0.000123274 0.000123274 0.000564218);
    }
    Table_master
    {
        Cmu             0.09;
        kappa           0.41;
        E               9.8;
        type            epsilonWallFunction;
        value           nonuniform List<scalar> 9(0.000165412 0.000114171 8.1363e-05 5.991e-05 4.5481e-05 3.54949e-05 2.84067e-05 2.32933e-05 1.9611e-05);
    }
    Table_slave
    {
        Cmu             0.09;
        kappa           0.41;
        E               9.8;
        type            epsilonWallFunction;
        value           nonuniform List<scalar> 9(0.000240589 0.000183282 0.000148382 0.000125033 0.000107268 9.23611e-05 7.94062e-05 6.71488e-05 5.45844e-05);
    }
    inlet
    {
        type            turbulentMixingLengthDissipationRateInlet;
        mixingLength    0.01;
        phi             phi;
        k               k;
        value           uniform 0.000101881;
    }
    outlet
    {
        type            zeroGradient;
    }
}


// ************************************************************************* //
