/*--------------------------------*- C++ -*----------------------------------*\
  =========                 |
  \\      /  F ield         | OpenFOAM: The Open Source CFD Toolbox
   \\    /   O peration     | Website:  https://openfoam.org
    \\  /    A nd           | Version:  6
     \\/     M anipulation  |
\*---------------------------------------------------------------------------*/
FoamFile
{
    version     2.0;
    format      ascii;
    class       volScalarField;
    location    "500";
    object      alphat;
}
// * * * * * * * * * * * * * * * * * * * * * * * * * * * * * * * * * * * * * //

dimensions      [1 -1 -1 0 0 0 0];

internalField   nonuniform List<scalar> 
459
(
0.000951011
0.000979669
0.000735902
0.000627256
0.000597008
0.000585427
0.000578574
0.000573919
0.000572001
0.000573969
0.000580403
0.000590882
0.000603797
0.000615544
0.000618738
0.000301175
0.000309449
0.000307508
0.000281822
0.000254857
0.00023439
0.000219464
0.000214884
0.000229489
0.000251195
0.000276468
0.000303528
0.000329457
0.000331936
0.000318991
0.000306192
0.000290542
0.000276629
0.000257503
0.00167118
0.00409917
0.00238251
0.00239598
0.00275448
0.00297279
0.00304672
0.00300443
0.00289079
0.00275004
0.00260287
0.00244165
0.00223372
0.00192129
0.00143009
0.000747571
0.000493299
0.000483135
0.000889765
0.00112938
0.00120973
0.00106014
0.000546338
0.000313014
0.000298478
0.000391016
0.000545994
0.00073393
0.00091747
0.0010439
0.00102185
0.000915679
0.000897171
0.000710618
0.000555027
0.000335391
0.00226583
0.00711249
0.00424983
0.00337287
0.00341015
0.0037461
0.00412826
0.00432603
0.00428834
0.00410681
0.00386789
0.00359804
0.00327441
0.00284458
0.00226087
0.00155815
0.000866557
0.000697488
0.00217868
0.00216925
0.00193649
0.00158437
0.00109725
0.000376607
0.000292922
0.000323042
0.000354635
0.000386267
0.000419298
0.000455904
0.000501405
0.000568376
0.00145001
0.00142044
0.00149438
0.000539278
0.00275822
0.009955
0.00700749
0.00527453
0.0043121
0.0040317
0.00438521
0.00497291
0.00530728
0.0053151
0.00515718
0.00493034
0.00463888
0.00422648
0.00360942
0.00272729
0.0016907
0.000971367
0.00285294
0.00299664
0.0024777
0.00189738
0.00138311
0.000982009
0.000709881
0.000716084
0.000724917
0.000733141
0.000742379
0.000755312
0.000775249
0.000807549
0.000862965
0.0022327
0.00224804
0.00234234
0.000806571
0.00302103
0.0119564
0.00961929
0.00783667
0.00610407
0.00480846
0.0044292
0.00499783
0.00583947
0.00625359
0.00635458
0.00635093
0.00632415
0.0062764
0.00617496
0.00597434
0.00565672
0.00532271
0.00534484
0.00506048
0.00469942
0.00438722
0.00416877
0.00404684
0.00399525
0.00400323
0.00394941
0.00385853
0.0037486
0.00362446
0.00348881
0.00334231
0.00318128
0.0029957
0.0025924
0.00211444
0.00163958
0.00100071
0.00102627
0.000963884
0.00315372
0.00898405
0.00939733
0.00913781
0.0080828
0.00656132
0.00502301
0.00472614
0.00575107
0.00661697
0.00700187
0.00720007
0.00735421
0.00749299
0.00759889
0.00763787
0.00757327
0.00740177
0.00718335
0.00694468
0.00671586
0.00650464
0.00633989
0.0062197
0.00612167
0.00601728
0.00588089
0.00572257
0.00554545
0.00535195
0.00514441
0.0049247
0.00469343
0.00444816
0.00418352
0.00391252
0.00365587
0.00345322
0.00333587
0.00121432
0.00417616
0.00522253
0.00599495
0.00665036
0.00701944
0.00672315
0.00576668
0.00469201
0.00519062
0.00639728
0.00700326
0.00735757
0.00766891
0.00797569
0.0082574
0.00847136
0.00858206
0.00858024
0.00849134
0.00835647
0.00820077
0.00803403
0.0078685
0.00771357
0.00756321
0.00740299
0.00722938
0.00703939
0.00683133
0.00660592
0.00636577
0.00611503
0.00585928
0.00560423
0.00535357
0.00510893
0.00487694
0.00472368
0.00490053
0.00142163
0.00531974
0.00609139
0.00848463
0.00741917
0.00711185
0.00674602
0.00589011
0.00500991
0.00498952
0.00586038
0.00656551
0.00702021
0.00743847
0.00786621
0.00829343
0.00868447
0.00899025
0.00917863
0.00925488
0.00924778
0.00918379
0.00907661
0.00894071
0.00878746
0.00862405
0.00845208
0.00826898
0.00806963
0.00785052
0.00761077
0.00735161
0.00707587
0.0067878
0.00649233
0.00619448
0.00590288
0.00564402
0.00549857
0.0057223
0.00160689
0.00659743
0.00876202
0.0203339
0.0118313
0.00837971
0.00751694
0.00665828
0.00606181
0.00600842
0.00626646
0.00660823
0.00698719
0.00738515
0.0077926
0.00820555
0.00860916
0.00897343
0.00926709
0.00947416
0.00959641
0.00964499
0.00962811
0.00956176
0.00945688
0.00932647
0.00917857
0.00901382
0.00882907
0.00862195
0.0083916
0.00813822
0.00786289
0.00756732
0.00725334
0.00692192
0.00657394
0.00621968
0.00590854
0.00569057
0.00166765
0.0285464
0.0197776
0.00935245
0.00826768
0.00787272
0.0073604
0.00722548
0.00741332
0.00776431
0.00813897
0.00847033
0.00874835
0.00898874
0.00920889
0.00941564
0.00960412
0.00976436
0.00988844
0.00997272
0.0100166
0.0100213
0.00998228
0.00991058
0.00980979
0.00968033
0.00952372
0.00934213
0.00913714
0.00890927
0.00865823
0.00838322
0.00808306
0.00775539
0.00739317
0.00697653
0.00645154
0.00557993
0.00177231
0.00886742
0.0142719
0.0105587
0.00848882
0.00743643
0.00709817
0.0072987
0.00784646
0.00848219
0.00902872
0.00941738
0.00965885
0.00979913
0.009885
0.00994833
0.010004
0.0100554
0.0101003
0.0101352
0.0101577
0.0101683
0.0101676
0.010154
0.0101135
0.0100368
0.00993115
0.00980351
0.00965828
0.00949708
0.00931904
0.00912112
0.00889796
0.00864086
0.00833595
0.00795795
0.00743393
0.0063602
0.00211351
0.00133299
0.0017189
0.00491258
0.00464139
0.00410643
0.00360556
0.00320462
0.00289763
0.00267344
0.00252439
0.00244669
0.00242169
0.00242275
0.00242936
0.00243157
0.00242722
0.00241775
0.00240539
0.00239184
0.00237805
0.00236434
0.00235061
0.00233668
0.00232254
0.0023078
0.00229314
0.00227867
0.00226319
0.00224633
0.0022281
0.00220865
0.00218805
0.0021662
0.00214271
0.00211676
0.00208677
0.00204988
0.00199895
0.00189645
0.00163967
)
;

boundaryField
{
    floor
    {
        type            compressible::alphatWallFunction;
        Prt             0.85;
        value           nonuniform List<scalar> 
29
(
8.73402e-05
3.79022e-05
3.92563e-05
3.8942e-05
3.47263e-05
3.02477e-05
2.68053e-05
2.42685e-05
2.34868e-05
2.59756e-05
2.96354e-05
3.38426e-05
3.82895e-05
4.25005e-05
4.28985e-05
4.08014e-05
3.87171e-05
3.61537e-05
3.38592e-05
3.06802e-05
3.06797e-05
4.34594e-05
7.5325e-05
0.0001149
8.73392e-05
3.79017e-05
6.67139e-05
9.89441e-05
0.00013844
)
;
    }
    ceiling
    {
        type            compressible::alphatWallFunction;
        Prt             0.85;
        value           nonuniform List<scalar> 
43
(
0.000189112
0.00024104
0.000637839
0.000605622
0.000541329
0.000480348
0.000430893
0.000392575
0.000364304
0.000345351
0.000335395
0.000332162
0.00033227
0.000333095
0.000333362
0.000332794
0.000331574
0.000329985
0.000328244
0.000326472
0.000324708
0.000322942
0.00032115
0.00031933
0.000317431
0.000315542
0.000313676
0.000311679
0.000309502
0.000307148
0.000304635
0.000301971
0.000299143
0.000296101
0.000292736
0.000288842
0.000284045
0.000277409
0.000264006
0.000230079
0.000834547
0.00108081
0.00109282
)
;
    }
    sWall
    {
        type            compressible::alphatWallFunction;
        Prt             0.85;
        value           uniform 0.000188358;
    }
    nWall
    {
        type            compressible::alphatWallFunction;
        Prt             0.85;
        value           nonuniform List<scalar> 6(0.000137291 0.000172215 0.000200502 0.000247466 0.000292063 0.000229859);
    }
    sideWalls
    {
        type            empty;
    }
    glass1
    {
        type            compressible::alphatWallFunction;
        Prt             0.85;
        value           nonuniform List<scalar> 9(0.000132652 0.000230098 0.000307168 0.000369471 0.000402708 0.000419372 0.000543723 0.000682317 0.00083142);
    }
    glass2
    {
        type            compressible::alphatWallFunction;
        Prt             0.85;
        value           nonuniform List<scalar> 2(0.00022561 0.000233781);
    }
    sun
    {
        type            compressible::alphatWallFunction;
        Prt             0.85;
        value           nonuniform List<scalar> 
14
(
0.000135583
0.000139661
0.000104672
8.86009e-05
8.40667e-05
8.23242e-05
8.12931e-05
8.05943e-05
8.03092e-05
8.06106e-05
8.15842e-05
8.31633e-05
8.51028e-05
8.68621e-05
)
;
    }
    heatsource1
    {
        type            compressible::alphatWallFunction;
        Prt             0.85;
        value           nonuniform List<scalar> 3(0.000142456 0.000146043 0.000137263);
    }
    heatsource2
    {
        type            compressible::alphatWallFunction;
        Prt             0.85;
        value           nonuniform List<scalar> 4(0.000106289 6.83316e-05 6.83307e-05 0.000123471);
    }
    Table_master
    {
        type            compressible::alphatWallFunction;
        Prt             0.85;
        value           nonuniform List<scalar> 9(5.00957e-05 3.66142e-05 4.15268e-05 4.66144e-05 5.1649e-05 5.68491e-05 6.25507e-05 6.95571e-05 7.97265e-05);
    }
    Table_slave
    {
        type            compressible::alphatWallFunction;
        Prt             0.85;
        value           nonuniform List<scalar> 9(0.00010077 0.000101679 0.000102971 0.000104172 0.000105519 0.000107401 0.000110296 0.000114968 0.000122934);
    }
    inlet
    {
        type            fixedValue;
        value           uniform 1.94e-05;
    }
    outlet
    {
        type            zeroGradient;
    }
}


// ************************************************************************* //
