/*--------------------------------*- C++ -*----------------------------------*\
  =========                 |
  \\      /  F ield         | OpenFOAM: The Open Source CFD Toolbox
   \\    /   O peration     | Website:  https://openfoam.org
    \\  /    A nd           | Version:  6
     \\/     M anipulation  |
\*---------------------------------------------------------------------------*/
FoamFile
{
    version     2.0;
    format      ascii;
    class       volScalarField;
    location    "500";
    object      epsilon;
}
// * * * * * * * * * * * * * * * * * * * * * * * * * * * * * * * * * * * * * //

dimensions      [0 2 -3 0 0 0 0];

internalField   nonuniform List<scalar> 
459
(
0.000199972
0.000218353
9.25638e-05
5.72164e-05
4.93012e-05
4.64795e-05
4.48667e-05
4.37986e-05
4.3372e-05
4.3836e-05
4.5344e-05
4.78631e-05
5.10889e-05
5.41457e-05
5.50014e-05
6.20268e-06
6.73129e-06
6.60752e-06
5.08474e-06
3.76076e-06
2.92629e-06
2.40253e-06
2.25547e-06
2.74663e-06
3.60141e-06
4.80059e-06
6.35145e-06
8.1208e-06
8.3034e-06
7.36722e-06
6.5139e-06
5.56394e-06
4.80101e-06
3.87161e-06
0.00108814
0.00196579
0.000305248
8.51587e-05
4.7386e-05
3.74769e-05
3.43225e-05
3.38465e-05
3.50063e-05
3.75641e-05
4.15522e-05
4.70895e-05
5.42491e-05
6.28649e-05
7.3335e-05
9.71305e-05
2.7814e-05
2.57444e-05
2.44609e-05
1.93157e-05
1.47156e-05
1.07255e-05
5.76615e-06
5.19983e-06
3.48501e-06
4.61354e-06
6.97221e-06
1.04628e-05
1.44587e-05
1.71339e-05
1.6814e-05
1.48144e-05
1.28962e-05
1.17901e-05
1.24174e-05
8.58701e-06
0.00271805
0.0058574
0.00107781
0.000265096
0.000111523
6.75239e-05
5.11609e-05
4.53724e-05
4.47217e-05
4.71347e-05
5.19656e-05
5.91118e-05
6.85633e-05
8.01524e-05
9.38397e-05
0.00011231
0.000151363
7.80485e-05
6.03525e-05
4.73761e-05
4.07914e-05
3.4749e-05
3.05721e-05
1.21846e-05
5.73865e-06
7.704e-06
1.0201e-05
1.31921e-05
1.68882e-05
2.17279e-05
2.89318e-05
4.22037e-05
3.56366e-05
3.74254e-05
6.30564e-05
3.62149e-05
0.00491436
0.0108112
0.00275798
0.000844621
0.000333909
0.000163814
9.68997e-05
7.03829e-05
6.19461e-05
6.17289e-05
6.59279e-05
7.33481e-05
8.34568e-05
9.57458e-05
0.000109843
0.000126563
0.000153158
0.000213139
7.50929e-05
6.49182e-05
6.05542e-05
5.99131e-05
6.24481e-05
6.90085e-05
8.36625e-05
8.58972e-05
8.91335e-05
9.22139e-05
9.57517e-05
0.000100846
0.000109038
0.000123221
0.000150308
9.02269e-05
0.000119245
0.000211047
0.000122781
0.00649776
0.0160095
0.00556113
0.0025087
0.00115936
0.000489948
0.000231121
0.000128732
9.31405e-05
8.47619e-05
8.65704e-05
9.34807e-05
0.000103445
0.000114609
0.000124272
0.000128345
0.000122817
0.000107203
8.62114e-05
7.69403e-05
7.19107e-05
7.01089e-05
7.01515e-05
7.14039e-05
7.32302e-05
7.46335e-05
7.63028e-05
7.78256e-05
7.94997e-05
8.17491e-05
8.5038e-05
8.98543e-05
9.65525e-05
0.00010477
0.000122492
0.000152955
0.000206269
0.000235636
0.00025422
0.000210771
0.00741779
0.0148541
0.0104079
0.00692489
0.00411395
0.0020362
0.000683384
0.000293267
0.000155086
0.00012227
0.00011898
0.000126066
0.000138494
0.000153764
0.000169172
0.000180252
0.000182054
0.000173083
0.000159652
0.000148349
0.000139657
0.000133546
0.000130567
0.000129824
0.000130645
0.000132298
0.000133521
0.000134431
0.000135236
0.000136336
0.000138247
0.000141608
0.00014727
0.000156502
0.000171801
0.00019732
0.000241988
0.000328559
0.00052756
0.000421803
0.0173637
0.0131879
0.0105296
0.0084087
0.00648227
0.00435994
0.00235677
0.000903841
0.000297398
0.000186678
0.000174344
0.000184177
0.000202165
0.000224801
0.000249523
0.000273185
0.000290145
0.000295433
0.000291835
0.000284021
0.000274745
0.000265664
0.000258406
0.000254186
0.000252289
0.00025114
0.000250277
0.000249207
0.000247939
0.000246861
0.000246599
0.000247956
0.000251855
0.000259301
0.000271854
0.000294102
0.000342166
0.000473679
0.000913359
0.000677382
0.0369352
0.0500526
0.0366903
0.0177961
0.00971172
0.00546363
0.00276346
0.00122219
0.000541814
0.000329133
0.000295989
0.000311123
0.000338804
0.000371573
0.000408636
0.000446335
0.000477907
0.000499353
0.00051001
0.000511989
0.00050754
0.000499741
0.000491063
0.000483443
0.000477454
0.000472502
0.000467686
0.00046251
0.00045702
0.000451672
0.000447213
0.000444639
0.000445056
0.000449356
0.000458028
0.00047277
0.000505126
0.000621104
0.00126265
0.000978979
0.0707861
0.166024
0.195736
0.0447992
0.0113969
0.00493881
0.00238381
0.0012168
0.000760177
0.000635952
0.000642614
0.000687726
0.000735469
0.000777358
0.000815411
0.000852459
0.000887611
0.000916553
0.000935529
0.000943885
0.000943843
0.000939108
0.000931462
0.000923303
0.000915096
0.000905838
0.000894719
0.000882128
0.000868913
0.000856027
0.000844523
0.000835637
0.00083076
0.000831108
0.000837098
0.000848389
0.000869711
0.000944901
0.00133173
0.00109601
0.387928
0.187336
0.0242861
0.00649885
0.00310476
0.00207197
0.00175376
0.00174086
0.00185184
0.00197263
0.00205208
0.0020844
0.00208437
0.00206975
0.00205291
0.00203882
0.0020274
0.00201665
0.0020043
0.00198791
0.00196896
0.00195383
0.00193863
0.00191904
0.001893
0.00186269
0.00183098
0.00180023
0.0017723
0.00174873
0.00173101
0.00172036
0.00171692
0.00171789
0.00171707
0.00171143
0.00167705
0.00131803
0.176596
0.0755642
0.0236436
0.00986685
0.00574898
0.00443903
0.00416899
0.00439561
0.00480782
0.00516343
0.00534904
0.00536906
0.00528335
0.0051533
0.00501897
0.00489814
0.00479483
0.00470689
0.00463051
0.0045636
0.00450622
0.00445477
0.00440988
0.00436353
0.00430833
0.00424669
0.00418379
0.00412429
0.00407148
0.0040275
0.00399357
0.00396966
0.00395308
0.00393764
0.00391906
0.00389673
0.00352553
0.00223628
0.000589152
0.00126572
0.0297647
0.0250822
0.0173339
0.0117053
0.00819945
0.00604754
0.00473835
0.00397938
0.00361357
0.00349518
0.00349171
0.00351281
0.00351534
0.00348993
0.00344317
0.00338499
0.00332293
0.00326097
0.00320038
0.00314076
0.00308134
0.00302202
0.00296136
0.00290196
0.00284419
0.00278357
0.00271888
0.00265045
0.00257899
0.00250498
0.00242826
0.00234782
0.00226131
0.00216434
0.00204935
0.001898
0.00161827
0.00104369
)
;

boundaryField
{
    floor
    {
        Cmu             0.09;
        kappa           0.41;
        E               9.8;
        type            epsilonWallFunction;
        value           nonuniform List<scalar> 
29
(
5.50014e-05
6.20268e-06
6.73129e-06
6.60752e-06
5.08474e-06
3.76076e-06
2.92629e-06
2.40253e-06
2.25547e-06
2.74663e-06
3.60141e-06
4.80059e-06
6.35145e-06
8.1208e-06
8.3034e-06
7.36722e-06
6.5139e-06
5.56394e-06
4.80101e-06
3.87161e-06
3.87161e-06
8.58701e-06
3.62149e-05
0.000122781
5.50014e-05
6.20268e-06
2.57444e-05
7.80485e-05
0.000213139
)
;
    }
    ceiling
    {
        Cmu             0.09;
        kappa           0.41;
        E               9.8;
        type            epsilonWallFunction;
        value           nonuniform List<scalar> 
43
(
0.000589152
0.00126572
0.0297647
0.0250822
0.0173339
0.0117053
0.00819945
0.00604754
0.00473835
0.00397938
0.00361357
0.00349518
0.00349171
0.00351281
0.00351534
0.00348993
0.00344317
0.00338499
0.00332293
0.00326097
0.00320038
0.00314076
0.00308134
0.00302202
0.00296136
0.00290196
0.00284419
0.00278357
0.00271888
0.00265045
0.00257899
0.00250498
0.00242826
0.00234782
0.00226131
0.00216434
0.00204935
0.001898
0.00161827
0.00104369
0.0707861
0.166024
0.176596
)
;
    }
    sWall
    {
        Cmu             0.09;
        kappa           0.41;
        E               9.8;
        type            epsilonWallFunction;
        value           uniform 0.000589152;
    }
    nWall
    {
        Cmu             0.09;
        kappa           0.41;
        E               9.8;
        type            epsilonWallFunction;
        value           nonuniform List<scalar> 6(0.000210771 0.000421803 0.000677382 0.00131803 0.00223628 0.00104369);
    }
    sideWalls
    {
        type            empty;
    }
    glass1
    {
        Cmu             0.09;
        kappa           0.41;
        E               9.8;
        type            epsilonWallFunction;
        value           nonuniform List<scalar> 9(0.000199972 0.00108814 0.00271805 0.00491436 0.00649776 0.00741779 0.0173637 0.0369352 0.0707861);
    }
    glass2
    {
        Cmu             0.09;
        kappa           0.41;
        E               9.8;
        type            epsilonWallFunction;
        value           nonuniform List<scalar> 2(0.000978979 0.00109601);
    }
    sun
    {
        Cmu             0.09;
        kappa           0.41;
        E               9.8;
        type            epsilonWallFunction;
        value           nonuniform List<scalar> 
14
(
0.000199972
0.000218353
9.25638e-05
5.72164e-05
4.93012e-05
4.64795e-05
4.48667e-05
4.37986e-05
4.3372e-05
4.3836e-05
4.5344e-05
4.78631e-05
5.10889e-05
5.41457e-05
)
;
    }
    heatsource1
    {
        Cmu             0.09;
        kappa           0.41;
        E               9.8;
        type            epsilonWallFunction;
        value           nonuniform List<scalar> 3(0.000235636 0.00025422 0.000210771);
    }
    heatsource2
    {
        Cmu             0.09;
        kappa           0.41;
        E               9.8;
        type            epsilonWallFunction;
        value           nonuniform List<scalar> 4(9.71305e-05 2.7814e-05 2.7814e-05 0.000151363);
    }
    Table_master
    {
        Cmu             0.09;
        kappa           0.41;
        E               9.8;
        type            epsilonWallFunction;
        value           nonuniform List<scalar> 9(1.21846e-05 5.73865e-06 7.704e-06 1.0201e-05 1.31921e-05 1.68882e-05 2.17279e-05 2.89318e-05 4.22037e-05);
    }
    Table_slave
    {
        Cmu             0.09;
        kappa           0.41;
        E               9.8;
        type            epsilonWallFunction;
        value           nonuniform List<scalar> 9(8.36625e-05 8.58972e-05 8.91335e-05 9.22139e-05 9.57517e-05 0.000100846 0.000109038 0.000123221 0.000150308);
    }
    inlet
    {
        type            turbulentMixingLengthDissipationRateInlet;
        mixingLength    0.01;
        phi             phi;
        k               k;
        value           uniform 0.387928;
    }
    outlet
    {
        type            zeroGradient;
    }
}


// ************************************************************************* //
