/*--------------------------------*- C++ -*----------------------------------*\
  =========                 |
  \\      /  F ield         | OpenFOAM: The Open Source CFD Toolbox
   \\    /   O peration     | Website:  https://openfoam.org
    \\  /    A nd           | Version:  6
     \\/     M anipulation  |
\*---------------------------------------------------------------------------*/
FoamFile
{
    version     2.0;
    format      ascii;
    class       volScalarField;
    location    "600";
    object      alphat;
}
// * * * * * * * * * * * * * * * * * * * * * * * * * * * * * * * * * * * * * //

dimensions      [1 -1 -1 0 0 0 0];

internalField   nonuniform List<scalar> 
459
(
0.00130493
0.00143094
0.00146477
0.00153765
0.00160638
0.00167312
0.00174259
0.00179777
0.00182907
0.00182854
0.00179089
0.00171217
0.00158439
0.0013609
0.00106499
0.000573537
0.000678291
0.000778226
0.00081422
0.000804423
0.000777423
0.000727862
0.000675629
0.000628337
0.000586896
0.000550689
0.000518962
0.000490902
0.000466085
0.000443529
0.000422091
0.000400257
0.000383531
0.000349028
0.0017525
0.00431533
0.00414928
0.0048225
0.00549548
0.00613832
0.00661632
0.00704902
0.00742536
0.00770494
0.00785368
0.00784391
0.007632
0.00708665
0.00561746
0.00135364
0.000966772
0.000574781
0.00135941
0.00200589
0.00252959
0.00285648
0.00285265
0.00210486
0.00176173
0.00153052
0.00135959
0.00122775
0.0011229
0.00103836
0.000959809
0.000881377
0.000809191
0.000747796
0.00086682
0.000439771
0.00211997
0.00584271
0.00510192
0.00618796
0.00670287
0.00708723
0.00738646
0.0077102
0.00806944
0.00843524
0.00876084
0.00900248
0.00907986
0.00887353
0.00811067
0.00589635
0.00139357
0.000970787
0.00159701
0.00229346
0.00302133
0.00356887
0.00349264
0.00102326
0.000892847
0.000787914
0.000703768
0.000635825
0.000580431
0.000534861
0.000497646
0.000468362
0.000512717
0.000602263
0.000997179
0.000505207
0.00246882
0.00736034
0.00509934
0.00641475
0.00671658
0.00682424
0.00696894
0.00721306
0.00755823
0.00798121
0.00841664
0.00880215
0.00902498
0.00906494
0.00882991
0.00787249
0.00466554
0.00160216
0.00193275
0.00259784
0.0034459
0.00426949
0.00484244
0.00456578
0.00116344
0.00105309
0.000972441
0.000909232
0.000854805
0.000806408
0.000759467
0.000710461
0.000654681
0.000608423
0.000628983
0.00116793
0.000557811
0.00282292
0.00931993
0.00551156
0.00624136
0.00659005
0.00655756
0.00661621
0.00681492
0.00714457
0.00759649
0.00806947
0.00845892
0.00868596
0.00873778
0.00863935
0.00832015
0.00740554
0.00654253
0.00634145
0.00648375
0.00674623
0.00696819
0.00703693
0.00676127
0.00556055
0.00494838
0.0045728
0.00428229
0.00398979
0.00360267
0.00313259
0.00259528
0.00202364
0.00148643
0.00111067
0.00116835
0.00076001
0.00068726
0.000828657
0.000932538
0.00319975
0.0114841
0.00743574
0.00631352
0.00672262
0.00664804
0.00664821
0.00675124
0.00702053
0.00745838
0.00795417
0.00835327
0.00854506
0.00852422
0.00839678
0.0083042
0.00829936
0.0084224
0.00864259
0.0088156
0.00885742
0.00875459
0.00851116
0.00810779
0.00748603
0.00692042
0.00643093
0.00597945
0.0055326
0.00504413
0.00448736
0.00385389
0.00315204
0.00243236
0.00184238
0.00141094
0.00108506
0.000926971
0.00130716
0.000978058
0.0035463
0.0130018
0.0103531
0.00800103
0.00768814
0.00727741
0.00693691
0.00686456
0.00710243
0.007577
0.00811825
0.00852753
0.00867834
0.00859071
0.00845429
0.00854964
0.00900012
0.00956656
0.00993895
0.0100214
0.00985025
0.00949737
0.00901684
0.00843715
0.00778118
0.00714013
0.00654365
0.00598925
0.00547822
0.00502166
0.00462806
0.0041805
0.00364449
0.00303241
0.00248262
0.00200602
0.00166032
0.00154174
0.0015241
0.00112791
0.00361476
0.0115402
0.0101739
0.00925099
0.00829926
0.0073735
0.00687989
0.00688924
0.00731085
0.00795718
0.00858275
0.00896506
0.00901505
0.00884487
0.00877756
0.00916571
0.00986691
0.0103126
0.0103999
0.0101871
0.00974176
0.00913205
0.00840966
0.00762426
0.00683967
0.00612015
0.00548931
0.00495474
0.00452754
0.00421832
0.00402833
0.00392341
0.00374613
0.00340743
0.00313657
0.00302086
0.00313516
0.00346836
0.00426708
0.0016889
0.00352124
0.00419021
0.00469803
0.00477135
0.00488294
0.00524412
0.00591589
0.00685985
0.00791604
0.00885207
0.00943766
0.00953878
0.00926082
0.00904568
0.00926753
0.00964106
0.00990281
0.00990896
0.00964131
0.00913985
0.00845857
0.00765065
0.00677388
0.00590739
0.00512936
0.0044819
0.00396793
0.00357476
0.00328345
0.00307045
0.00291111
0.00278987
0.00270646
0.00265169
0.00263077
0.00263379
0.00260463
0.00249654
0.00232386
0.00156004
0.00200142
0.00366787
0.00586496
0.00762039
0.00897231
0.00996093
0.0104921
0.010551
0.0101855
0.00951858
0.00888373
0.00863077
0.00871423
0.00876225
0.00861272
0.00824581
0.0076806
0.00696091
0.00615503
0.00534336
0.00460351
0.00398305
0.00349552
0.00312887
0.00286283
0.00268028
0.00256419
0.0025014
0.0024841
0.00250189
0.00253945
0.00258949
0.0026429
0.00267809
0.00266224
0.00258195
0.00226865
0.00124148
0.00243557
0.00570671
0.00819389
0.00939376
0.0100776
0.0100483
0.00950704
0.00870779
0.0078997
0.00726996
0.00685241
0.00661458
0.00641977
0.00616058
0.00581524
0.00538156
0.00487578
0.00434358
0.00384369
0.00341998
0.00308799
0.00283963
0.00265739
0.00252479
0.00243005
0.00236627
0.00233282
0.00233037
0.00235762
0.00241292
0.002492
0.00258556
0.00267441
0.00273282
0.00273107
0.00263051
0.00193786
0.0012682
0.00210221
0.00221386
0.00229368
0.00237777
0.00219347
0.00207678
0.00200041
0.00189518
0.00175013
0.00158761
0.00142736
0.00128518
0.00117263
0.00109029
0.00102921
0.000980069
0.000936643
0.000895896
0.000857685
0.000823662
0.000795684
0.000774752
0.000760931
0.000753867
0.000753344
0.000759555
0.000773013
0.000794194
0.000823526
0.000861135
0.000906807
0.000960474
0.00102222
0.00109198
0.00116824
0.00124989
0.00125426
0.00112067
0.00106726
0.00127315
)
;

boundaryField
{
    floor
    {
        type            compressible::alphatWallFunction;
        Prt             0.85;
        value           nonuniform List<scalar> 
29
(
0.00015141
8.04052e-05
9.6008e-05
0.000110622
0.000115831
0.000114417
0.000110509
0.00010329
9.56185e-05
8.861e-05
8.24156e-05
7.69593e-05
7.21415e-05
6.78499e-05
6.40285e-05
6.0533e-05
5.71897e-05
5.37623e-05
5.11205e-05
4.56231e-05
4.56224e-05
5.99478e-05
7.00406e-05
7.80353e-05
0.000151408
8.04042e-05
8.05906e-05
0.000138169
0.00022467
)
;
    }
    ceiling
    {
        type            compressible::alphatWallFunction;
        Prt             0.85;
        value           nonuniform List<scalar> 
43
(
0.000290295
0.000304717
0.000314982
0.000325885
0.000302277
0.000287208
0.000277292
0.00026355
0.000244464
0.000222871
0.000201335
0.000182001
0.000166523
0.000155093
0.00014655
0.000139633
0.000133487
0.000127689
0.000122223
0.000117332
0.000113292
0.000110257
0.000108248
0.000107219
0.000107142
0.000108045
0.00011
0.00011307
0.000117305
0.00012271
0.000129236
0.000136855
0.000145561
0.000155323
0.000165913
0.000177164
0.000177764
0.000159317
0.000151878
0.000180365
0.000469171
0.000550522
0.000332976
)
;
    }
    sWall
    {
        type            compressible::alphatWallFunction;
        Prt             0.85;
        value           uniform 0.00028908;
    }
    nWall
    {
        type            compressible::alphatWallFunction;
        Prt             0.85;
        value           nonuniform List<scalar> 6(0.000132568 0.000139007 0.000159978 0.000175689 0.000179352 0.000180039);
    }
    sideWalls
    {
        type            empty;
    }
    glass1
    {
        type            compressible::alphatWallFunction;
        Prt             0.85;
        value           nonuniform List<scalar> 9(0.000180067 0.000239357 0.000286907 0.000331314 0.000375773 0.000422492 0.000465 0.000473479 0.000462308);
    }
    glass2
    {
        type            compressible::alphatWallFunction;
        Prt             0.85;
        value           nonuniform List<scalar> 2(0.000234643 0.000217615);
    }
    sun
    {
        type            compressible::alphatWallFunction;
        Prt             0.85;
        value           nonuniform List<scalar> 
14
(
0.000184574
0.00020168
0.000206246
0.000216046
0.00022524
0.000234127
0.000243334
0.000250619
0.000254739
0.000254669
0.000249709
0.000239303
0.000222297
0.000192172
)
;
    }
    heatsource1
    {
        type            compressible::alphatWallFunction;
        Prt             0.85;
        value           nonuniform List<scalar> 3(9.74423e-05 0.000118026 0.000132879);
    }
    heatsource2
    {
        type            compressible::alphatWallFunction;
        Prt             0.85;
        value           nonuniform List<scalar> 4(0.000191328 0.000137735 0.000137734 0.000196747);
    }
    Table_master
    {
        type            compressible::alphatWallFunction;
        Prt             0.85;
        value           nonuniform List<scalar> 9(0.000145692 0.00012723 0.000112143 9.98708e-05 8.98322e-05 8.15504e-05 7.4664e-05 6.89858e-05 6.44802e-05);
    }
    Table_slave
    {
        type            compressible::alphatWallFunction;
        Prt             0.85;
        value           nonuniform List<scalar> 9(0.00016524 0.00014988 0.000138536 0.000129568 0.000121788 0.00011482 0.000108014 0.000100855 9.26319e-05);
    }
    inlet
    {
        type            fixedValue;
        value           uniform 1.94e-05;
    }
    outlet
    {
        type            zeroGradient;
    }
}


// ************************************************************************* //
