/*--------------------------------*- C++ -*----------------------------------*\
  =========                 |
  \\      /  F ield         | OpenFOAM: The Open Source CFD Toolbox
   \\    /   O peration     | Website:  https://openfoam.org
    \\  /    A nd           | Version:  6
     \\/     M anipulation  |
\*---------------------------------------------------------------------------*/
FoamFile
{
    version     2.0;
    format      ascii;
    class       volScalarField;
    location    "600";
    object      nut;
}
// * * * * * * * * * * * * * * * * * * * * * * * * * * * * * * * * * * * * * //

dimensions      [0 2 -1 0 0 0 0];

internalField   nonuniform List<scalar> 
459
(
0.00112375
0.00123121
0.00126026
0.00132295
0.00138207
0.00143948
0.00149922
0.00154665
0.00157353
0.00157302
0.00154058
0.00147284
0.00136292
0.0011707
0.000916234
0.000493612
0.000583727
0.000669712
0.000700698
0.000692285
0.000669065
0.000626426
0.000581484
0.000540793
0.000505137
0.000473984
0.000446685
0.000422542
0.000401189
0.000381782
0.000363337
0.000344552
0.000330165
0.000300487
0.00151007
0.00371356
0.0035704
0.00414973
0.00472887
0.00528203
0.00569327
0.00606536
0.00638871
0.00662868
0.00675615
0.00674745
0.0065651
0.00609607
0.00483237
0.00116445
0.000831645
0.0004947
0.00116983
0.00172612
0.00217683
0.00245823
0.00245501
0.00181149
0.0015162
0.00131724
0.00117014
0.00105668
0.000966454
0.000893705
0.000826108
0.000758615
0.000696499
0.000643675
0.000746162
0.000378602
0.00182784
0.00502889
0.00439076
0.00532563
0.00576905
0.00610004
0.00635759
0.0066358
0.00694403
0.00725767
0.00753685
0.00774415
0.00781059
0.00763323
0.00697714
0.00507233
0.00119882
0.000835415
0.00137425
0.00197357
0.00260004
0.00307142
0.00300598
0.000880681
0.000768447
0.000678139
0.00060572
0.000547248
0.000499576
0.000460358
0.000428332
0.000403132
0.000441319
0.00051841
0.000858378
0.00043494
0.00212998
0.00633658
0.0043892
0.00552181
0.00578223
0.00587543
0.00600018
0.00620969
0.00650535
0.00686768
0.00724098
0.00757186
0.00776342
0.007798
0.00759607
0.00677259
0.00401373
0.00137837
0.00166288
0.0022353
0.00296532
0.00367443
0.00416795
0.00393016
0.00100154
0.000906604
0.000837212
0.000782829
0.000735999
0.000694354
0.000653956
0.000611776
0.000563754
0.000523858
0.000541503
0.00100545
0.000480245
0.00243699
0.00802586
0.0047448
0.00537345
0.00567457
0.00564758
0.00569839
0.00586847
0.00615022
0.00653701
0.00694237
0.00727658
0.00747179
0.00751674
0.00743253
0.00715829
0.00637164
0.00562944
0.00545688
0.00557992
0.00580649
0.00599825
0.00605809
0.00582134
0.00478796
0.00426116
0.00393798
0.00368799
0.00343621
0.00310288
0.00269804
0.00223524
0.00174287
0.00128008
0.000956356
0.00100591
0.00065435
0.000591922
0.000713833
0.000803327
0.00276388
0.0098931
0.00640289
0.00543659
0.00578992
0.00572722
0.0057273
0.00581435
0.00604372
0.00641811
0.00684291
0.00718544
0.00735053
0.0073333
0.00722447
0.00714552
0.00714197
0.00724851
0.00743881
0.00758864
0.00762562
0.007538
0.0073292
0.0069825
0.00644756
0.00596082
0.00553952
0.00515085
0.00476605
0.0043453
0.00386562
0.00331983
0.00271511
0.00209501
0.00158664
0.00121493
0.000934277
0.000798266
0.00112576
0.000842434
0.00306484
0.0112068
0.0089198
0.00689301
0.00662428
0.00627142
0.00597681
0.00591175
0.0061134
0.0065191
0.00698309
0.00733477
0.00746517
0.00739108
0.00727507
0.00735831
0.00774707
0.00823565
0.00855728
0.00862931
0.00848296
0.00817996
0.00776683
0.00726808
0.00670346
0.00615154
0.00563789
0.00516038
0.00472014
0.00432674
0.00398749
0.00360172
0.00313973
0.0026122
0.00213834
0.00172762
0.00142979
0.00132771
0.00131257
0.000971465
0.00312633
0.009961
0.00877729
0.00797903
0.00715764
0.00635676
0.00592719
0.00593078
0.00628987
0.00684345
0.00738078
0.00771043
0.00775528
0.00761117
0.00755534
0.00789114
0.00849625
0.00888114
0.00895733
0.00877491
0.00839214
0.00786757
0.00724573
0.00656942
0.00589366
0.00527385
0.00473035
0.00426974
0.00390159
0.00363506
0.00347125
0.00338067
0.00322772
0.00293566
0.00270207
0.00260215
0.00270048
0.00298759
0.00367581
0.00145546
0.00304868
0.00362444
0.00406025
0.00412054
0.00421302
0.00451816
0.00509036
0.00589761
0.00680325
0.00760808
0.00811402
0.00820449
0.00796889
0.00778723
0.00798067
0.00830381
0.00853027
0.00853643
0.00830662
0.00787522
0.00728872
0.00659293
0.00583765
0.0050911
0.00442069
0.00386273
0.00341977
0.0030809
0.00282979
0.00264617
0.00250881
0.00240429
0.00233239
0.00228521
0.00226723
0.00226997
0.00224505
0.0021521
0.00200339
0.00134518
0.00168616
0.00310689
0.00498339
0.00649559
0.00766878
0.00853277
0.00900347
0.00906594
0.0087613
0.00819342
0.00765001
0.00743407
0.00750723
0.00754947
0.00742132
0.00710572
0.00661912
0.00599924
0.00530495
0.00460554
0.00396794
0.00343318
0.00301297
0.00269693
0.0024676
0.00231023
0.00221015
0.00215601
0.00214109
0.00215641
0.00218879
0.00223195
0.00227805
0.00230849
0.00229498
0.00222593
0.00195599
0.00107057
0.00205481
0.00484161
0.00697999
0.00803334
0.00864187
0.00863155
0.00817598
0.00749439
0.00680235
0.00626214
0.00590372
0.00569963
0.00553233
0.00530938
0.00501208
0.00463855
0.00420279
0.00374418
0.00331335
0.00294815
0.00266197
0.00244788
0.00229077
0.00217645
0.00209476
0.00203977
0.00201092
0.0020088
0.00203227
0.00207993
0.00214809
0.00222876
0.00230539
0.00235581
0.0023544
0.00226786
0.00167085
0.00109356
0.00178873
0.00188326
0.00195113
0.00203597
0.00188391
0.0017861
0.00172166
0.00163186
0.00150748
0.00136783
0.00122997
0.0011076
0.00101068
0.000939776
0.000887172
0.000844842
0.00080743
0.000772321
0.000739391
0.000710066
0.000685949
0.000667903
0.000655987
0.000649895
0.000649441
0.000654793
0.000666391
0.000684647
0.00070993
0.000742349
0.000781717
0.000827979
0.000881209
0.000941344
0.00100709
0.0010775
0.00108129
0.000966156
0.000920308
0.00109818
)
;

boundaryField
{
    floor
    {
        type            nutkWallFunction;
        Cmu             0.09;
        kappa           0.41;
        E               9.8;
        value           nonuniform List<scalar> 
29
(
0.000110817
5.88945e-05
7.03094e-05
8.10015e-05
8.48136e-05
8.37812e-05
8.09229e-05
7.56423e-05
7.00292e-05
6.49012e-05
6.03685e-05
5.63758e-05
5.28501e-05
4.97095e-05
4.69127e-05
4.43544e-05
4.19073e-05
3.93986e-05
3.7465e-05
3.34412e-05
3.34411e-05
4.39316e-05
5.13222e-05
5.71774e-05
0.000110817
5.88944e-05
5.90328e-05
0.000101158
0.000164398
)
;
    }
    ceiling
    {
        type            nutkWallFunction;
        Cmu             0.09;
        kappa           0.41;
        E               9.8;
        value           nonuniform List<scalar> 
43
(
0.000210135
0.000220516
0.000227936
0.000237273
0.000220716
0.000209978
0.000202864
0.000192896
0.000178983
0.00016321
0.000147461
0.000133314
0.000121985
0.000113618
0.000107364
0.000102299
9.77983e-05
9.35519e-05
8.95482e-05
8.59648e-05
8.30044e-05
8.0781e-05
7.93086e-05
7.85543e-05
7.84974e-05
7.9159e-05
8.05913e-05
8.28402e-05
8.59431e-05
8.99029e-05
9.46844e-05
0.000100267
0.000106646
0.000113799
0.000121559
0.000129806
0.000130249
0.000116734
0.000111303
0.00013222
0.000345192
0.000404692
0.000239093
)
;
    }
    sWall
    {
        type            nutkWallFunction;
        Cmu             0.09;
        kappa           0.41;
        E               9.8;
        value           uniform 0.000210194;
    }
    nWall
    {
        type            nutkWallFunction;
        Cmu             0.09;
        kappa           0.41;
        E               9.8;
        value           nonuniform List<scalar> 6(9.7297e-05 0.000102005 0.000117365 0.000129006 0.000131687 0.000132228);
    }
    sideWalls
    {
        type            empty;
    }
    glass1
    {
        type            nutkWallFunction;
        Cmu             0.09;
        kappa           0.41;
        E               9.8;
        value           nonuniform List<scalar> 9(0.000135307 0.000179504 0.0002149 0.000247933 0.000280988 0.000315702 0.000347286 0.000353708 0.000345624);
    }
    glass2
    {
        type            nutkWallFunction;
        Cmu             0.09;
        kappa           0.41;
        E               9.8;
        value           nonuniform List<scalar> 2(0.000173198 0.000160695);
    }
    sun
    {
        type            nutkWallFunction;
        Cmu             0.09;
        kappa           0.41;
        E               9.8;
        value           nonuniform List<scalar> 
14
(
0.00013519
0.000147599
0.000150933
0.000158099
0.000164822
0.00017132
0.000178051
0.000183375
0.000186383
0.000186325
0.000182692
0.00017508
0.000162645
0.000140618
)
;
    }
    heatsource1
    {
        type            nutkWallFunction;
        Cmu             0.09;
        kappa           0.41;
        E               9.8;
        value           nonuniform List<scalar> 3(7.13354e-05 8.64201e-05 9.72962e-05);
    }
    heatsource2
    {
        type            nutkWallFunction;
        Cmu             0.09;
        kappa           0.41;
        E               9.8;
        value           nonuniform List<scalar> 4(0.000139898 0.00010071 0.00010071 0.000143863);
    }
    Table_master
    {
        type            nutkWallFunction;
        Cmu             0.09;
        kappa           0.41;
        E               9.8;
        value           nonuniform List<scalar> 9(0.000106585 9.30786e-05 8.20418e-05 7.30643e-05 6.57207e-05 5.96624e-05 5.46248e-05 5.04712e-05 4.71754e-05);
    }
    Table_slave
    {
        type            nutkWallFunction;
        Cmu             0.09;
        kappa           0.41;
        E               9.8;
        value           nonuniform List<scalar> 9(0.000120908 0.000109675 0.000101379 9.48213e-05 8.91311e-05 8.40348e-05 7.90561e-05 7.3818e-05 6.78008e-05);
    }
    inlet
    {
        type            calculated;
        value           uniform 0.000100623;
    }
    outlet
    {
        type            calculated;
        value           nonuniform List<scalar> 2(0.00178873 0.00188326);
    }
}


// ************************************************************************* //
