/*--------------------------------*- C++ -*----------------------------------*\
  =========                 |
  \\      /  F ield         | OpenFOAM: The Open Source CFD Toolbox
   \\    /   O peration     | Website:  https://openfoam.org
    \\  /    A nd           | Version:  6
     \\/     M anipulation  |
\*---------------------------------------------------------------------------*/
FoamFile
{
    version     2.0;
    format      ascii;
    class       volScalarField;
    location    "900";
    object      alphat;
}
// * * * * * * * * * * * * * * * * * * * * * * * * * * * * * * * * * * * * * //

dimensions      [1 -1 -1 0 0 0 0];

internalField   nonuniform List<scalar> 
459
(
0.00130223
0.00142731
0.00145998
0.00153232
0.00160053
0.00166669
0.00173539
0.00179019
0.00182129
0.00182076
0.00178321
0.00170466
0.0015771
0.00135911
0.00105943
0.000573901
0.000679562
0.000778657
0.000812611
0.000801855
0.000774603
0.000725857
0.000674537
0.000627943
0.000586995
0.000551128
0.000519629
0.000491779
0.000467094
0.000444609
0.000423199
0.000401358
0.000385221
0.000350928
0.00175226
0.00430827
0.00413712
0.00480686
0.00547463
0.00611365
0.00659183
0.00702156
0.0073951
0.00767248
0.00781923
0.00780793
0.00759688
0.00706191
0.0056469
0.00134284
0.00095413
0.000577096
0.00135594
0.00199959
0.00252058
0.00284455
0.00284051
0.00210749
0.0017685
0.00153955
0.00136988
0.00123867
0.00113408
0.00104845
0.000968683
0.000889635
0.00081752
0.000756179
0.000881992
0.000445812
0.00212172
0.00583386
0.00508258
0.00617415
0.00668721
0.00706982
0.00736851
0.00768889
0.00804343
0.00840392
0.00872278
0.00895622
0.00902957
0.00882452
0.00807264
0.00588803
0.00138485
0.000982061
0.00160711
0.00229966
0.00302247
0.00356421
0.0034824
0.00101916
0.000890523
0.000787111
0.000704198
0.000637243
0.000582637
0.000537722
0.000501029
0.000472139
0.000517907
0.000609347
0.00101519
0.000513771
0.00247238
0.00735649
0.0050779
0.00640299
0.00670757
0.00681492
0.00695916
0.00719993
0.00753907
0.00795554
0.00838167
0.00875523
0.00897185
0.009004
0.00876866
0.00783359
0.00466331
0.00159376
0.00193665
0.00261201
0.00346203
0.00427895
0.00484123
0.00455288
0.00115837
0.00105118
0.00097368
0.000913312
0.000860868
0.000813538
0.00076748
0.000719058
0.000663397
0.000615617
0.000636377
0.00119228
0.000566986
0.00282793
0.00932099
0.00549075
0.00622748
0.0065845
0.00655355
0.00660857
0.0068052
0.00712725
0.00757228
0.00803574
0.00841515
0.00863216
0.00867367
0.00856746
0.00825069
0.00736713
0.0065002
0.00630286
0.00644785
0.00670929
0.00692775
0.00699348
0.00671871
0.00553098
0.00493866
0.00457966
0.00430114
0.00402132
0.00363876
0.00316385
0.00261849
0.0020392
0.00149597
0.00111483
0.00118324
0.000769603
0.000696088
0.000837779
0.000942946
0.00320582
0.0114875
0.00741233
0.00628858
0.00670914
0.00663939
0.00663794
0.00674089
0.00700411
0.00743161
0.00791637
0.00830537
0.00848752
0.00845566
0.00831609
0.00821439
0.00820946
0.00833357
0.00855531
0.00872654
0.00876399
0.00865678
0.00841087
0.00800868
0.00739547
0.00684361
0.00636885
0.00593326
0.00550651
0.00504623
0.0045069
0.00387755
0.00316811
0.00243547
0.00183181
0.001404
0.00108352
0.000933954
0.00132794
0.000990363
0.00355351
0.0130085
0.0103323
0.00796007
0.00765875
0.00726525
0.00693085
0.00685517
0.00708226
0.00754249
0.00807023
0.00846867
0.00860955
0.0085084
0.00835317
0.00842903
0.00886831
0.00942916
0.009798
0.00987368
0.00969341
0.00933032
0.00883873
0.00824868
0.00758965
0.00695903
0.00638644
0.00586752
0.00540184
0.00499692
0.00465208
0.00421832
0.00366749
0.00302997
0.00245033
0.00195899
0.00161361
0.00154479
0.00160038
0.00116513
0.00362214
0.0115593
0.0101789
0.00923996
0.00830963
0.00738764
0.00688523
0.00687841
0.0072797
0.00790604
0.00851619
0.0088876
0.00892647
0.00873518
0.00863573
0.00899402
0.00968769
0.0101273
0.0102005
0.00997189
0.00950835
0.00887742
0.00813486
0.00734044
0.0065699
0.00589084
0.00532054
0.00485708
0.00450178
0.00425706
0.0041195
0.00404397
0.00381245
0.00344061
0.00314484
0.0030423
0.00326299
0.00383059
0.00459698
0.00176647
0.00352823
0.0041989
0.00470963
0.00479004
0.00489613
0.00524573
0.00589908
0.00681942
0.00785184
0.00877011
0.00934644
0.00944066
0.00914633
0.00887837
0.00906528
0.00942705
0.00968091
0.00967303
0.00938599
0.00886334
0.00815925
0.00732735
0.00644165
0.00559899
0.0048802
0.00431552
0.00388878
0.00357155
0.00333681
0.00315946
0.00301765
0.00290267
0.00282012
0.00276504
0.00274878
0.00275525
0.00271458
0.00257305
0.00238466
0.00164006
0.00201919
0.00368973
0.00586228
0.0075887
0.00891228
0.00987907
0.0103979
0.0104526
0.010077
0.00938725
0.00870982
0.00841148
0.00847995
0.00852857
0.008373
0.00799048
0.00740535
0.00666713
0.00585113
0.00504939
0.00434222
0.00377429
0.00335084
0.00305464
0.00285485
0.00272614
0.00265048
0.00261553
0.00261703
0.00264658
0.00268948
0.0027387
0.00278122
0.00278625
0.00271024
0.00255252
0.0023033
0.00135458
0.00245143
0.00569838
0.00818721
0.00934769
0.0100033
0.00995536
0.0093988
0.00858203
0.00775109
0.00709892
0.00666405
0.00642224
0.00623274
0.00597082
0.00560996
0.00515247
0.00462176
0.00407211
0.00357019
0.00316288
0.00286177
0.00265274
0.00251376
0.00242149
0.00236516
0.00234405
0.00235526
0.00239468
0.0024618
0.00255333
0.00266421
0.00278293
0.00288699
0.00296281
0.00293094
0.00295326
0.00290644
0.00137856
0.00211323
0.00222475
0.00230484
0.00238544
0.00219236
0.0020658
0.00198673
0.00187993
0.00173316
0.00156896
0.00140638
0.00126077
0.00114399
0.00105761
0.000992939
0.000940566
0.000894363
0.000851574
0.00081247
0.000779113
0.000753573
0.000736797
0.000728637
0.000728557
0.000736255
0.000751659
0.000775086
0.000806104
0.000844854
0.000891913
0.000946542
0.00100875
0.00107896
0.00115747
0.00124283
0.00135118
0.0013711
0.00132759
0.00124675
0.00115469
)
;

boundaryField
{
    floor
    {
        type            compressible::alphatWallFunction;
        Prt             0.85;
        value           nonuniform List<scalar> 
29
(
0.000150628
8.04571e-05
9.61925e-05
0.000110682
0.000115596
0.000114044
0.000110097
0.000102995
9.54549e-05
8.85489e-05
8.24278e-05
7.70231e-05
7.22405e-05
6.79818e-05
6.41817e-05
6.06981e-05
5.73603e-05
5.39328e-05
5.13851e-05
4.59246e-05
4.5924e-05
6.08838e-05
7.13454e-05
7.94161e-05
0.000150627
8.04561e-05
8.09358e-05
0.000139757
0.000223544
)
;
    }
    ceiling
    {
        type            compressible::alphatWallFunction;
        Prt             0.85;
        value           nonuniform List<scalar> 
43
(
0.00029172
0.000306118
0.000316412
0.000326863
0.000302131
0.00028578
0.000275506
0.000261547
0.000242217
0.000220373
0.000198493
0.000178654
0.000162555
0.000150526
0.000141445
0.000134041
0.000127468
0.000121345
0.000115717
0.000110889
0.000107176
0.000104728
0.000103535
0.000103521
0.000104645
0.000106891
0.000110296
0.000114787
0.000120369
0.000127108
0.000134878
0.000143664
0.000153503
0.000164418
0.000176191
0.000191004
0.000193712
0.000187791
0.000176731
0.000164038
0.000470027
0.000551568
0.000335001
)
;
    }
    sWall
    {
        type            compressible::alphatWallFunction;
        Prt             0.85;
        value           uniform 0.000290504;
    }
    nWall
    {
        type            compressible::alphatWallFunction;
        Prt             0.85;
        value           nonuniform List<scalar> 6(0.000134039 0.000140737 0.000165132 0.000191139 0.000194396 0.000163712);
    }
    sideWalls
    {
        type            empty;
    }
    glass1
    {
        type            compressible::alphatWallFunction;
        Prt             0.85;
        value           nonuniform List<scalar> 9(0.000179688 0.000239306 0.00028711 0.00033174 0.000376373 0.000423215 0.000465852 0.000474351 0.000463135);
    }
    glass2
    {
        type            compressible::alphatWallFunction;
        Prt             0.85;
        value           nonuniform List<scalar> 2(0.000244838 0.000228222);
    }
    sun
    {
        type            compressible::alphatWallFunction;
        Prt             0.85;
        value           nonuniform List<scalar> 
14
(
0.000184202
0.000201187
0.000205598
0.000215329
0.000224457
0.00023327
0.00024238
0.000249618
0.000253714
0.000253644
0.000248695
0.000238305
0.00022132
0.000191924
)
;
    }
    heatsource1
    {
        type            compressible::alphatWallFunction;
        Prt             0.85;
        value           nonuniform List<scalar> 3(9.87416e-05 0.000119339 0.000134356);
    }
    heatsource2
    {
        type            compressible::alphatWallFunction;
        Prt             0.85;
        value           nonuniform List<scalar> 4(0.000189857 0.000135947 0.000135946 0.000195564);
    }
    Table_master
    {
        type            compressible::alphatWallFunction;
        Prt             0.85;
        value           nonuniform List<scalar> 9(0.000145118 0.000126899 0.000112027 9.99346e-05 9.00435e-05 8.18823e-05 7.50987e-05 6.95043e-05 6.50635e-05);
    }
    Table_slave
    {
        type            compressible::alphatWallFunction;
        Prt             0.85;
        value           nonuniform List<scalar> 9(0.000164539 0.000149613 0.000138712 0.00013015 0.000122658 0.00011585 0.00010918 0.000102115 9.39223e-05);
    }
    inlet
    {
        type            fixedValue;
        value           uniform 1.94e-05;
    }
    outlet
    {
        type            zeroGradient;
    }
}


// ************************************************************************* //
