/*--------------------------------*- C++ -*----------------------------------*\
  =========                 |
  \\      /  F ield         | OpenFOAM: The Open Source CFD Toolbox
   \\    /   O peration     | Website:  https://openfoam.org
    \\  /    A nd           | Version:  6
     \\/     M anipulation  |
\*---------------------------------------------------------------------------*/
FoamFile
{
    version     2.0;
    format      ascii;
    class       volScalarField;
    location    "1300";
    object      nut;
}
// * * * * * * * * * * * * * * * * * * * * * * * * * * * * * * * * * * * * * //

dimensions      [0 2 -1 0 0 0 0];

internalField   nonuniform List<scalar> 
459
(
0.00106549
0.00116171
0.00118367
0.00124016
0.00129253
0.00134193
0.00139103
0.00143785
0.00147068
0.00148321
0.00146945
0.00142516
0.00134832
0.00124113
0.00111542
0.000461164
0.000549482
0.000620695
0.000626825
0.000608323
0.000581971
0.000545462
0.000508343
0.000474657
0.000444899
0.000418679
0.000395501
0.000374925
0.00035658
0.000339792
0.000323731
0.000307294
0.000297717
0.000273191
0.00145118
0.00344363
0.00325822
0.0037788
0.00428907
0.00480046
0.00524439
0.0055903
0.00591172
0.00617912
0.00635589
0.00640436
0.00627904
0.00587207
0.00472944
0.00113552
0.000705607
0.000480579
0.00101195
0.00141747
0.00172434
0.00190605
0.00191438
0.00151003
0.00129489
0.00114231
0.00102589
0.00093389
0.000859328
0.000796621
0.00073837
0.00068207
0.000631958
0.000587812
0.000705142
0.000365515
0.00177226
0.00467284
0.00397545
0.00494935
0.00539622
0.005721
0.00597483
0.00619914
0.00645991
0.00674274
0.00701441
0.00722449
0.00732727
0.00724577
0.00675749
0.00518269
0.00117014
0.000900927
0.00131188
0.00170855
0.00209498
0.00238285
0.00235542
0.000778072
0.000687313
0.000613695
0.000554
0.000505252
0.000465079
0.000431719
0.000404024
0.00038146
0.000410615
0.000472131
0.0008014
0.0004287
0.00208099
0.00597855
0.00392654
0.00516943
0.00550525
0.00558529
0.00565318
0.00578101
0.00600043
0.00629518
0.00663381
0.00694496
0.00717933
0.00727008
0.00716714
0.00660502
0.0044255
0.00136813
0.00163385
0.00207803
0.00256657
0.00300365
0.00330599
0.00315207
0.00088185
0.000805122
0.00075009
0.000708146
0.000672517
0.000639522
0.000607829
0.000574544
0.000536
0.000503443
0.00050959
0.000939943
0.000478523
0.00239591
0.00768129
0.00424643
0.00493176
0.00539274
0.00534216
0.00529666
0.00539475
0.00560063
0.00590183
0.00627573
0.00661776
0.00685759
0.00695092
0.00689831
0.00667413
0.00610435
0.00516577
0.00483999
0.00478101
0.00482141
0.00487183
0.00487366
0.00471621
0.00400643
0.0036547
0.00344734
0.00328633
0.00311801
0.0028812
0.00255807
0.00216339
0.00172502
0.00129134
0.00095836
0.000950732
0.000657331
0.000594593
0.000716029
0.000804286
0.00273043
0.00954902
0.00584028
0.00477222
0.0052174
0.00535926
0.00521761
0.00530916
0.00547947
0.00575823
0.0061219
0.0064781
0.00671628
0.00677032
0.00665503
0.00645427
0.00626071
0.0061322
0.00613309
0.00615513
0.00612618
0.00603507
0.00588371
0.00565941
0.00532025
0.0050103
0.00473227
0.00446526
0.00419629
0.00391301
0.00356615
0.00314027
0.00263539
0.00207998
0.00158462
0.00116875
0.000913497
0.000781484
0.00110416
0.000841291
0.00304433
0.0108974
0.00836977
0.00605982
0.00566004
0.00568736
0.00554468
0.0054641
0.00554582
0.00581082
0.00619403
0.00656795
0.00679475
0.00679876
0.00661504
0.00639577
0.00634092
0.00651169
0.00672542
0.00679676
0.00669655
0.00647095
0.00616088
0.00579365
0.00539644
0.00502313
0.00468211
0.0043679
0.00408108
0.00382759
0.00360934
0.00334739
0.00298007
0.00252442
0.00208415
0.00166917
0.00137983
0.00127439
0.00125941
0.000954341
0.00311212
0.00988543
0.00857841
0.00760454
0.00701111
0.00634646
0.00579043
0.00555745
0.00566251
0.00602062
0.00648349
0.00687676
0.00704843
0.0069486
0.00667213
0.00645926
0.00654379
0.00683727
0.00696452
0.00683294
0.00651206
0.00607138
0.00557058
0.00506856
0.00461671
0.00423783
0.00392419
0.00366734
0.00346722
0.0033273
0.00325035
0.00322093
0.00310549
0.00284324
0.00261269
0.00250618
0.00259667
0.00286857
0.00355361
0.00145285
0.00303705
0.00362624
0.00409575
0.00424328
0.00425547
0.00435571
0.00464254
0.00514344
0.00581361
0.00652083
0.00709868
0.00740266
0.00733743
0.00697035
0.00658035
0.00651082
0.00658009
0.00658467
0.00638813
0.00599334
0.00546257
0.00487631
0.00431409
0.00383551
0.00346069
0.00317594
0.00295772
0.00278841
0.00265543
0.00254741
0.00245367
0.0023663
0.00229883
0.00224887
0.00223011
0.00223822
0.00222285
0.00213841
0.00199452
0.00135029
0.00182693
0.00325827
0.00451603
0.00556473
0.00641927
0.00718848
0.00778782
0.00809072
0.0080555
0.00770156
0.00708168
0.00638618
0.00596681
0.00581695
0.0056544
0.00534466
0.00488861
0.0043488
0.00380228
0.00331218
0.0029183
0.00262935
0.00242636
0.0022861
0.00219076
0.00212878
0.00209264
0.00207761
0.0020828
0.00211084
0.00214854
0.00219292
0.00223952
0.00227166
0.0022616
0.00219368
0.00193833
0.00107762
0.00212756
0.00456375
0.00625897
0.00705659
0.00759695
0.00797455
0.00794428
0.00744692
0.00668721
0.00587593
0.00519693
0.00471011
0.00438829
0.0040999
0.00374847
0.00334448
0.00293573
0.00257182
0.00228385
0.00207687
0.00193739
0.00184529
0.00178767
0.00175924
0.00175635
0.00177466
0.00181037
0.00185909
0.00192471
0.00200436
0.00209544
0.00219237
0.0022816
0.00234203
0.00235899
0.00233222
0.00167767
0.00110243
0.00182975
0.00192693
0.00199879
0.00206835
0.00187682
0.00172569
0.00165409
0.00158028
0.00147264
0.00133946
0.00118806
0.00103827
0.000906039
0.000801326
0.000725466
0.00067155
0.000632089
0.000602803
0.000582083
0.000569388
0.000564045
0.000565071
0.000571515
0.000582736
0.000598518
0.000618402
0.000642182
0.000670132
0.000702788
0.000741145
0.000784754
0.000833651
0.000888256
0.000948887
0.00101501
0.0010857
0.00110046
0.000982729
0.000932302
0.00110377
)
;

boundaryField
{
    floor
    {
        type            nutkWallFunction;
        Cmu             0.09;
        kappa           0.41;
        E               9.8;
        value           nonuniform List<scalar> 
29
(
0.000134218
5.47215e-05
6.59978e-05
7.49266e-05
7.56892e-05
7.33847e-05
7.00878e-05
6.54896e-05
6.07756e-05
5.64606e-05
5.26168e-05
4.92033e-05
4.61632e-05
4.34452e-05
4.10057e-05
3.87592e-05
3.65963e-05
3.43684e-05
3.30629e-05
2.96938e-05
2.96937e-05
4.21953e-05
5.05104e-05
5.6957e-05
0.000134218
5.47215e-05
5.72217e-05
0.000108997
0.000163238
)
;
    }
    ceiling
    {
        type            nutkWallFunction;
        Cmu             0.09;
        kappa           0.41;
        E               9.8;
        value           nonuniform List<scalar> 
43
(
0.000214647
0.000225292
0.000233129
0.000240777
0.000219924
0.00020329
0.000195356
0.000187132
0.000175057
0.000159979
0.000142631
0.000125217
0.000109606
9.70553e-05
8.7843e-05
8.12264e-05
7.63434e-05
7.26957e-05
7.0102e-05
6.85074e-05
6.78349e-05
6.79641e-05
6.87748e-05
7.01838e-05
7.21601e-05
7.46411e-05
7.75956e-05
8.10514e-05
8.50673e-05
8.9756e-05
9.5052e-05
0.000100949
0.000107487
0.000114692
0.00012249
0.000130762
0.000132481
0.000118691
0.000112727
0.000132869
0.000343986
0.000404887
0.000246989
)
;
    }
    sWall
    {
        type            nutkWallFunction;
        Cmu             0.09;
        kappa           0.41;
        E               9.8;
        value           uniform 0.000214707;
    }
    nWall
    {
        type            nutkWallFunction;
        Cmu             0.09;
        kappa           0.41;
        E               9.8;
        value           nonuniform List<scalar> 6(9.74133e-05 0.000101868 0.000115341 0.000129828 0.00013272 0.000132877);
    }
    sideWalls
    {
        type            empty;
    }
    glass1
    {
        type            nutkWallFunction;
        Cmu             0.09;
        kappa           0.41;
        E               9.8;
        value           nonuniform List<scalar> 9(0.000128502 0.000172858 0.000208762 0.000242615 0.000276595 0.000312175 0.000345149 0.000352233 0.000344414);
    }
    glass2
    {
        type            nutkWallFunction;
        Cmu             0.09;
        kappa           0.41;
        E               9.8;
        value           nonuniform List<scalar> 2(0.000172903 0.000161277);
    }
    sun
    {
        type            nutkWallFunction;
        Cmu             0.09;
        kappa           0.41;
        E               9.8;
        value           nonuniform List<scalar> 
14
(
0.000128405
0.000139586
0.000142123
0.000148627
0.000154626
0.000160261
0.000165838
0.000171136
0.000174838
0.00017625
0.0001747
0.000169701
0.000160986
0.000148737
)
;
    }
    heatsource1
    {
        type            nutkWallFunction;
        Cmu             0.09;
        kappa           0.41;
        E               9.8;
        value           nonuniform List<scalar> 3(7.16709e-05 8.66897e-05 9.74124e-05);
    }
    heatsource2
    {
        type            nutkWallFunction;
        Cmu             0.09;
        kappa           0.41;
        E               9.8;
        value           nonuniform List<scalar> 4(0.000136548 8.54143e-05 8.54143e-05 0.000140556);
    }
    Table_master
    {
        type            nutkWallFunction;
        Cmu             0.09;
        kappa           0.41;
        E               9.8;
        value           nonuniform List<scalar> 9(9.42428e-05 8.31685e-05 7.40573e-05 6.6572e-05 6.03862e-05 5.52331e-05 5.09115e-05 4.72921e-05 4.43198e-05);
    }
    Table_slave
    {
        type            nutkWallFunction;
        Cmu             0.09;
        kappa           0.41;
        E               9.8;
        value           nonuniform List<scalar> 9(0.000106721 9.75132e-05 9.08456e-05 8.57249e-05 8.13468e-05 7.72675e-05 7.33252e-05 6.91579e-05 6.42952e-05);
    }
    inlet
    {
        type            calculated;
        value           uniform 0.000100623;
    }
    outlet
    {
        type            calculated;
        value           nonuniform List<scalar> 2(0.00182975 0.00192693);
    }
}


// ************************************************************************* //
