/*--------------------------------*- C++ -*----------------------------------*\
  =========                 |
  \\      /  F ield         | OpenFOAM: The Open Source CFD Toolbox
   \\    /   O peration     | Website:  https://openfoam.org
    \\  /    A nd           | Version:  6
     \\/     M anipulation  |
\*---------------------------------------------------------------------------*/
FoamFile
{
    version     2.0;
    format      ascii;
    class       volVectorField;
    location    "1300";
    object      U;
}
// * * * * * * * * * * * * * * * * * * * * * * * * * * * * * * * * * * * * * //

dimensions      [0 1 -1 0 0 0 0];

internalField   nonuniform List<vector> 
459
(
(0.0341479 0.0859118 0)
(-0.167139 0.025504 0)
(-0.191918 0.0178418 0)
(-0.222921 0.0121276 0)
(-0.245335 0.00582597 0)
(-0.258059 -0.000878647 0)
(-0.259397 -0.00805463 0)
(-0.248092 -0.0157256 0)
(-0.224746 -0.023183 0)
(-0.191287 -0.0290907 0)
(-0.151469 -0.0323474 0)
(-0.109708 -0.0324199 0)
(-0.0702543 -0.0294673 0)
(-0.0382656 -0.0246353 0)
(-0.0276499 -0.0197807 0)
(-0.00652201 0.00911268 0)
(-0.0299062 -0.0163573 0)
(-0.00885063 -0.0261896 0)
(0.0148371 -0.0202929 0)
(0.0299316 -0.0139335 0)
(0.042564 -0.00904519 0)
(0.0506023 -0.00525738 0)
(0.0548293 -0.00327031 0)
(0.0567643 -0.00247537 0)
(0.0577377 -0.00213379 0)
(0.0583518 -0.00192349 0)
(0.0587145 -0.00175668 0)
(0.0587746 -0.00156207 0)
(0.0583586 -0.00117205 0)
(0.0569666 -0.000243792 0)
(0.0535251 0.00170474 0)
(0.0468567 0.003766 0)
(0.0411526 0.00541733 0)
(-0.0138858 0.0201358 0)
(0.208667 0.176025 0)
(-0.156302 0.0674893 0)
(-0.154805 0.0530532 0)
(-0.186963 0.0411908 0)
(-0.209238 0.0277249 0)
(-0.222274 0.0125341 0)
(-0.224327 -0.00469939 0)
(-0.213983 -0.0233658 0)
(-0.192449 -0.0408412 0)
(-0.162068 -0.0540183 0)
(-0.126725 -0.0607799 0)
(-0.0905013 -0.0605136 0)
(-0.0569563 -0.0538342 0)
(-0.0294947 -0.0423864 0)
(-0.012084 -0.0287043 0)
(0.00171218 -0.0107652 0)
(0.000377334 0.0155951 0)
(0.0613431 0.0368089 0)
(0.0233697 -0.0173174 0)
(0.032072 -0.0308889 0)
(0.0430091 -0.0276834 0)
(0.0517491 -0.020006 0)
(0.0582326 -0.0126105 0)
(0.0610618 -0.00544062 0)
(0.0616368 -0.00130881 0)
(0.0616086 0.000421619 0)
(0.0617242 0.00119265 0)
(0.0619288 0.00166675 0)
(0.0620779 0.0020519 0)
(0.0621365 0.00251186 0)
(0.0620627 0.00334902 0)
(0.0613734 0.00537676 0)
(0.0578544 0.0110132 0)
(0.0488622 0.0157156 0)
(0.0453272 0.018842 0)
(-0.0509078 0.0437689 0)
(0.368832 0.263438 0)
(-0.173161 0.107522 0)
(-0.11627 0.0858793 0)
(-0.147646 0.0647194 0)
(-0.167536 0.0425335 0)
(-0.179738 0.017849 0)
(-0.18149 -0.0101793 0)
(-0.170494 -0.0400698 0)
(-0.149237 -0.0671373 0)
(-0.120971 -0.0863322 0)
(-0.0897817 -0.0949798 0)
(-0.0591585 -0.0930344 0)
(-0.0313768 -0.0819309 0)
(-0.00849902 -0.0639544 0)
(0.00849451 -0.0404764 0)
(0.0196051 -0.0141328 0)
(0.023819 0.022927 0)
(0.110205 -0.0249533 0)
(0.0740472 -0.036261 0)
(0.0683177 -0.03735 0)
(0.0695641 -0.0322746 0)
(0.0706872 -0.0245654 0)
(0.0718386 -0.0177997 0)
(0.0705063 -0.0143004 0)
(0.0658607 -0.0101222 0)
(0.0624773 -0.00783712 0)
(0.0609258 -0.00652841 0)
(0.0602426 -0.0056905 0)
(0.0598765 -0.00511656 0)
(0.0598027 -0.00462802 0)
(0.0604366 -0.00385568 0)
(0.0628301 -0.000915702 0)
(0.0608487 0.0153074 0)
(0.0481953 0.0265874 0)
(0.0518052 0.0341401 0)
(-0.0836546 0.0681059 0)
(0.513434 0.333762 0)
(-0.207908 0.143024 0)
(-0.0753372 0.113861 0)
(-0.105398 0.0848091 0)
(-0.119872 0.0563588 0)
(-0.128906 0.023954 0)
(-0.127691 -0.0147316 0)
(-0.113643 -0.0564373 0)
(-0.0920289 -0.0923314 0)
(-0.0668525 -0.11588 0)
(-0.0416289 -0.124892 0)
(-0.0186947 -0.120701 0)
(0.00172247 -0.105429 0)
(0.0185035 -0.0826364 0)
(0.0327301 -0.0558096 0)
(0.0478983 -0.0267946 0)
(0.0692634 0.00502044 0)
(0.0996215 0.0168537 0)
(0.104664 -0.0217932 0)
(0.0911971 -0.0323987 0)
(0.0822609 -0.0317762 0)
(0.0770571 -0.0278108 0)
(0.0730357 -0.0219206 0)
(0.0702258 -0.0144198 0)
(0.071078 -0.00864491 0)
(0.0755243 -0.00645619 0)
(0.0792904 -0.0052681 0)
(0.0817323 -0.00445464 0)
(0.0832195 -0.00355438 0)
(0.0833506 -0.00226787 0)
(0.0810376 -0.000331464 0)
(0.0750155 0.00256444 0)
(0.0628215 0.00691196 0)
(0.0510698 0.0255482 0)
(0.0390863 0.0413747 0)
(0.0561167 0.0539158 0)
(-0.118621 0.0897065 0)
(0.638644 0.388234 0)
(-0.250457 0.172009 0)
(-0.0345849 0.130038 0)
(-0.061156 0.0963326 0)
(-0.0676173 0.0644089 0)
(-0.0706515 0.0268723 0)
(-0.0606229 -0.0215592 0)
(-0.0413872 -0.07413 0)
(-0.0208149 -0.115235 0)
(-0.00155493 -0.139336 0)
(0.014647 -0.145715 0)
(0.0270357 -0.13787 0)
(0.0367414 -0.11995 0)
(0.0445638 -0.0955159 0)
(0.0517922 -0.0680819 0)
(0.0603804 -0.0414166 0)
(0.073035 -0.0217518 0)
(0.0835763 -0.0206552 0)
(0.0846572 -0.0280608 0)
(0.078342 -0.0287379 0)
(0.0701332 -0.0258116 0)
(0.0632486 -0.0219797 0)
(0.0579106 -0.0174749 0)
(0.0544907 -0.0121951 0)
(0.0538497 -0.00653509 0)
(0.0557136 -0.00381346 0)
(0.0579905 -0.00290233 0)
(0.0602252 -0.00228234 0)
(0.062369 -0.000935634 0)
(0.064129 0.00176618 0)
(0.0643108 0.00598743 0)
(0.0622565 0.0119193 0)
(0.0573282 0.0201301 0)
(0.0509522 0.0347685 0)
(0.0410994 0.052296 0)
(0.064446 0.0722175 0)
(-0.0234517 0.101411 0)
(0.0465789 0.0312751 0)
(-0.0618316 -0.0341313 0)
(-0.272612 -0.0568414 0)
(0.729743 0.433647 0)
(-0.292015 0.191516 0)
(-0.00337292 0.126617 0)
(-0.0159848 0.0975843 0)
(-0.0118846 0.066835 0)
(-0.00619524 0.0237795 0)
(0.0225921 -0.0388188 0)
(0.0444078 -0.0944894 0)
(0.0599139 -0.132573 0)
(0.0692842 -0.151832 0)
(0.0731919 -0.154235 0)
(0.0730487 -0.143374 0)
(0.0703578 -0.123281 0)
(0.0666262 -0.0979477 0)
(0.0633362 -0.071033 0)
(0.0618849 -0.0461834 0)
(0.0631165 -0.0276311 0)
(0.0639188 -0.0201436 0)
(0.0606507 -0.0195325 0)
(0.0536769 -0.0194593 0)
(0.0457278 -0.0179304 0)
(0.0389698 -0.0156193 0)
(0.0339401 -0.0128729 0)
(0.0309379 -0.00975381 0)
(0.0302333 -0.00686897 0)
(0.0315073 -0.00580833 0)
(0.0337602 -0.00582185 0)
(0.0365742 -0.00570566 0)
(0.0398009 -0.00446854 0)
(0.0432093 -0.00121764 0)
(0.0465928 0.00453347 0)
(0.0486296 0.0125189 0)
(0.0494802 0.0227692 0)
(0.0504895 0.0366757 0)
(0.0497767 0.0539256 0)
(0.0731397 0.0766312 0)
(0.0526462 0.0947389 0)
(0.093695 0.0669166 0)
(0.11634 0.0442955 0)
(-0.128509 -0.00661998 0)
(0.781828 0.474925 0)
(-0.312934 0.176976 0)
(0.0234975 0.0771284 0)
(0.0427139 0.07375 0)
(0.0579114 0.0521275 0)
(0.0848036 0.000832172 0)
(0.118877 -0.0632197 0)
(0.138104 -0.11192 0)
(0.144458 -0.141293 0)
(0.140624 -0.152792 0)
(0.129349 -0.149388 0)
(0.113558 -0.134838 0)
(0.0958233 -0.113016 0)
(0.0783873 -0.0878192 0)
(0.0629322 -0.0624475 0)
(0.0506915 -0.039989 0)
(0.0420999 -0.023518 0)
(0.0356243 -0.0151104 0)
(0.0290975 -0.0125617 0)
(0.0220146 -0.0120011 0)
(0.0152742 -0.0112948 0)
(0.00978185 -0.0103271 0)
(0.00585069 -0.00924593 0)
(0.00366262 -0.00812381 0)
(0.00330856 -0.0073798 0)
(0.00444889 -0.00766183 0)
(0.0064607 -0.00849625 0)
(0.00907668 -0.00904759 0)
(0.0123422 -0.00847351 0)
(0.0164142 -0.00581584 0)
(0.0221274 2.57374e-05 0)
(0.0286384 0.00878158 0)
(0.0348307 0.0191652 0)
(0.0424718 0.0314604 0)
(0.0509241 0.0455206 0)
(0.0738167 0.0637595 0)
(0.0877124 0.0719288 0)
(0.119686 0.0512111 0)
(0.158818 0.0435831 0)
(-0.0356008 0.0928071 0)
(0.886529 0.477572 0)
(-0.0704857 0.156601 0)
(0.106134 0.00380924 0)
(0.169374 -0.0167595 0)
(0.182505 -0.0357775 0)
(0.218206 -0.0697725 0)
(0.239945 -0.102415 0)
(0.242376 -0.125681 0)
(0.228314 -0.137081 0)
(0.202703 -0.136854 0)
(0.170414 -0.12677 0)
(0.135674 -0.109463 0)
(0.101523 -0.0876252 0)
(0.0704521 -0.0645082 0)
(0.0439166 -0.0425195 0)
(0.0232595 -0.0242241 0)
(0.00894082 -0.0121017 0)
(-0.000386422 -0.00658484 0)
(-0.00697523 -0.00543889 0)
(-0.0124717 -0.00575038 0)
(-0.0171932 -0.00615739 0)
(-0.0209721 -0.00648881 0)
(-0.0237307 -0.00681552 0)
(-0.0254081 -0.00723331 0)
(-0.026047 -0.00795784 0)
(-0.0259521 -0.00916038 0)
(-0.0255066 -0.0105862 0)
(-0.0248486 -0.0118021 0)
(-0.0238394 -0.0123319 0)
(-0.0221001 -0.0116318 0)
(-0.0187636 -0.00899589 0)
(-0.0110953 -0.00362548 0)
(-0.000530504 0.00412796 0)
(0.010674 0.0122007 0)
(0.0232687 0.0186477 0)
(0.0441893 0.0254423 0)
(0.0641047 0.0199373 0)
(0.0833805 -0.00172627 0)
(0.14098 0.0483163 0)
(-0.431831 0.204831 0)
(1.03171 0.429917 0)
(0.496767 0.285029 0)
(0.503056 0.191313 0)
(0.511686 0.119774 0)
(0.487193 0.0682493 0)
(0.444265 0.0148323 0)
(0.394199 -0.0333619 0)
(0.34064 -0.0674003 0)
(0.283293 -0.0848521 0)
(0.224587 -0.0877873 0)
(0.167834 -0.0802509 0)
(0.11579 -0.0662432 0)
(0.0694794 -0.0485191 0)
(0.0307913 -0.0304765 0)
(-0.000735047 -0.0142941 0)
(-0.0215824 -0.00424359 0)
(-0.0326667 -0.000438858 0)
(-0.0387672 0.00016413 0)
(-0.0426668 -0.000664965 0)
(-0.0459252 -0.00184275 0)
(-0.0489544 -0.00296146 0)
(-0.0517042 -0.00402567 0)
(-0.0541613 -0.00508336 0)
(-0.0563239 -0.00618272 0)
(-0.0583149 -0.00739251 0)
(-0.060418 -0.00872027 0)
(-0.0629645 -0.00997581 0)
(-0.0662399 -0.0108193 0)
(-0.0705401 -0.010774 0)
(-0.0762627 -0.00920821 0)
(-0.0839054 -0.0053587 0)
(-0.0938903 0.00151126 0)
(-0.104402 0.0110777 0)
(-0.118009 0.0232712 0)
(-0.139581 0.0381586 0)
(-0.171295 0.055189 0)
(-0.217063 0.0714357 0)
(-0.273329 0.0847799 0)
(-0.349581 0.0934711 0)
(-0.616944 0.0908596 0)
(-0.147792 0.0826778 0)
(0.13467 0.0614026 0)
(0.217833 0.00555436 0)
(0.201347 -0.0291454 0)
(0.185575 -0.0433174 0)
(0.162982 -0.0478228 0)
(0.130434 -0.0460546 0)
(0.0918457 -0.0395492 0)
(0.0519888 -0.0297224 0)
(0.0140254 -0.0174055 0)
(-0.0231786 -0.00365396 0)
(-0.0468194 0.0040135 0)
(-0.0612049 0.00747137 0)
(-0.0681265 0.00793764 0)
(-0.0715124 0.00723458 0)
(-0.0737049 0.00636214 0)
(-0.0755579 0.00556284 0)
(-0.0774165 0.0049253 0)
(-0.0793833 0.00435911 0)
(-0.0815848 0.00369957 0)
(-0.0840605 0.00282601 0)
(-0.0867796 0.00181721 0)
(-0.0898207 0.000765002 0)
(-0.093302 -0.000184353 0)
(-0.097308 -0.000784667 0)
(-0.101848 -0.00072559 0)
(-0.106854 0.000336218 0)
(-0.112161 0.00275217 0)
(-0.117314 0.00692232 0)
(-0.121371 0.0134639 0)
(-0.124772 0.0234879 0)
(-0.127471 0.0375046 0)
(-0.129962 0.0551027 0)
(-0.132021 0.0739759 0)
(-0.130443 0.0871935 0)
(-0.11309 0.080412 0)
(-0.0736481 0.0261755 0)
(-0.197938 -0.176151 0)
(-0.0229704 0.23078 0)
(0.0635975 0.0992253 0)
(0.0374763 0.0187429 0)
(0.0253115 -0.00460568 0)
(0.0157757 -0.00987202 0)
(-0.00302087 -0.0111331 0)
(-0.028007 -0.00860984 0)
(-0.053663 -0.00401516 0)
(-0.0753328 0.000492423 0)
(-0.0902001 0.00349222 0)
(-0.0972735 0.00373993 0)
(-0.0997354 0.00151594 0)
(-0.0999915 -0.0014449 0)
(-0.0992691 -0.00480851 0)
(-0.098661 -0.00826804 0)
(-0.098563 -0.0116078 0)
(-0.0990074 -0.0147198 0)
(-0.0998912 -0.017405 0)
(-0.101061 -0.0194828 0)
(-0.102407 -0.0208693 0)
(-0.103905 -0.0215742 0)
(-0.105628 -0.0217117 0)
(-0.107566 -0.0213035 0)
(-0.109711 -0.0204823 0)
(-0.112006 -0.0192905 0)
(-0.114283 -0.0175448 0)
(-0.116235 -0.0149137 0)
(-0.117419 -0.0108802 0)
(-0.117366 -0.00522328 0)
(-0.115262 0.00244468 0)
(-0.109812 0.012817 0)
(-0.099692 0.0265316 0)
(-0.0843163 0.0434113 0)
(-0.064062 0.0604046 0)
(-0.0401466 0.0694654 0)
(0.0278376 0.0381015 0)
(0.147084 -0.0411549 0)
(-0.0494795 -0.0652177 0)
(-0.103061 -0.348512 0)
(-0.43908 -0.12034 0)
(-0.31061 0.0954512 0)
(-0.226649 -0.020299 0)
(-0.180328 -0.0412433 0)
(-0.166014 -0.0290063 0)
(-0.163628 -0.0160375 0)
(-0.164924 -0.00572968 0)
(-0.165414 0.00286812 0)
(-0.16312 0.0104089 0)
(-0.158374 0.0173405 0)
(-0.151301 0.0236579 0)
(-0.142827 0.029105 0)
(-0.134375 0.0337075 0)
(-0.126783 0.0380405 0)
(-0.120373 0.042349 0)
(-0.115143 0.0467522 0)
(-0.110909 0.051085 0)
(-0.107521 0.0549847 0)
(-0.104879 0.0580789 0)
(-0.102913 0.0601033 0)
(-0.101565 0.0609516 0)
(-0.100782 0.0606729 0)
(-0.100527 0.0594278 0)
(-0.100765 0.0573197 0)
(-0.101424 0.0546489 0)
(-0.102378 0.0517132 0)
(-0.103416 0.0486355 0)
(-0.104186 0.0455018 0)
(-0.104113 0.0423655 0)
(-0.102142 0.0399529 0)
(-0.0966776 0.0389413 0)
(-0.0855502 0.0400025 0)
(-0.0668239 0.0438898 0)
(-0.0405588 0.0510952 0)
(-0.00585372 0.0606782 0)
(0.0320171 0.0574394 0)
(0.0898904 0.0208377 0)
(0.119004 -0.0177783 0)
(-0.505053 0.0604465 0)
)
;

boundaryField
{
    floor
    {
        type            noSlip;
    }
    ceiling
    {
        type            noSlip;
    }
    sWall
    {
        type            noSlip;
    }
    nWall
    {
        type            noSlip;
    }
    sideWalls
    {
        type            empty;
    }
    glass1
    {
        type            noSlip;
    }
    glass2
    {
        type            noSlip;
    }
    sun
    {
        type            noSlip;
    }
    heatsource1
    {
        type            noSlip;
    }
    heatsource2
    {
        type            noSlip;
    }
    Table_master
    {
        type            noSlip;
    }
    Table_slave
    {
        type            noSlip;
    }
    inlet
    {
        type            fixedValue;
        value           uniform (0.3 0 0);
    }
    outlet
    {
        type            zeroGradient;
    }
}


// ************************************************************************* //
