// -*- C++ -*-
// File generated by PyFoam - sorry for the ugliness

FoamFile
{
 version 2.0;
 format ascii;
 class volScalarField;
 location "500";
 object T;
}

dimensions [ 0 0 0 1 0 0 0 ];

internalField nonuniform List<scalar> 459
(
  303.116
  302.862
  302.841
  302.832
  302.825
  302.817
  302.814
  302.827
  302.902
  302.948
  302.982
  303.007
  303.027
  303.047
  303.074
  304.151
  304.071
  304.007
  303.949
  303.927
  303.942
  303.98
  304.024
  304.073
  304.125
  304.18
  304.238
  304.297
  304.356
  304.4
  304.403
  304.355
  304.329
  304.369
  303.263
  302.885
  302.845
  302.83
  302.818
  302.799
  302.779
  302.795
  302.879
  302.955
  303.011
  303.046
  303.065
  303.077
  303.087
  303.102
  303.13
  304.184
  304.095
  303.941
  303.846
  303.829
  303.846
  303.884
  303.936
  304
  304.076
  304.157
  304.235
  304.308
  304.371
  304.413
  304.424
  304.403
  304.391
  304.415
  303.424
  302.932
  302.875
  302.862
  302.848
  302.805
  302.752
  302.763
  302.865
  302.973
  303.056
  303.105
  303.124
  303.13
  303.128
  303.132
  303.143
  304.174
  303.983
  303.808
  303.739
  303.744
  303.782
  303.822
  303.882
  303.968
  304.088
  304.231
  304.343
  304.407
  304.445
  304.465
  304.463
  304.449
  304.435
  304.448
  303.592
  303
  302.93
  302.928
  302.92
  302.832
  302.727
  302.735
  302.852
  302.999
  303.118
  303.186
  303.208
  303.206
  303.191
  303.178
  303.17
  303.194
  303.411
  303.452
  303.504
  303.583
  303.679
  303.77
  303.844
  303.901
  303.952
  304
  304.048
  304.095
  304.141
  304.185
  304.231
  304.335
  304.396
  304.427
  304.453
  303.763
  303.093
  303.013
  303.028
  303.021
  302.857
  302.704
  302.707
  302.848
  303.042
  303.204
  303.296
  303.323
  303.311
  303.281
  303.253
  303.236
  303.252
  303.318
  303.394
  303.505
  303.637
  303.771
  303.891
  303.991
  304.07
  304.138
  304.197
  304.247
  304.29
  304.326
  304.353
  304.371
  304.393
  304.417
  304.438
  304.457
  304.476
  304.508
  304.599
  303.927
  303.215
  303.134
  303.175
  303.095
  302.854
  302.67
  302.679
  302.86
  303.113
  303.324
  303.442
  303.475
  303.449
  303.403
  303.366
  303.351
  303.381
  303.46
  303.573
  303.713
  303.86
  303.996
  304.112
  304.206
  304.282
  304.342
  304.39
  304.43
  304.463
  304.488
  304.503
  304.506
  304.498
  304.49
  304.488
  304.493
  304.51
  304.532
  304.584
  304.1
  303.394
  303.328
  303.349
  303.122
  302.783
  302.587
  302.647
  302.905
  303.236
  303.499
  303.633
  303.662
  303.62
  303.569
  303.539
  303.547
  303.615
  303.733
  303.876
  304.023
  304.162
  304.282
  304.377
  304.453
  304.507
  304.546
  304.578
  304.605
  304.626
  304.641
  304.647
  304.641
  304.622
  304.601
  304.584
  304.58
  304.589
  304.591
  304.608
  304.326
  303.806
  303.723
  303.506
  302.999
  302.557
  302.431
  302.638
  303.028
  303.456
  303.756
  303.874
  303.874
  303.836
  303.804
  303.801
  303.846
  303.951
  304.092
  304.242
  304.375
  304.491
  304.581
  304.645
  304.686
  304.714
  304.736
  304.754
  304.77
  304.782
  304.789
  304.789
  304.781
  304.764
  304.746
  304.735
  304.734
  304.731
  304.717
  304.733
  304.659
  304.397
  304.166
  303.271
  302.335
  301.996
  302.224
  302.777
  303.345
  303.861
  304.081
  304.136
  304.131
  304.119
  304.123
  304.157
  304.231
  304.345
  304.477
  304.602
  304.706
  304.785
  304.839
  304.873
  304.894
  304.907
  304.917
  304.926
  304.932
  304.936
  304.937
  304.935
  304.93
  304.928
  304.94
  304.978
  305.048
  305.141
  305.25
  305.408
  295.424
  296.408
  298.868
  300.962
  302.497
  303.649
  304.108
  304.324
  304.403
  304.43
  304.443
  304.461
  304.496
  304.553
  304.634
  304.732
  304.831
  304.919
  304.987
  305.034
  305.064
  305.082
  305.091
  305.096
  305.098
  305.098
  305.095
  305.09
  305.081
  305.069
  305.057
  305.05
  305.056
  305.082
  305.136
  305.216
  305.363
  305.525
  296.346
  299.155
  301.737
  303.233
  304.02
  304.43
  304.602
  304.683
  304.728
  304.76
  304.791
  304.828
  304.874
  304.932
  304.998
  305.067
  305.132
  305.184
  305.223
  305.248
  305.262
  305.269
  305.27
  305.268
  305.264
  305.256
  305.246
  305.232
  305.216
  305.197
  305.179
  305.164
  305.157
  305.164
  305.199
  305.276
  305.399
  305.519
  303.826
  301.89
  301.466
  303.548
  304.392
  304.717
  304.88
  304.979
  305.042
  305.088
  305.128
  305.163
  305.198
  305.233
  305.269
  305.306
  305.343
  305.377
  305.406
  305.427
  305.44
  305.447
  305.448
  305.445
  305.438
  305.43
  305.418
  305.405
  305.39
  305.373
  305.354
  305.335
  305.317
  305.301
  305.29
  305.293
  305.334
  305.443
  305.616
  305.9
)
;

boundaryField
{
  floor
  {
    type wallHeatTransfer;
    Tinf uniform 305.2;
    alphaWall uniform 0.24;
    value nonuniform List<scalar> 29
(
  303.286
  304.336
  304.252
  304.182
  304.118
  304.091
  304.104
  304.147
  304.197
  304.25
  304.304
  304.36
  304.416
  304.474
  304.532
  304.582
  304.605
  304.588
  304.554
  304.57
  304.57
  304.581
  304.607
  304.604
  303.286
  304.336
  304.367
  304.357
  303.386
)
;
  }
  ceiling
  {
    type wallHeatTransfer;
    Tinf uniform 303.2;
    alphaWall uniform 0.24;
    value nonuniform List<scalar> 43
(
  303.783
  301.976
  301.577
  303.528
  304.317
  304.615
  304.759
  304.843
  304.895
  304.933
  304.967
  304.999
  305.031
  305.063
  305.097
  305.131
  305.165
  305.195
  305.219
  305.236
  305.245
  305.249
  305.247
  305.242
  305.234
  305.224
  305.212
  305.197
  305.181
  305.162
  305.143
  305.122
  305.102
  305.084
  305.072
  305.071
  305.104
  305.2
  305.361
  305.625
  304.593
  304.349
  296.807
)
;
  }
  sWall
  {
    type wallHeatTransfer;
    Tinf uniform 315.2;
    alphaWall uniform 0.36;
    value uniform 304.966;
  }
  nWall
  {
    type wallHeatTransfer;
    Tinf uniform 307.2;
    alphaWall uniform 0.36;
    value nonuniform List<scalar> 6
(
  305.204
  305.075
  305.02
  305.758
  305.733
  306.09
)
;
  }
  sideWalls
  {
    type empty;
  }
  glass1
  {
    type wallHeatTransfer;
    Tinf uniform 315.2;
    alphaWall uniform 4.3;
    value nonuniform List<scalar> 9
(
  310.821
  310.281
  309.934
  309.668
  309.448
  309.259
  309.171
  309.276
  309.533
)
;
  }
  glass2
  {
    type wallHeatTransfer;
    Tinf uniform 307.2;
    alphaWall uniform 4.3;
    value nonuniform List<scalar> 2
(
  306.432
  306.607
)
;
  }
  sun
  {
    type wallHeatTransfer;
    Tinf uniform 305.2;
    alphaWall uniform 0.24;
    value nonuniform List<scalar> 14
(
  303.299
  303.05
  303.025
  303.008
  302.992
  302.978
  302.97
  302.981
  303.056
  303.107
  303.147
  303.181
  303.211
  303.243
)
;
  }
  heatsource1
  {
    type fixedGradient;
    gradient uniform 0;
  }
  heatsource2
  {
    type fixedGradient;
    gradient uniform 0;
  }
  Table_master
  {
    type zeroGradient;
  }
  Table_slave
  {
    type zeroGradient;
  }
  inlet
  {
    type fixedValue;
    value uniform 293.15;
  }
  outlet
  {
    type zeroGradient;
  }
} 	// ************************************************************************* //

