/*--------------------------------*- C++ -*----------------------------------*\
  =========                 |
  \\      /  F ield         | OpenFOAM: The Open Source CFD Toolbox
   \\    /   O peration     | Website:  https://openfoam.org
    \\  /    A nd           | Version:  6
     \\/     M anipulation  |
\*---------------------------------------------------------------------------*/
FoamFile
{
    version     2.0;
    format      ascii;
    class       volScalarField;
    location    "1000";
    object      nut;
}
// * * * * * * * * * * * * * * * * * * * * * * * * * * * * * * * * * * * * * //

dimensions      [0 2 -1 0 0 0 0];

internalField   nonuniform List<scalar> 
459
(
0.00106451
0.00116036
0.00118228
0.00123863
0.00129084
0.00134008
0.00138899
0.00143571
0.0014685
0.00148108
0.00146744
0.00142333
0.00134677
0.00124004
0.00111497
0.000460499
0.000548467
0.00061924
0.000625153
0.000606687
0.000580476
0.000544209
0.000507317
0.000473817
0.000444202
0.00041809
0.000394993
0.000374486
0.000356194
0.00033945
0.000323423
0.000307023
0.000297588
0.000273299
0.0014496
0.00342951
0.00324354
0.00376134
0.00426912
0.00477876
0.00522237
0.00556812
0.00588976
0.00615751
0.00633465
0.00638346
0.00625846
0.00585151
0.0047062
0.00113465
0.000703378
0.000480062
0.00100788
0.00140935
0.00171208
0.00189046
0.00189783
0.00149871
0.00128547
0.00113405
0.0010185
0.00092721
0.000853257
0.000791026
0.000733335
0.000677715
0.000628364
0.000584826
0.000700989
0.000365958
0.0017704
0.00465296
0.00395399
0.00492097
0.00536581
0.00569096
0.00594661
0.00617281
0.00643498
0.00671835
0.00698982
0.00719927
0.00730137
0.0072207
0.00673523
0.00516925
0.00116808
0.000900002
0.0013079
0.00169982
0.0020803
0.00236268
0.00233487
0.000775865
0.000685683
0.000612475
0.000553078
0.000504549
0.00046454
0.000431303
0.000403701
0.0003812
0.000410047
0.000470561
0.000794576
0.000429383
0.00207907
0.00595666
0.00390423
0.00513651
0.00547032
0.00555364
0.00562617
0.00575812
0.00597976
0.00627482
0.0066127
0.00692228
0.00715479
0.00724522
0.00714299
0.00658543
0.00442156
0.00136601
0.00163015
0.00207005
0.00255164
0.00298016
0.00327475
0.00312175
0.000879062
0.000802871
0.000748299
0.000706801
0.000671614
0.000638951
0.000607573
0.000574562
0.000536238
0.000503754
0.000508876
0.000930751
0.000479478
0.00239408
0.00765946
0.00422364
0.00489933
0.00535564
0.00531001
0.0052726
0.00537594
0.00558417
0.0058852
0.00625806
0.0065983
0.00683639
0.00692845
0.00687512
0.00665101
0.00608297
0.00514534
0.00481547
0.00474905
0.0047801
0.00482136
0.00481663
0.00465881
0.00396398
0.00362058
0.00342042
0.00326662
0.00310535
0.00287567
0.00255797
0.00216651
0.00172932
0.00129545
0.000960482
0.000945249
0.000655977
0.000595935
0.000717451
0.000805839
0.00272879
0.00952855
0.00581687
0.00474323
0.00518409
0.00532963
0.00519751
0.0052935
0.00546556
0.00574397
0.00610596
0.00646018
0.00669663
0.0067494
0.00663304
0.00643027
0.00623263
0.00609706
0.00608743
0.00609711
0.0060566
0.00595761
0.00580432
0.00558549
0.00525987
0.00496595
0.00470396
0.00445171
0.00419511
0.00392159
0.00358092
0.00315817
0.00265326
0.00209509
0.00159459
0.00116874
0.000911925
0.000781906
0.00110712
0.000842785
0.0030432
0.0108801
0.00835001
0.00603499
0.00563232
0.00566563
0.00552893
0.00545158
0.00553382
0.00579749
0.00617836
0.00654982
0.00677469
0.00677736
0.00659208
0.00636879
0.00630463
0.00646013
0.00665627
0.00671231
0.0066029
0.00637685
0.00607631
0.00572694
0.00535248
0.00500191
0.00468075
0.00438222
0.00410633
0.00385912
0.0036427
0.00338244
0.00301297
0.00254987
0.00209936
0.00167173
0.00137421
0.00126516
0.00125212
0.00095471
0.00311132
0.00987703
0.00856847
0.0075917
0.00699523
0.00633647
0.00578244
0.00554885
0.00565168
0.00600672
0.00646635
0.00685686
0.0070266
0.00692512
0.00664573
0.00642435
0.00649112
0.00676061
0.00686864
0.00672786
0.00641037
0.00598542
0.00550946
0.00503591
0.00461051
0.00425284
0.00395401
0.00370557
0.00350819
0.0033669
0.00328673
0.00325369
0.00313764
0.00286374
0.00261818
0.00249289
0.00256649
0.00283524
0.00352796
0.00145255
0.0030366
0.00362607
0.00409523
0.004243
0.00425577
0.00435374
0.00463743
0.00513421
0.00579996
0.00650325
0.00707793
0.00737994
0.00731354
0.00694393
0.0065439
0.00645442
0.00649852
0.00648253
0.00627812
0.00589111
0.00538182
0.00482621
0.00429651
0.00384585
0.00349097
0.00321761
0.003003
0.00283082
0.00269027
0.00257204
0.00246727
0.00236941
0.0022939
0.00223892
0.00221709
0.00222384
0.00220897
0.002127
0.00198591
0.00135035
0.00182865
0.00325959
0.00451121
0.0055539
0.00640297
0.00716733
0.00776528
0.0080681
0.00803232
0.0076762
0.00705064
0.00633947
0.00589769
0.00572627
0.00554895
0.00523768
0.00479547
0.0042821
0.00376845
0.00330964
0.00294008
0.00266662
0.002471
0.00233136
0.00223157
0.0021618
0.00211618
0.0020914
0.00208752
0.00210812
0.00213971
0.00217953
0.00222335
0.00225469
0.00224579
0.00218053
0.00192917
0.00107851
0.00212893
0.00455945
0.00624678
0.00704259
0.00757967
0.00795394
0.00793205
0.00743429
0.00666707
0.00584264
0.00514814
0.0046441
0.00430785
0.00401242
0.00366323
0.00327145
0.00288247
0.00254115
0.00227401
0.00208362
0.00195566
0.00187029
0.00181524
0.0017867
0.00178126
0.00179529
0.00182568
0.00186857
0.00192831
0.00200224
0.00208797
0.0021802
0.00226584
0.00232437
0.00234148
0.00231673
0.00166766
0.00110288
0.00183114
0.00192822
0.00200004
0.00206935
0.00187686
0.00172423
0.00165121
0.00157688
0.00146864
0.00133522
0.00118298
0.00103204
0.000898575
0.000792822
0.000716347
0.000662372
0.000623419
0.000595133
0.000575736
0.000564472
0.000560493
0.00056274
0.000570249
0.000582391
0.000598984
0.000619481
0.000643754
0.000672083
0.000705011
0.000743528
0.000787187
0.000836019
0.000890449
0.000950804
0.00101659
0.00108696
0.00110138
0.00098422
0.000934006
0.00110516
)
;

boundaryField
{
    floor
    {
        type            nutkWallFunction;
        Cmu             0.09;
        kappa           0.41;
        E               9.8;
        value           nonuniform List<scalar> 
29
(
0.000134165
5.46358e-05
6.58696e-05
7.47456e-05
7.54813e-05
7.31806e-05
6.99002e-05
6.53312e-05
6.06448e-05
5.63526e-05
5.25265e-05
4.91264e-05
4.60963e-05
4.33871e-05
4.09544e-05
3.87133e-05
3.65549e-05
3.43316e-05
3.30454e-05
2.97088e-05
2.97087e-05
4.22544e-05
5.05994e-05
5.70798e-05
0.000134165
5.46357e-05
5.71552e-05
0.000108887
0.000162997
)
;
    }
    ceiling
    {
        type            nutkWallFunction;
        Cmu             0.09;
        kappa           0.41;
        E               9.8;
        value           nonuniform List<scalar> 
43
(
0.0002148
0.000225433
0.000233265
0.000240886
0.000219928
0.000203129
0.000195036
0.000186751
0.000174607
0.000159496
0.000142043
0.000124487
0.000108717
9.60278e-05
8.67282e-05
8.00938e-05
7.52657e-05
7.17369e-05
6.93054e-05
6.78887e-05
6.73876e-05
6.76706e-05
6.86156e-05
7.01406e-05
7.22184e-05
7.47754e-05
7.77904e-05
8.1292e-05
8.53398e-05
9.00463e-05
9.53464e-05
0.000101234
0.000107749
0.000114919
0.000122675
0.000130909
0.000132588
0.000118867
0.00011293
0.00013303
0.00034394
0.000404869
0.000247138
)
;
    }
    sWall
    {
        type            nutkWallFunction;
        Cmu             0.09;
        kappa           0.41;
        E               9.8;
        value           uniform 0.000214859;
    }
    nWall
    {
        type            nutkWallFunction;
        Cmu             0.09;
        kappa           0.41;
        E               9.8;
        value           nonuniform List<scalar> 6(9.76008e-05 0.000102048 0.000115385 0.000129932 0.000132773 0.000133038);
    }
    sideWalls
    {
        type            empty;
    }
    glass1
    {
        type            nutkWallFunction;
        Cmu             0.09;
        kappa           0.41;
        E               9.8;
        value           nonuniform List<scalar> 9(0.000128387 0.000172679 0.000208556 0.000242406 0.000276398 0.000312002 0.000345031 0.000352149 0.000344368);
    }
    glass2
    {
        type            nutkWallFunction;
        Cmu             0.09;
        kappa           0.41;
        E               9.8;
        value           nonuniform List<scalar> 2(0.000172869 0.000161284);
    }
    sun
    {
        type            nutkWallFunction;
        Cmu             0.09;
        kappa           0.41;
        E               9.8;
        value           nonuniform List<scalar> 
14
(
0.00012829
0.00013943
0.000141963
0.000148451
0.000154433
0.000160049
0.000165606
0.000170894
0.000174593
0.00017601
0.000174473
0.000169493
0.000160809
0.000148612
)
;
    }
    heatsource1
    {
        type            nutkWallFunction;
        Cmu             0.09;
        kappa           0.41;
        E               9.8;
        value           nonuniform List<scalar> 3(7.18388e-05 8.68636e-05 9.75999e-05);
    }
    heatsource2
    {
        type            nutkWallFunction;
        Cmu             0.09;
        kappa           0.41;
        E               9.8;
        value           nonuniform List<scalar> 4(0.000136446 8.51411e-05 8.51411e-05 0.000140318);
    }
    Table_master
    {
        type            nutkWallFunction;
        Cmu             0.09;
        kappa           0.41;
        E               9.8;
        value           nonuniform List<scalar> 9(9.39753e-05 8.2968e-05 7.39052e-05 6.64557e-05 6.02966e-05 5.51636e-05 5.08575e-05 4.72497e-05 4.42855e-05);
    }
    Table_slave
    {
        type            nutkWallFunction;
        Cmu             0.09;
        kappa           0.41;
        E               9.8;
        value           nonuniform List<scalar> 9(0.000106388 9.72415e-05 9.06277e-05 8.55602e-05 8.12355e-05 7.71966e-05 7.32933e-05 6.91602e-05 6.43254e-05);
    }
    inlet
    {
        type            calculated;
        value           uniform 0.000100623;
    }
    outlet
    {
        type            calculated;
        value           nonuniform List<scalar> 2(0.00183114 0.00192822);
    }
}


// ************************************************************************* //
