/*--------------------------------*- C++ -*----------------------------------*\
  =========                 |
  \\      /  F ield         | OpenFOAM: The Open Source CFD Toolbox
   \\    /   O peration     | Website:  https://openfoam.org
    \\  /    A nd           | Version:  6
     \\/     M anipulation  |
\*---------------------------------------------------------------------------*/
FoamFile
{
    version     2.0;
    format      ascii;
    class       volScalarField;
    location    "900";
    object      epsilon;
}
// * * * * * * * * * * * * * * * * * * * * * * * * * * * * * * * * * * * * * //

dimensions      [0 2 -3 0 0 0 0];

internalField   nonuniform List<scalar> 
459
(
0.000498896
0.00065522
0.000701168
0.000810626
0.000923748
0.00104306
0.0011774
0.0012924
0.0013608
0.00135945
0.00127694
0.00111542
0.00088326
0.000565207
0.000267812
4.26209e-05
7.07474e-05
0.000106426
0.000120977
0.000116248
0.000104802
8.62401e-05
6.9214e-05
5.58416e-05
4.56163e-05
3.77569e-05
3.16476e-05
2.68283e-05
2.2989e-05
1.98274e-05
1.70998e-05
1.45874e-05
1.28986e-05
9.7536e-06
0.00121763
0.00171099
0.000613743
0.000600009
0.000635831
0.000699541
0.000796529
0.000901979
0.000980279
0.0010008
0.000952501
0.000843757
0.000697392
0.000525322
0.000403414
0.000545246
0.000195604
4.33383e-05
9.50217e-05
0.000117893
0.000117834
0.000108127
9.66711e-05
9.32219e-05
7.52447e-05
5.8758e-05
4.58356e-05
3.60429e-05
2.86653e-05
2.30741e-05
1.88446e-05
1.57e-05
1.37122e-05
1.27609e-05
2.77318e-05
1.9994e-05
0.00216569
0.0040328
0.000739005
0.000576146
0.000619117
0.000719218
0.000863668
0.00101275
0.00111367
0.00113804
0.00108587
0.000969629
0.000818098
0.000654293
0.000525654
0.000464223
0.000598044
0.000213455
0.00019735
0.000175019
0.000152534
0.000131223
0.000119546
0.000238752
0.000159276
0.000109981
7.87573e-05
5.83608e-05
4.46066e-05
3.50657e-05
2.83663e-05
2.37374e-05
1.79407e-05
1.50566e-05
5.14773e-05
3.06019e-05
0.00343322
0.00821458
0.00112798
0.000590144
0.000626011
0.000775467
0.00100461
0.00120341
0.00130964
0.00131856
0.00124695
0.00110389
0.000927716
0.000753134
0.000610205
0.000523264
0.000509146
0.000911817
0.000551298
0.000357187
0.000256184
0.000197122
0.000158948
0.000143405
0.000350796
0.00026219
0.000208399
0.000172012
0.000144064
0.000121596
0.000102098
8.39722e-05
6.59443e-05
3.75205e-05
2.3866e-05
8.87827e-05
4.11334e-05
0.00514725
0.0145507
0.00216611
0.000701014
0.000673477
0.000921195
0.00131132
0.00153315
0.00160559
0.00157141
0.00145639
0.00127363
0.00105035
0.0008228
0.000628535
0.000489912
0.000414741
0.000393306
0.000338207
0.000284752
0.000239558
0.000200704
0.000167231
0.000142009
0.000137687
0.000126786
0.000115785
0.000104856
9.36482e-05
8.24556e-05
7.1485e-05
6.11334e-05
5.1552e-05
3.93977e-05
2.91789e-05
6.36044e-05
4.68511e-05
7.62062e-05
0.000132927
0.00018954
0.00751156
0.0216388
0.00482043
0.001302
0.00101179
0.00155468
0.00196451
0.00207713
0.00204471
0.00193335
0.00175198
0.00150128
0.00120375
0.000902764
0.000648173
0.000468943
0.000367457
0.000323165
0.000296852
0.000268932
0.000235754
0.000200764
0.000167951
0.000141355
0.000125216
0.000115938
0.000109379
0.000102777
9.48928e-05
8.49872e-05
7.34291e-05
6.19692e-05
5.16702e-05
4.22952e-05
3.62418e-05
4.80131e-05
5.00111e-05
6.04932e-05
0.000246461
0.000219513
0.0102463
0.0259301
0.00989944
0.00411299
0.00305629
0.00327319
0.0031625
0.00293083
0.00268364
0.00243049
0.00213795
0.00178338
0.00138467
0.000991759
0.000670876
0.000457494
0.000346502
0.000301951
0.000278416
0.000251955
0.00021935
0.000185646
0.00015578
0.000133382
0.000120613
0.000115518
0.000113943
0.000113303
0.000112299
0.000109433
0.000101154
9.02517e-05
7.97092e-05
7.07721e-05
6.80721e-05
7.77959e-05
0.000101827
0.00016655
0.000368818
0.00035741
0.0108759
0.0281639
0.015609
0.0103827
0.0078913
0.00604928
0.00481834
0.00401991
0.0034787
0.00304397
0.00259899
0.00209472
0.00155559
0.00103991
0.000647075
0.000412755
0.000304786
0.000265427
0.000240966
0.000213552
0.000183587
0.00015625
0.00013501
0.000121616
0.00011623
0.000117237
0.000122631
0.000131623
0.000144286
0.000160616
0.000179564
0.000193442
0.000208184
0.000237029
0.000293094
0.000452126
0.000845091
0.00158238
0.00438028
0.00124763
0.0100838
0.0169479
0.0135428
0.0103115
0.0080063
0.0064684
0.00545206
0.00476715
0.00423646
0.00369979
0.00305084
0.00230492
0.00155967
0.000864138
0.000467707
0.000307645
0.000241536
0.000209237
0.000185131
0.000162113
0.000140962
0.000123665
0.000111909
0.000106429
0.00010698
0.000112882
0.000123837
0.000140463
0.000164242
0.000197413
0.000243021
0.000305625
0.000391782
0.00051775
0.000697282
0.000932496
0.00119261
0.00141243
0.00158733
0.00100015
0.00456274
0.00618543
0.00680952
0.00645147
0.00593645
0.00536611
0.00463167
0.00369522
0.00248882
0.00141198
0.000788851
0.000450525
0.000285438
0.000209651
0.000171998
0.000148334
0.000129301
0.000112981
0.000100035
9.11664e-05
8.64654e-05
8.56474e-05
8.84203e-05
9.4668e-05
0.000104769
0.000119662
0.000140863
0.000170645
0.0002125
0.000271379
0.000353038
0.000464446
0.000607765
0.000768302
0.000904269
0.000965993
0.000894588
0.000563605
0.00313138
0.00673966
0.00687311
0.00547328
0.00448455
0.0035432
0.00254463
0.0016845
0.00104755
0.000626376
0.00038304
0.000254268
0.00018887
0.000154781
0.000134992
0.000121591
0.000111489
0.000103849
9.85611e-05
9.55582e-05
9.46744e-05
9.57449e-05
9.87505e-05
0.000103947
0.000111934
0.000123757
0.000140829
0.000165193
0.000199829
0.000248783
0.000317215
0.000409757
0.000525638
0.000658786
0.000747183
0.000832388
0.000814538
0.00059401
0.00205676
0.00239813
0.00266639
0.00301416
0.00236152
0.00198383
0.00176839
0.00150035
0.00117685
0.000873681
0.000629596
0.000453768
0.000339103
0.000268009
0.000221829
0.000188573
0.000162144
0.000139977
0.00012157
0.000107203
9.70006e-05
9.06612e-05
8.76771e-05
8.76424e-05
9.04438e-05
9.62337e-05
0.000105509
0.000118684
0.00013663
0.000160751
0.000192131
0.000232554
0.000284569
0.000351314
0.000434922
0.000558932
0.000584064
0.00053024
0.000439182
0.000349049
)
;

boundaryField
{
    floor
    {
        Cmu             0.09;
        kappa           0.41;
        E               9.8;
        type            epsilonWallFunction;
        value           nonuniform List<scalar> 
29
(
0.000267812
4.26209e-05
7.07474e-05
0.000106426
0.000120977
0.000116248
0.000104802
8.62401e-05
6.9214e-05
5.58416e-05
4.56163e-05
3.77569e-05
3.16476e-05
2.68283e-05
2.2989e-05
1.98274e-05
1.70998e-05
1.45874e-05
1.28986e-05
9.7536e-06
9.7536e-06
1.9994e-05
3.06019e-05
4.11334e-05
0.000267812
4.26209e-05
4.33383e-05
0.000213455
0.000911817
)
;
    }
    ceiling
    {
        Cmu             0.09;
        kappa           0.41;
        E               9.8;
        type            epsilonWallFunction;
        value           nonuniform List<scalar> 
43
(
0.00205676
0.00239813
0.00266639
0.00301416
0.00236152
0.00198383
0.00176839
0.00150035
0.00117685
0.000873681
0.000629596
0.000453768
0.000339103
0.000268009
0.000221829
0.000188573
0.000162144
0.000139977
0.00012157
0.000107203
9.70006e-05
9.06612e-05
8.76771e-05
8.76424e-05
9.04438e-05
9.62337e-05
0.000105509
0.000118684
0.00013663
0.000160751
0.000192131
0.000232554
0.000284569
0.000351314
0.000434922
0.000558932
0.000584064
0.00053024
0.000439182
0.000349049
0.0100838
0.0169479
0.00313138
)
;
    }
    sWall
    {
        Cmu             0.09;
        kappa           0.41;
        E               9.8;
        type            epsilonWallFunction;
        value           uniform 0.00205676;
    }
    nWall
    {
        Cmu             0.09;
        kappa           0.41;
        E               9.8;
        type            epsilonWallFunction;
        value           nonuniform List<scalar> 6(0.00018954 0.000219513 0.00035741 0.000563605 0.00059401 0.000349049);
    }
    sideWalls
    {
        type            empty;
    }
    glass1
    {
        Cmu             0.09;
        kappa           0.41;
        E               9.8;
        type            epsilonWallFunction;
        value           nonuniform List<scalar> 9(0.000498896 0.00121763 0.00216569 0.00343322 0.00514725 0.00751156 0.0102463 0.0108759 0.0100838);
    }
    glass2
    {
        Cmu             0.09;
        kappa           0.41;
        E               9.8;
        type            epsilonWallFunction;
        value           nonuniform List<scalar> 2(0.00124763 0.00100015);
    }
    sun
    {
        Cmu             0.09;
        kappa           0.41;
        E               9.8;
        type            epsilonWallFunction;
        value           nonuniform List<scalar> 
14
(
0.000498896
0.00065522
0.000701168
0.000810626
0.000923748
0.00104306
0.0011774
0.0012924
0.0013608
0.00135945
0.00127694
0.00111542
0.00088326
0.000565207
)
;
    }
    heatsource1
    {
        Cmu             0.09;
        kappa           0.41;
        E               9.8;
        type            epsilonWallFunction;
        value           nonuniform List<scalar> 3(7.62062e-05 0.000132927 0.00018954);
    }
    heatsource2
    {
        Cmu             0.09;
        kappa           0.41;
        E               9.8;
        type            epsilonWallFunction;
        value           nonuniform List<scalar> 4(0.000545246 0.000195604 0.000195604 0.000598044);
    }
    Table_master
    {
        Cmu             0.09;
        kappa           0.41;
        E               9.8;
        type            epsilonWallFunction;
        value           nonuniform List<scalar> 9(0.000238752 0.000159276 0.000109981 7.87573e-05 5.83608e-05 4.46066e-05 3.50657e-05 2.83663e-05 2.37374e-05);
    }
    Table_slave
    {
        Cmu             0.09;
        kappa           0.41;
        E               9.8;
        type            epsilonWallFunction;
        value           nonuniform List<scalar> 9(0.000350796 0.00026219 0.000208399 0.000172012 0.000144064 0.000121596 0.000102098 8.39722e-05 6.59443e-05);
    }
    inlet
    {
        type            turbulentMixingLengthDissipationRateInlet;
        mixingLength    0.01;
        phi             phi;
        k               k;
        value           uniform 0.000101881;
    }
    outlet
    {
        type            zeroGradient;
    }
}


// ************************************************************************* //
