/*--------------------------------*- C++ -*----------------------------------*\
  =========                 |
  \\      /  F ield         | OpenFOAM: The Open Source CFD Toolbox
   \\    /   O peration     | Website:  https://openfoam.org
    \\  /    A nd           | Version:  6
     \\/     M anipulation  |
\*---------------------------------------------------------------------------*/
FoamFile
{
    version     2.0;
    format      ascii;
    class       volScalarField;
    location    "900";
    object      nut;
}
// * * * * * * * * * * * * * * * * * * * * * * * * * * * * * * * * * * * * * //

dimensions      [0 2 -1 0 0 0 0];

internalField   nonuniform List<scalar> 
459
(
0.00112126
0.00122791
0.00125596
0.00131818
0.00137685
0.00143374
0.00149282
0.00153992
0.00156663
0.00156612
0.00153377
0.00146618
0.00135646
0.00116899
0.000911303
0.000493825
0.000584705
0.000669956
0.000699185
0.000689947
0.000666514
0.000624582
0.000580433
0.000540349
0.000505121
0.000474265
0.000447167
0.000423208
0.000401972
0.000382629
0.000364211
0.000345421
0.000331543
0.000302052
0.00150966
0.00370695
0.00355943
0.00413569
0.00471027
0.00526009
0.00567145
0.00604094
0.00636186
0.00659993
0.00672567
0.00671563
0.00653402
0.00607395
0.00485698
0.00115498
0.00082063
0.00049659
0.00116662
0.00172039
0.0021687
0.00244753
0.00244414
0.00181343
0.00152175
0.00132476
0.00117877
0.00106587
0.000975885
0.000902208
0.000833572
0.00076556
0.000703515
0.000650745
0.000759048
0.000383712
0.00182911
0.00502055
0.00437349
0.00531299
0.00575477
0.00608422
0.0063413
0.00661661
0.0069208
0.00722985
0.00750321
0.00770343
0.00776635
0.00759007
0.00694347
0.00506445
0.00119113
0.000844959
0.0013827
0.00197858
0.00260061
0.00306692
0.00299669
0.000877011
0.000766316
0.000677328
0.000605981
0.000548367
0.000501378
0.00046273
0.000431156
0.000406298
0.000445692
0.000524392
0.000873685
0.000442209
0.00213276
0.00633234
0.00437011
0.0055109
0.00577365
0.00586659
0.00599096
0.00619761
0.0064881
0.00684482
0.00721008
0.00753063
0.00771678
0.00774461
0.00754241
0.00673821
0.00401123
0.00137094
0.00166599
0.00224716
0.00297876
0.00368204
0.0041663
0.00391847
0.000997028
0.000904821
0.000838154
0.000786226
0.000741108
0.000700387
0.000660754
0.000619081
0.000571169
0.000529956
0.000547758
0.00102618
0.000488029
0.002441
0.0080256
0.00472618
0.00536071
0.00566897
0.0056433
0.00569104
0.00585938
0.00613464
0.00651548
0.0069126
0.00723812
0.00742465
0.00746067
0.00736975
0.0070976
0.00633774
0.00559227
0.00542293
0.00554826
0.00577389
0.00596261
0.00601984
0.00578387
0.00476182
0.00425218
0.00394332
0.00370369
0.00346286
0.00313349
0.00272454
0.00225488
0.00175599
0.00128807
0.000959753
0.00101851
0.000662457
0.000599394
0.000721528
0.000812111
0.00276877
0.00989457
0.00638177
0.00541428
0.00577742
0.00571892
0.0057177
0.00580479
0.00602897
0.00639444
0.0068097
0.00714347
0.0073002
0.00727343
0.00715414
0.00706733
0.00706367
0.00717109
0.00736268
0.00751094
0.00754412
0.00745273
0.00724181
0.00689617
0.00636866
0.00589383
0.00548525
0.00511031
0.00474287
0.00434644
0.00388184
0.00333967
0.0027285
0.00209732
0.00157725
0.00120871
0.000932741
0.000804101
0.0011434
0.000852842
0.00307067
0.0112108
0.00890059
0.00685666
0.00659791
0.00626006
0.00597088
0.00590308
0.00609549
0.00648882
0.00694111
0.00728336
0.00740513
0.00731935
0.00718711
0.00725353
0.00763256
0.00811623
0.00843473
0.0085009
0.00834669
0.00803492
0.00761231
0.00710469
0.0065375
0.00599461
0.00550159
0.0050547
0.00465357
0.00430471
0.00400751
0.00363367
0.00315899
0.00260963
0.00211014
0.00168678
0.00138927
0.00133005
0.00137797
0.00100331
0.00313232
0.00997608
0.00878032
0.00796831
0.00716558
0.00636823
0.00593126
0.00592101
0.0062626
0.0067989
0.00732283
0.00764296
0.00767812
0.00751576
0.00743221
0.00774221
0.00834071
0.00872028
0.00878426
0.00858825
0.00818982
0.00764703
0.00700788
0.00632388
0.0056603
0.00507541
0.00458413
0.00418484
0.00387869
0.00366776
0.00354913
0.00348388
0.00328424
0.00296368
0.00270866
0.00262009
0.00281001
0.00329895
0.00395921
0.00152198
0.00305435
0.00363148
0.00406974
0.00413615
0.00422407
0.00451934
0.00507572
0.00586258
0.00674763
0.00753696
0.00803469
0.00811904
0.00786925
0.00764204
0.00780533
0.00811825
0.00833785
0.00833188
0.00808536
0.00763574
0.00702964
0.00631327
0.00555039
0.00482447
0.00420519
0.00371864
0.00335091
0.00307752
0.0028752
0.00272232
0.00260008
0.00250097
0.00242983
0.00238238
0.00236845
0.00237417
0.00233935
0.00221761
0.00205538
0.00141385
0.00170125
0.00312587
0.00498145
0.00646852
0.00761698
0.00846179
0.00892148
0.00898006
0.0086666
0.00807914
0.00749909
0.00724405
0.00730424
0.00734696
0.00721357
0.00688455
0.00638082
0.00574505
0.00504212
0.00435136
0.00374201
0.00325261
0.00288768
0.00263241
0.0024602
0.00234926
0.00228404
0.00225389
0.00225517
0.00228063
0.00231761
0.00236006
0.00239678
0.00240125
0.00233592
0.00220016
0.00198551
0.0011678
0.00206838
0.00483487
0.00697444
0.0079933
0.00857704
0.00855053
0.0080817
0.00738502
0.00667333
0.00611383
0.00574051
0.00553298
0.00537025
0.00514496
0.00483431
0.0044403
0.0039831
0.0035095
0.00307699
0.00272597
0.00246645
0.00228629
0.00216649
0.00208695
0.00203839
0.00202017
0.00202982
0.00206377
0.0021216
0.00220047
0.00229604
0.00239838
0.00248811
0.00255355
0.00252621
0.00254562
0.00250531
0.00118844
0.00179794
0.00189237
0.00196045
0.00204221
0.00188266
0.00177639
0.00170962
0.00161848
0.00149263
0.00135154
0.0012117
0.00108638
0.000985832
0.00091145
0.000855752
0.000810642
0.000770841
0.000733974
0.000700278
0.00067153
0.000649517
0.000635055
0.000628018
0.000627945
0.000634576
0.000647848
0.000668036
0.000694765
0.000728158
0.000768713
0.000815792
0.000869406
0.000929917
0.000997578
0.00107115
0.00116458
0.00118178
0.0011443
0.00107464
0.000995429
)
;

boundaryField
{
    floor
    {
        type            nutkWallFunction;
        Cmu             0.09;
        kappa           0.41;
        E               9.8;
        value           nonuniform List<scalar> 
29
(
0.00011023
5.89227e-05
7.04328e-05
8.10322e-05
8.46287e-05
8.34948e-05
8.06091e-05
7.5414e-05
6.98983e-05
6.4846e-05
6.03677e-05
5.64133e-05
5.29138e-05
4.97977e-05
4.70169e-05
4.44677e-05
4.2025e-05
3.95166e-05
3.76522e-05
3.36561e-05
3.36561e-05
4.46087e-05
5.22677e-05
5.81773e-05
0.00011023
5.89227e-05
5.92754e-05
0.000102303
0.000163554
)
;
    }
    ceiling
    {
        type            nutkWallFunction;
        Cmu             0.09;
        kappa           0.41;
        E               9.8;
        value           nonuniform List<scalar> 
43
(
0.000211149
0.000221512
0.000228952
0.000237949
0.000220577
0.000208906
0.000201529
0.000191402
0.000177312
0.000161356
0.000145358
0.000130843
0.00011906
0.000110256
0.000103608
9.81867e-05
9.33738e-05
8.88892e-05
8.47666e-05
8.12304e-05
7.85101e-05
7.67165e-05
7.58416e-05
7.58316e-05
7.66544e-05
7.82991e-05
8.07936e-05
8.40831e-05
8.81719e-05
9.31079e-05
9.87999e-05
0.000105235
0.000112444
0.00012044
0.000129065
0.00013992
0.000141908
0.000137573
0.000129472
0.000120188
0.000345781
0.000405411
0.000240564
)
;
    }
    sWall
    {
        type            nutkWallFunction;
        Cmu             0.09;
        kappa           0.41;
        E               9.8;
        value           uniform 0.000211208;
    }
    nWall
    {
        type            nutkWallFunction;
        Cmu             0.09;
        kappa           0.41;
        E               9.8;
        value           nonuniform List<scalar> 6(9.83568e-05 0.000103254 0.000121119 0.000140305 0.000142688 0.000120194);
    }
    sideWalls
    {
        type            empty;
    }
    glass1
    {
        type            nutkWallFunction;
        Cmu             0.09;
        kappa           0.41;
        E               9.8;
        value           nonuniform List<scalar> 9(0.000135018 0.000179457 0.000215039 0.000248234 0.000281415 0.000316217 0.000347893 0.000354331 0.000346216);
    }
    glass2
    {
        type            nutkWallFunction;
        Cmu             0.09;
        kappa           0.41;
        E               9.8;
        value           nonuniform List<scalar> 2(0.000180688 0.000168494);
    }
    sun
    {
        type            nutkWallFunction;
        Cmu             0.09;
        kappa           0.41;
        E               9.8;
        value           nonuniform List<scalar> 
14
(
0.000134901
0.000147219
0.00015044
0.000157555
0.000164229
0.000170671
0.000177331
0.00018262
0.00018561
0.000185552
0.000181928
0.000174328
0.000161909
0.000140418
)
;
    }
    heatsource1
    {
        type            nutkWallFunction;
        Cmu             0.09;
        kappa           0.41;
        E               9.8;
        value           nonuniform List<scalar> 3(7.22707e-05 8.73616e-05 9.83557e-05);
    }
    heatsource2
    {
        type            nutkWallFunction;
        Cmu             0.09;
        kappa           0.41;
        E               9.8;
        value           nonuniform List<scalar> 4(0.000138801 9.93858e-05 9.93858e-05 0.000142976);
    }
    Table_master
    {
        type            nutkWallFunction;
        Cmu             0.09;
        kappa           0.41;
        E               9.8;
        value           nonuniform List<scalar> 9(0.000106147 9.28207e-05 8.19427e-05 7.30977e-05 6.5863e-05 5.98937e-05 5.4932e-05 5.08402e-05 4.75922e-05);
    }
    Table_slave
    {
        type            nutkWallFunction;
        Cmu             0.09;
        kappa           0.41;
        E               9.8;
        value           nonuniform List<scalar> 9(0.000120377 0.000109463 0.000101493 9.52329e-05 8.97543e-05 8.47756e-05 7.98968e-05 7.47287e-05 6.87342e-05);
    }
    inlet
    {
        type            calculated;
        value           uniform 0.000100623;
    }
    outlet
    {
        type            calculated;
        value           nonuniform List<scalar> 2(0.00179794 0.00189237);
    }
}


// ************************************************************************* //
