/*--------------------------------*- C++ -*----------------------------------*\
  =========                 |
  \\      /  F ield         | OpenFOAM: The Open Source CFD Toolbox
   \\    /   O peration     | Website:  https://openfoam.org
    \\  /    A nd           | Version:  6
     \\/     M anipulation  |
\*---------------------------------------------------------------------------*/
FoamFile
{
    version     2.0;
    format      ascii;
    class       surfaceScalarField;
    location    "800";
    object      phi;
}
// * * * * * * * * * * * * * * * * * * * * * * * * * * * * * * * * * * * * * //

dimensions      [1 0 -1 0 0 0 0];

internalField   nonuniform List<scalar> 
852
(
-0.00228551
0.00234479
-0.00233347
4.80256e-05
-0.00233274
-6.52568e-07
-0.0023957
6.30517e-05
-0.0024737
7.80874e-05
-0.00253967
6.60704e-05
-0.0025776
3.80306e-05
-0.00257389
-3.60392e-06
-0.00251397
-5.98078e-05
-0.00238105
-0.000132817
-0.00215893
-0.000222012
-0.00183359
-0.000325234
-0.00138694
-0.000446543
-0.000778658
-0.000608176
-0.000777041
-0.000728508
0.000732469
-0.000887476
0.000158923
-0.000903087
1.55987e-05
-0.000841368
-6.17073e-05
-0.000748802
-9.25412e-05
-0.000646789
-0.00010198
-0.000521407
-0.000125343
-0.000397282
-0.000124077
-0.000308791
-8.84356e-05
-0.000264049
-4.46809e-05
-0.000252455
-1.15312e-05
-0.000253263
8.74703e-07
-0.000250482
-2.703e-06
-0.000230743
-1.96365e-05
-0.000160809
-6.97917e-05
-1.76454e-05
-0.000142967
0.000224536
-0.000241954
0.000389767
-0.000165008
0.000392831
-0.00163668
0.00413168
-0.00206688
0.000478318
-0.00223456
0.000167128
-0.00234983
0.000178433
-0.00244915
0.000177524
-0.00252797
0.000145013
-0.00257859
8.87748e-05
-0.00259224
1.01651e-05
-0.00255955
-9.23694e-05
-0.00246964
-0.000222612
-0.00230848
-0.000383051
-0.00206023
-0.000573361
-0.00171387
-0.000792787
-0.0012936
-0.00102833
-0.000859505
-0.00121103
0.000227662
-0.00108712
0.000227677
-0.000315522
0.00105782
-0.00049075
0.00033411
-0.000584393
0.000109231
-0.00061567
-3.03951e-05
-0.000603673
-0.000104463
-0.000622163
-8.34258e-05
-0.000611614
-0.000135836
-0.000595653
-0.000139956
-0.000588757
-9.52257e-05
-0.000585977
-4.73408e-05
-0.00058157
-1.58075e-05
-0.0005735
-7.04394e-06
-0.000570147
-5.86736e-06
-0.000583136
-6.41027e-06
-0.000587952
-6.46957e-05
-0.000528918
-0.0002017
-0.000546817
-0.000223772
-0.000535558
-0.000176011
-0.000135727
-0.0011914
0.00554298
-0.00176308
0.00105012
-0.0020202
0.000424359
-0.00218074
0.000339097
-0.00229905
0.000295955
-0.0023894
0.000235494
-0.0024549
0.000154409
-0.00249364
4.90358e-05
-0.00250186
-8.40144e-05
-0.00247569
-0.000248646
-0.00240957
-0.000449045
-0.00229812
-0.000684676
-0.00214201
-0.000948765
-0.00195494
-0.00121526
-0.00175238
-0.00141346
-0.00141793
-0.00142144
-0.00119014
-0.000419638
0.00149033
-0.000620292
0.000534817
-0.000706534
0.000195593
-0.00074713
1.03707e-05
-0.000733581
-0.000117777
-0.000546963
-0.000269813
-0.000682568
-0.000822234
-0.000917117
-0.000964074
-0.000979452
-0.000986004
-0.000991305
-0.000997092
-0.00106116
-0.000797814
-0.000464601
-0.000649709
-0.000371448
-0.00044296
-0.000382345
-0.000573172
-0.000864059
0.00668319
-0.00147462
0.0016608
-0.00175184
0.000701705
-0.00193746
0.000524852
-0.00206064
0.000419271
-0.00214589
0.000320878
-0.00220878
0.000217433
-0.00225694
9.73388e-05
-0.00229385
-4.69681e-05
-0.00232347
-0.000218886
-0.00235181
-0.000420563
-0.0023866
-0.000649739
-0.00244107
-0.00089414
-0.00253434
-0.00112184
-0.00267263
-0.001275
-0.00282244
-0.00127145
-0.00308342
-0.000928999
-0.00278589
-0.000288297
-0.00186845
0.000573024
-0.0018954
0.000561983
-0.00201978
0.000320231
-0.00213886
0.000129738
-0.00222232
-3.40193e-05
-0.00235404
-0.00013777
-0.00222262
-0.000131216
-0.00207721
-0.000145184
-0.0019149
-0.000162044
-0.00174505
-0.000169543
-0.00157766
-0.000167044
-0.00142131
-0.000155966
-0.00127772
-0.000143176
-0.00112763
-0.000149662
-0.000905404
-0.000221847
-0.000949145
-0.000420401
-0.000761643
-0.000558536
-0.000397561
-0.000746054
-0.000966015
-0.000621709
0.00762886
-0.00123537
0.00227459
-0.0014352
0.000901672
-0.00160003
0.000689828
-0.0017221
0.000541494
-0.00178744
0.00038636
-0.00182047
0.000250611
-0.00184281
0.000119828
-0.00186822
-2.14197e-05
-0.00190795
-0.00017901
-0.00197469
-0.000353675
-0.00207969
-0.000544582
-0.00223212
-0.000741549
-0.00243462
-0.000919163
-0.00267591
-0.00103352
-0.00293016
-0.001017
-0.00308131
-0.00077763
-0.00303602
-0.000333341
-0.00260388
0.000141138
-0.00231005
0.000268433
-0.00219029
0.000200769
-0.00214882
8.85861e-05
-0.00214701
-3.55024e-05
-0.00215567
-0.000128745
-0.0021089
-0.00017761
-0.00204042
-0.00021326
-0.0019631
-0.000238941
-0.00188079
-0.000251399
-0.00179758
-0.000249781
-0.0017152
-0.000237854
-0.00162939
-0.000228494
-0.00152859
-0.000249996
-0.00140664
-0.000343357
-0.00129905
-0.000527604
-0.00107362
-0.000783622
-0.000679076
-0.00114029
-0.000132364
-0.00151244
0.00128188
-0.00141415
0.00171709
-0.000435004
0.00174847
-0.000578072
0.0085728
-0.00111013
0.00280679
-0.000990829
0.000782527
-0.00101844
0.000717612
-0.00118025
0.000703469
-0.00126298
0.000469251
-0.00126817
0.000255961
-0.00124666
9.84791e-05
-0.00123124
-3.66794e-05
-0.00124415
-0.000165946
-0.00130121
-0.000296466
-0.00141281
-0.000432825
-0.00158221
-0.000571986
-0.0018026
-0.000698592
-0.00205492
-0.000781008
-0.00230129
-0.000770415
-0.00245835
-0.000620341
-0.00244492
-0.000346514
-0.00223021
-7.32777e-05
-0.00201297
5.14821e-05
-0.0018677
5.58121e-05
-0.0017836
4.80024e-06
-0.00174869
-7.0081e-05
-0.00173838
-0.000138706
-0.00172636
-0.000189267
-0.00171117
-0.00022807
-0.00169489
-0.000254827
-0.00167887
-0.000267004
-0.00166481
-0.000263407
-0.0016544
-0.000247824
-0.00164857
-0.000233892
-0.00164874
-0.000249419
-0.00165931
-0.000332414
-0.00167182
-0.000514751
-0.00163293
-0.000822223
-0.00148725
-0.0012857
-0.00113495
-0.00186446
-0.000301226
-0.00224757
0.000464929
-0.0012008
0.00225183
-0.000780525
0.00975838
-0.000686349
0.00271275
-5.54641e-06
0.00010189
0.000149468
0.00056278
-0.000131013
0.000984142
-0.000340496
0.000678921
-0.000399229
0.000314876
-0.000386552
8.59784e-05
-0.000360675
-6.23854e-05
-0.000359322
-0.000167133
-0.000402304
-0.000253322
-0.000502484
-0.000332481
-0.000662867
-0.000411435
-0.000873606
-0.000487676
-0.00111083
-0.000543594
-0.00133427
-0.000546772
-0.00148712
-0.000467267
-0.00151646
-0.000316931
-0.00142927
-0.000160193
-0.0013081
-6.9378e-05
-0.00120568
-4.62931e-05
-0.00113793
-6.26337e-05
-0.00110793
-9.97648e-05
-0.00110416
-0.000142157
-0.00111308
-0.000180019
-0.00112935
-0.000211449
-0.00115056
-0.000233267
-0.00117569
-0.000241502
-0.00120581
-0.000232895
-0.00124567
-0.000207576
-0.001306
-0.000173166
-0.00140576
-0.000149289
-0.00156849
-0.000169324
-0.00180454
-0.000278385
-0.00209804
-0.000528434
-0.00242383
-0.000959643
-0.0027287
-0.00155932
-0.00279258
-0.0021834
-0.00177877
-0.0022142
0.00051763
0.00184783
0.00836641
0.0027069
0.0018538
0.00283713
-2.81705e-05
0.00228454
0.00111555
0.00170709
0.00156179
0.00133928
0.00104692
0.00111087
0.000543481
0.000957913
0.000239122
0.000852483
4.32302e-05
0.000777435
-9.19055e-05
0.000700038
-0.000175749
0.000591144
-0.000223412
0.000439007
-0.000259123
0.000245228
-0.000293715
2.57642e-05
-0.000323941
-0.000184218
-0.000336588
-0.000340266
-0.000311003
-0.000411243
-0.000245722
-0.000402806
-0.00016838
-0.000357399
-0.000114518
-0.000311234
-9.21782e-05
-0.000280614
-9.29676e-05
-0.00027139
-0.000108701
-0.000281593
-0.000131662
-0.000305691
-0.000155625
-0.000339767
-0.000177069
-0.00038031
-0.000192409
-0.000424034
-0.000197452
-0.000468783
-0.00018781
-0.00051582
-0.000160193
-0.00057413
-0.000114505
-0.000666883
-5.61883e-05
-0.000837262
1.39469e-06
-0.00114707
3.17422e-05
-0.0016535
-2.17053e-05
-0.00240432
-0.000208558
-0.00348395
-0.000479472
-0.00486761
-0.000799554
-0.00511862
-0.00196303
-0.00444601
0.00886704
0.0107094
0.00850593
0.00217549
0.00556224
0.00405942
0.00421715
0.00290706
0.00345203
0.00181222
0.00295229
0.0010434
0.00261878
0.000572819
0.00237111
0.000291078
0.00216151
0.000117881
0.0019755
1.04566e-05
0.00180457
-5.22892e-05
0.00163398
-8.83476e-05
0.00145397
-0.000113509
0.00126593
-0.000135709
0.0010834
-0.000153851
0.000930667
-0.000158052
0.000827884
-0.000142714
0.000775744
-0.000116003
0.000754918
-9.34448e-05
0.000745232
-8.22365e-05
0.000734394
-8.18683e-05
0.000715827
-8.98689e-05
0.000687437
-0.000103005
0.000649741
-0.000117658
0.000603967
-0.000131021
0.000552704
-0.000140868
0.000499897
-0.000144361
0.000450616
-0.000138238
0.000410402
-0.000119682
0.000384041
-8.78424e-05
0.000374312
-4.61565e-05
0.000381987
-5.97825e-06
0.000407519
6.5065e-06
0.000436823
-5.07225e-05
0.000445553
-0.000217015
0.00045571
-0.000489373
0.000537648
-0.000881252
0.00039128
-0.00181644
-0.00388427
-0.00201681
0.00274664
-8.06644e-05
0.0021235
0.00158594
0.00124066
0.00238086
0.00101749
0.00270709
0.000717366
0.00284486
0.00043525
0.0028927
0.000243442
0.00288705
0.00012373
0.00284462
5.30929e-05
0.00277964
1.28944e-05
0.00269871
-7.20648e-06
0.00260236
-1.69436e-05
0.00249008
-2.32203e-05
0.00236561
-2.91639e-05
0.00224013
-3.23576e-05
0.00212784
-3.01996e-05
0.00203695
-2.48749e-05
0.00196559
-2.1847e-05
0.00190754
-2.39431e-05
0.00185675
-3.08367e-05
0.00180834
-4.12081e-05
0.00175906
-5.34848e-05
0.00170662
-6.49654e-05
0.00165
-7.41499e-05
0.00159019
-8.08017e-05
0.00152983
-8.37484e-05
0.00147342
-8.15777e-05
0.00142732
-7.33187e-05
0.00139919
-5.94488e-05
0.00139692
-4.3628e-05
0.0014266
-3.54003e-05
0.00148738
-5.4014e-05
0.00156516
-0.000128239
0.00163694
-0.000288546
0.00170006
-0.000552239
0.00176166
-0.000942621
0.00156295
-0.00161751
-0.00228431
-0.000512238
0.00324053
0.00123463
0.000376893
0.00198942
0.000486116
0.00259305
0.000414101
0.00306893
0.000241719
0.00337331
0.0001311
0.00354461
7.23756e-05
0.00362848
4.00946e-05
0.00365599
2.58142e-05
0.00364413
2.49786e-05
0.00360378
3.33785e-05
0.00354222
4.48432e-05
0.00346461
5.4616e-05
0.0033747
6.0977e-05
0.00327897
6.35968e-05
0.00318628
6.27193e-05
0.00310332
5.83114e-05
0.00303138
5.03251e-05
0.00296808
3.95818e-05
0.00290996
2.75081e-05
0.00285367
1.53163e-05
0.00279661
3.80232e-06
0.00273761
-5.73214e-06
0.00267662
-1.29299e-05
0.00261414
-1.80831e-05
0.00255171
-2.10879e-05
0.00249244
-2.20805e-05
0.00244092
-2.15635e-05
0.00240254
-2.08434e-05
0.00238192
-2.27792e-05
0.00237961
-3.28605e-05
0.00238622
-6.03892e-05
0.00237657
-0.000118357
0.00230924
-0.000220989
0.00213547
-0.000378247
0.00177673
-0.000583666
0.00104405
-0.00088462
-0.00119808
0.00422505
-0.000654164
0.00255885
0.00290855
0.00336545
0.00374779
0.00395504
0.00404906
0.004082
0.00408061
0.0040633
0.00404398
0.00403238
0.0040321
0.00404189
0.00405873
0.00407914
0.00409978
0.00411715
0.00412765
0.00412842
0.00411803
0.00409627
0.00406376
0.00402243
0.00397461
0.00392235
0.00386779
0.00381295
0.00375934
0.00370715
0.00365371
0.00359081
0.00350091
0.00335346
0.00310361
0.00269656
0.00208397
0.00117117
)
;

boundaryField
{
    floor
    {
        type            calculated;
        value           nonuniform List<scalar> 
29
(
0
0
0
0
0
0
0
0
0
0
0
0
0
0
0
0
0
0
0
0
-2.86843e-06
-6.71164e-06
-5.09085e-06
-4.37706e-06
-1.51545e-06
-4.0397e-06
-9.90647e-06
-1.28948e-05
-9.08253e-06
)
;
    }
    ceiling
    {
        type            calculated;
        value           nonuniform List<scalar> 
43
(
7.27711e-05
5.3353e-05
2.78108e-05
2.74984e-05
2.95171e-05
3.20614e-05
3.47691e-05
3.7371e-05
3.97275e-05
4.17604e-05
4.33973e-05
4.45702e-05
4.52312e-05
4.538e-05
4.50682e-05
4.43819e-05
4.34282e-05
4.23227e-05
4.1175e-05
4.00699e-05
3.90536e-05
3.81379e-05
3.73126e-05
3.65576e-05
3.58338e-05
3.51179e-05
3.44063e-05
3.36939e-05
3.2978e-05
3.22604e-05
3.15509e-05
3.08685e-05
3.02414e-05
2.97054e-05
2.92971e-05
2.90495e-05
2.89906e-05
2.91133e-05
2.83654e-05
3.05446e-05
1.39061e-05
1.15073e-05
1.86377e-05
)
;
    }
    sWall
    {
        type            calculated;
        value           uniform -0.000123701;
    }
    nWall
    {
        type            calculated;
        value           nonuniform List<scalar> 6(-3.09794e-05 -3.77202e-05 -4.38785e-05 -3.68032e-05 -4.19847e-05 -5.72775e-05);
    }
    sideWalls
    {
        type            empty;
        value           nonuniform 0();
    }
    glass1
    {
        type            calculated;
        value           nonuniform List<scalar> 9(-5.92127e-05 -0.000150148 -0.000219832 -0.000276085 -0.000323884 -0.000365792 -0.000404972 -0.000455776 -0.000514451);
    }
    glass2
    {
        type            calculated;
        value           nonuniform List<scalar> 2(-0.000154873 -0.000170255);
    }
    sun
    {
        type            calculated;
        value           uniform 0;
    }
    heatsource1
    {
        type            calculated;
        value           nonuniform List<scalar> 3(2.02346e-07 2.02385e-07 2.02567e-07);
    }
    heatsource2
    {
        type            calculated;
        value           nonuniform List<scalar> 4(5.09384e-08 5.10808e-08 0 0);
    }
    Table_master
    {
        type            calculated;
        value           nonuniform List<scalar> 9(-1.53586e-07 -1.53517e-07 -1.5343e-07 -1.53344e-07 -1.53256e-07 -1.53156e-07 -1.53034e-07 -1.52883e-07 -1.52664e-07);
    }
    Table_slave
    {
        type            calculated;
        value           nonuniform List<scalar> 9(1.52226e-07 1.5226e-07 1.5229e-07 1.52321e-07 1.52347e-07 1.52361e-07 1.52356e-07 1.52328e-07 1.52254e-07);
    }
    inlet
    {
        type            calculated;
        value           uniform 0.00144596;
    }
    outlet
    {
        type            calculated;
        value           nonuniform List<scalar> 2(-0.00417373 0.00482624);
    }
}


// ************************************************************************* //
