// -*- C++ -*-
// File generated by PyFoam - sorry for the ugliness

FoamFile
{
 version 2.0;
 format ascii;
 class volScalarField;
 location "800";
 object T;
}

dimensions [ 0 0 0 1 0 0 0 ];

internalField nonuniform List<scalar> 459
(
  304.076
  303.763
  303.751
  303.754
  303.756
  303.759
  303.761
  303.762
  303.763
  303.761
  303.756
  303.747
  303.733
  303.715
  303.693
  303.21
  303.158
  303.132
  303.119
  303.113
  303.113
  303.12
  303.134
  303.158
  303.19
  303.228
  303.268
  303.307
  303.349
  303.397
  303.447
  303.462
  303.401
  303.323
  304.309
  303.862
  303.823
  303.829
  303.839
  303.848
  303.855
  303.861
  303.864
  303.862
  303.853
  303.834
  303.805
  303.764
  303.709
  303.648
  303.585
  303.232
  303.184
  303.15
  303.125
  303.115
  303.103
  303.098
  303.118
  303.153
  303.198
  303.251
  303.31
  303.378
  303.46
  303.558
  303.649
  303.65
  303.587
  303.481
  304.522
  303.974
  303.905
  303.912
  303.931
  303.948
  303.964
  303.975
  303.982
  303.983
  303.972
  303.947
  303.905
  303.843
  303.761
  303.667
  303.588
  303.268
  303.268
  303.275
  303.284
  303.293
  303.272
  303.11
  303.134
  303.183
  303.246
  303.319
  303.408
  303.517
  303.653
  303.811
  303.964
  304.012
  304.063
  304.13
  304.717
  304.101
  304.002
  304.002
  304.03
  304.059
  304.086
  304.109
  304.124
  304.132
  304.124
  304.099
  304.05
  303.975
  303.872
  303.744
  303.603
  303.488
  303.431
  303.523
  303.61
  303.675
  303.714
  303.746
  303.773
  303.789
  303.808
  303.833
  303.865
  303.909
  303.966
  304.039
  304.124
  304.201
  304.273
  304.34
  304.4
  304.898
  304.245
  304.128
  304.11
  304.138
  304.178
  304.219
  304.256
  304.286
  304.305
  304.309
  304.292
  304.251
  304.185
  304.095
  303.988
  303.877
  303.781
  303.722
  303.758
  303.815
  303.86
  303.893
  303.916
  303.935
  303.953
  303.975
  304.004
  304.042
  304.091
  304.152
  304.222
  304.296
  304.367
  304.433
  304.486
  304.518
  304.51
  304.433
  304.348
  305.061
  304.415
  304.315
  304.278
  304.282
  304.318
  304.367
  304.416
  304.461
  304.495
  304.511
  304.508
  304.481
  304.429
  304.355
  304.263
  304.165
  304.077
  304.016
  304.002
  304.018
  304.04
  304.06
  304.074
  304.084
  304.095
  304.11
  304.131
  304.161
  304.203
  304.257
  304.323
  304.394
  304.464
  304.525
  304.567
  304.586
  304.57
  304.47
  304.304
  305.211
  304.641
  304.611
  304.58
  304.538
  304.536
  304.569
  304.614
  304.662
  304.702
  304.727
  304.735
  304.723
  304.689
  304.632
  304.557
  304.471
  304.389
  304.323
  304.28
  304.263
  304.26
  304.261
  304.261
  304.26
  304.259
  304.26
  304.265
  304.277
  304.299
  304.335
  304.385
  304.447
  304.515
  304.577
  304.623
  304.644
  304.63
  304.55
  304.287
  305.425
  305.029
  305.096
  305.082
  304.993
  304.93
  304.91
  304.914
  304.927
  304.949
  304.969
  304.979
  304.977
  304.958
  304.92
  304.862
  304.792
  304.718
  304.65
  304.595
  304.555
  304.528
  304.507
  304.49
  304.474
  304.459
  304.444
  304.432
  304.423
  304.42
  304.427
  304.448
  304.484
  304.537
  304.601
  304.666
  304.721
  304.766
  304.802
  304.844
  305.716
  305.579
  305.937
  305.866
  305.65
  305.486
  305.389
  305.335
  305.309
  305.292
  305.279
  305.272
  305.263
  305.247
  305.219
  305.178
  305.125
  305.063
  304.998
  304.938
  304.885
  304.839
  304.801
  304.766
  304.734
  304.704
  304.674
  304.645
  304.617
  304.593
  304.574
  304.564
  304.565
  304.58
  304.607
  304.642
  304.68
  304.72
  304.765
  304.868
  309.074
  306.702
  306.038
  305.832
  305.737
  305.688
  305.663
  305.649
  305.641
  305.629
  305.612
  305.59
  305.561
  305.523
  305.475
  305.42
  305.36
  305.298
  305.239
  305.182
  305.13
  305.08
  305.033
  304.988
  304.944
  304.901
  304.859
  304.817
  304.779
  304.746
  304.721
  304.707
  304.705
  304.715
  304.734
  304.759
  304.789
  304.826
  308.491
  307.144
  306.681
  306.418
  306.272
  306.189
  306.137
  306.1
  306.069
  306.039
  306.007
  305.972
  305.931
  305.885
  305.833
  305.776
  305.715
  305.651
  305.586
  305.522
  305.46
  305.399
  305.341
  305.284
  305.229
  305.175
  305.122
  305.07
  305.019
  304.972
  304.929
  304.894
  304.869
  304.854
  304.848
  304.848
  304.851
  304.864
  308.592
  308.536
  308.41
  307.941
  307.549
  307.268
  307.079
  306.941
  306.831
  306.737
  306.654
  306.576
  306.501
  306.429
  306.358
  306.288
  306.219
  306.15
  306.081
  306.013
  305.946
  305.88
  305.815
  305.752
  305.689
  305.626
  305.564
  305.503
  305.442
  305.382
  305.323
  305.265
  305.209
  305.155
  305.105
  305.058
  305.014
  304.973
  304.93
  304.903
)
;

boundaryField
{
  floor
  {
    type wallHeatTransfer;
    Tinf uniform 305.2;
    alphaWall uniform 0.24;
    value nonuniform List<scalar> 29
(
  303.896
  303.751
  303.72
  303.732
  303.727
  303.723
  303.721
  303.718
  303.714
  303.71
  303.708
  303.708
  303.709
  303.712
  303.719
  303.734
  303.756
  303.766
  303.733
  303.706
  303.706
  303.781
  304.267
  304.484
  303.896
  303.751
  303.673
  303.613
  303.695
)
;
  }
  ceiling
  {
    type wallHeatTransfer;
    Tinf uniform 303.2;
    alphaWall uniform 0.24;
    value nonuniform List<scalar> 43
(
  308.171
  308.223
  308.246
  307.779
  307.375
  307.08
  306.876
  306.723
  306.599
  306.494
  306.402
  306.317
  306.239
  306.166
  306.097
  306.031
  305.967
  305.905
  305.843
  305.782
  305.72
  305.66
  305.6
  305.54
  305.481
  305.423
  305.365
  305.308
  305.252
  305.196
  305.141
  305.087
  305.034
  304.983
  304.935
  304.89
  304.847
  304.805
  304.766
  304.728
  305.606
  305.487
  308.367
)
;
  }
  sWall
  {
    type wallHeatTransfer;
    Tinf uniform 315.2;
    alphaWall uniform 0.36;
    value uniform 309.338;
  }
  nWall
  {
    type wallHeatTransfer;
    Tinf uniform 307.2;
    alphaWall uniform 0.36;
    value nonuniform List<scalar> 6
(
  304.813
  304.768
  304.743
  305.089
  305.135
  305.24
)
;
  }
  sideWalls
  {
    type empty;
  }
  glass1
  {
    type wallHeatTransfer;
    Tinf uniform 315.2;
    alphaWall uniform 4.3;
    value nonuniform List<scalar> 9
(
  312.491
  311.404
  310.751
  310.306
  310.001
  309.782
  309.642
  309.755
  310.017
)
;
  }
  glass2
  {
    type wallHeatTransfer;
    Tinf uniform 307.2;
    alphaWall uniform 4.3;
    value nonuniform List<scalar> 2
(
  306.263
  306.243
)
;
  }
  sun
  {
    type wallHeatTransfer;
    Tinf uniform 305.2;
    alphaWall uniform 0.24;
    value nonuniform List<scalar> 14
(
  304.239
  303.968
  303.983
  303.982
  303.978
  303.975
  303.971
  303.967
  303.962
  303.956
  303.948
  303.937
  303.924
  303.91
)
;
  }
  heatsource1
  {
    type fixedGradient;
    gradient uniform 0;
  }
  heatsource2
  {
    type fixedGradient;
    gradient uniform 0;
  }
  Table_master
  {
    type zeroGradient;
  }
  Table_slave
  {
    type zeroGradient;
  }
  inlet
  {
    type fixedValue;
    value uniform 293.15;
  }
  outlet
  {
    type zeroGradient;
  }
} 	// ************************************************************************* //

