/*--------------------------------*- C++ -*----------------------------------*\
  =========                 |
  \\      /  F ield         | OpenFOAM: The Open Source CFD Toolbox
   \\    /   O peration     | Website:  https://openfoam.org
    \\  /    A nd           | Version:  6
     \\/     M anipulation  |
\*---------------------------------------------------------------------------*/
FoamFile
{
    version     2.0;
    format      ascii;
    class       volScalarField;
    location    "200";
    object      alphat;
}
// * * * * * * * * * * * * * * * * * * * * * * * * * * * * * * * * * * * * * //

dimensions      [1 -1 -1 0 0 0 0];

internalField   nonuniform List<scalar> 
459
(
0.000910337
0.000945791
0.000710975
0.000617136
0.00060173
0.000600553
0.0006046
0.000612521
0.000623784
0.000637728
0.000653225
0.000668617
0.000681712
0.000688865
0.000681362
0.000312692
0.000340568
0.000349783
0.000323162
0.000292349
0.000273453
0.000259659
0.000269919
0.000291525
0.000316329
0.000339346
0.000354673
0.000352531
0.000343692
0.000330446
0.000315647
0.000295486
0.000275683
0.000252174
0.00163713
0.00383943
0.00204993
0.00239814
0.0029754
0.00315021
0.00317593
0.0031583
0.00312643
0.00308351
0.00301742
0.00290155
0.00269007
0.00230942
0.00167273
0.000789542
0.000544855
0.000512219
0.000941378
0.00112169
0.00109899
0.000859522
0.000628103
0.000507249
0.000635978
0.000837212
0.00102959
0.00117638
0.00124709
0.00120303
0.00108027
0.000951839
0.00093069
0.000724736
0.000533863
0.000327272
0.00226044
0.00695255
0.00358133
0.00297249
0.00376387
0.00437822
0.00463893
0.00470063
0.0046621
0.00456643
0.00441944
0.00419917
0.00385914
0.0033355
0.0025869
0.0016953
0.000872449
0.000721516
0.00204033
0.0018355
0.00142907
0.000999174
0.000642257
0.000343269
0.000362002
0.000387399
0.000411157
0.000433429
0.000455942
0.000482491
0.000517138
0.000574543
0.00138992
0.00131171
0.001216
0.000506415
0.00280255
0.0103421
0.00634614
0.00434131
0.00416524
0.0047165
0.00530693
0.00566858
0.00581207
0.00581964
0.005739
0.00557229
0.00527965
0.00478641
0.00400861
0.00292334
0.0017347
0.000969741
0.00254993
0.00274053
0.00226578
0.00175803
0.00133114
0.000999121
0.00075108
0.000749821
0.000748614
0.000747889
0.000749244
0.000754249
0.000764802
0.000783925
0.00081753
0.00196931
0.00182285
0.00146556
0.000732296
0.00325397
0.0134187
0.00980695
0.00698824
0.00538402
0.00489985
0.005334
0.00603579
0.0065396
0.00682188
0.00696641
0.00703365
0.00704279
0.00698142
0.0068211
0.0065339
0.00612815
0.00571182
0.00562759
0.00530262
0.00502129
0.00481958
0.00467448
0.00453494
0.00437971
0.00425866
0.00412425
0.00397346
0.00380821
0.00363079
0.00344243
0.00324158
0.00302014
0.00276041
0.00231431
0.00180951
0.00131015
0.000889627
0.000910066
0.000930117
0.00363743
0.0154067
0.0126546
0.00960752
0.00736127
0.00566366
0.0051504
0.00575797
0.00658208
0.00721522
0.00763408
0.00792116
0.00813492
0.00829389
0.00838857
0.0083938
0.0082808
0.00805007
0.00776758
0.00747924
0.00722707
0.00703331
0.00687685
0.0067194
0.00654953
0.00636462
0.00616186
0.00594038
0.0057002
0.00544148
0.00516391
0.00486642
0.00454658
0.0041991
0.00381586
0.00339633
0.00294005
0.0024587
0.00190538
0.00110112
0.00393125
0.0151207
0.0125354
0.0108611
0.00889322
0.00691874
0.00547295
0.00522761
0.00596833
0.00686645
0.00756587
0.00808528
0.00849937
0.00884125
0.00910791
0.00928946
0.0093538
0.0092882
0.0091262
0.00892235
0.00871539
0.00852082
0.00833648
0.00815351
0.00796346
0.00775996
0.00753982
0.00730113
0.00704338
0.00676705
0.00647318
0.00616307
0.00583771
0.00549553
0.00512819
0.00471388
0.00420867
0.00355268
0.0026862
0.00126138
0.0038203
0.0108105
0.0114984
0.0115534
0.00990714
0.00781181
0.00610635
0.00521699
0.00533441
0.00611315
0.00692684
0.00758539
0.00814141
0.00864604
0.00909471
0.00945496
0.00969106
0.00979931
0.00979158
0.00970373
0.00957298
0.00942102
0.00925736
0.00908583
0.00890514
0.00871145
0.00850054
0.00826915
0.00801571
0.00774017
0.00744368
0.00712841
0.00679706
0.0064516
0.00609069
0.00570306
0.00525006
0.0046382
0.00370114
0.00141261
0.00359438
0.00442771
0.0172477
0.01573
0.0115288
0.00848763
0.00671981
0.00591175
0.00580848
0.00614271
0.00664312
0.00716142
0.00766172
0.00814606
0.00861048
0.00903737
0.00939468
0.00965013
0.00979442
0.00983956
0.00981803
0.00975068
0.00964962
0.00952599
0.00938502
0.00922699
0.00904898
0.00884816
0.00862272
0.00837181
0.00809546
0.00779461
0.00747107
0.00712723
0.00676498
0.00638128
0.00595352
0.00540408
0.00446621
0.00158142
0.0301687
0.0241607
0.0130814
0.00947962
0.00796109
0.00725549
0.00704239
0.00716743
0.00747751
0.00783792
0.0081829
0.00849633
0.00878178
0.00904466
0.00928291
0.00948689
0.00964557
0.00975398
0.00981468
0.00983032
0.00980288
0.00974421
0.00965904
0.00954797
0.00941145
0.00925033
0.00906517
0.00885588
0.00862177
0.00836188
0.00807531
0.00776146
0.00741952
0.00704541
0.00662038
0.00607521
0.00509691
0.00179122
0.00931771
0.0179054
0.0127136
0.00960363
0.00790472
0.00713152
0.00699509
0.00728889
0.00781089
0.00832632
0.00874129
0.00903624
0.00923429
0.00936963
0.0094693
0.00954773
0.00960966
0.00965546
0.00968541
0.00970122
0.00970479
0.00969609
0.00966555
0.00960311
0.00951374
0.00940265
0.00927354
0.00912807
0.00896597
0.00878532
0.00858267
0.00835272
0.00808725
0.00777242
0.00738265
0.00685567
0.00599159
0.00202592
0.00143185
0.00193398
0.00568171
0.00526563
0.00456183
0.00391794
0.00340809
0.00301658
0.00272363
0.00251611
0.00238335
0.00231571
0.00228956
0.00228317
0.00228231
0.00228032
0.00227535
0.00226757
0.00225767
0.00224619
0.00223345
0.00221977
0.00220542
0.0021904
0.00217547
0.00216108
0.00214613
0.00213013
0.00211292
0.00209451
0.00207487
0.00205394
0.00203148
0.00200704
0.00197974
0.00194793
0.00190845
0.001855
0.00177748
0.00152268
)
;

boundaryField
{
    floor
    {
        type            compressible::alphatWallFunction;
        Prt             0.85;
        value           nonuniform List<scalar> 
29
(
9.66026e-05
3.97957e-05
4.4314e-05
4.57944e-05
4.14977e-05
3.64686e-05
3.33519e-05
3.10615e-05
3.27706e-05
3.63387e-05
4.03912e-05
4.41139e-05
4.65748e-05
4.62319e-05
4.48135e-05
4.26791e-05
4.02809e-05
3.69893e-05
3.37265e-05
2.98114e-05
2.98109e-05
4.21719e-05
7.03407e-05
0.000104121
9.66014e-05
3.97952e-05
7.11793e-05
0.00010246
0.000138182
)
;
    }
    ceiling
    {
        type            compressible::alphatWallFunction;
        Prt             0.85;
        value           nonuniform List<scalar> 
43
(
0.00020246
0.000269173
0.000728084
0.000679195
0.000595623
0.000518031
0.000455673
0.000407139
0.000370395
0.000344111
0.000327173
0.000318496
0.000315127
0.000314293
0.00031417
0.000313904
0.000313256
0.000312247
0.000310967
0.000309481
0.000307834
0.000306064
0.000304207
0.000302263
0.000300329
0.000298463
0.000296525
0.000294449
0.000292216
0.000289823
0.000287271
0.000284547
0.000281622
0.000278434
0.00027487
0.000270711
0.00026554
0.000258523
0.000248311
0.00021439
0.000478332
0.000579247
0.00114274
)
;
    }
    sWall
    {
        type            compressible::alphatWallFunction;
        Prt             0.85;
        value           uniform 0.000201671;
    }
    nWall
    {
        type            compressible::alphatWallFunction;
        Prt             0.85;
        value           nonuniform List<scalar> 6(0.000132514 0.000156582 0.000178738 0.000249882 0.000280606 0.000214149);
    }
    sideWalls
    {
        type            empty;
    }
    glass1
    {
        type            compressible::alphatWallFunction;
        Prt             0.85;
        value           nonuniform List<scalar> 9(0.000126774 0.000225321 0.000306118 0.00037458 0.000430621 0.000477663 0.000513433 0.000500186 0.000472928);
    }
    glass2
    {
        type            compressible::alphatWallFunction;
        Prt             0.85;
        value           nonuniform List<scalar> 2(0.000199285 0.000221996);
    }
    sun
    {
        type            compressible::alphatWallFunction;
        Prt             0.85;
        value           nonuniform List<scalar> 
14
(
0.000129738
0.00013476
0.000100927
8.70531e-05
8.47542e-05
8.45808e-05
8.51892e-05
8.63762e-05
8.80595e-05
9.01374e-05
9.24394e-05
9.47189e-05
9.66529e-05
9.77075e-05
)
;
    }
    heatsource1
    {
        type            compressible::alphatWallFunction;
        Prt             0.85;
        value           nonuniform List<scalar> 3(0.000126771 0.000129693 0.000132552);
    }
    heatsource2
    {
        type            compressible::alphatWallFunction;
        Prt             0.85;
        value           nonuniform List<scalar> 4(0.000112387 7.6186e-05 7.61851e-05 0.000124319);
    }
    Table_master
    {
        type            compressible::alphatWallFunction;
        Prt             0.85;
        value           nonuniform List<scalar> 9(4.47918e-05 4.77943e-05 5.18316e-05 5.55773e-05 5.90635e-05 6.25641e-05 6.66636e-05 7.19709e-05 8.0668e-05);
    }
    Table_slave
    {
        type            compressible::alphatWallFunction;
        Prt             0.85;
        value           nonuniform List<scalar> 9(0.000106792 0.000106608 0.000106431 0.000106326 0.000106523 0.000107253 0.000108789 0.000111567 0.000116427);
    }
    inlet
    {
        type            fixedValue;
        value           uniform 1.94e-05;
    }
    outlet
    {
        type            zeroGradient;
    }
}


// ************************************************************************* //
