// -*- C++ -*-
// File generated by PyFoam - sorry for the ugliness

FoamFile
{
 version 2.0;
 format ascii;
 class volVectorField;
 location "800";
 object U;
}

dimensions [ 0 1 -1 0 0 0 0 ];

internalField nonuniform List<vector> 459
(
  (0.0309181 0.0870761 0)
  (-0.169951 0.0263244 0)
  (-0.19632 0.017369 0)
  (-0.226952 0.0106894 0)
  (-0.247393 0.00334596 0)
  (-0.256133 -0.00448056 0)
  (-0.251103 -0.0127657 0)
  (-0.232341 -0.021326 0)
  (-0.201287 -0.0287867 0)
  (-0.161494 -0.0337204 0)
  (-0.117865 -0.0352444 0)
  (-0.0754579 -0.0329296 0)
  (-0.0385472 -0.0262886 0)
  (-0.0105043 -0.0143535 0)
  (-0.0218866 0.00118264 0)
  (-0.0098729 0.0102196 0)
  (-0.0336728 -0.0156915 0)
  (-0.0126445 -0.026366 0)
  (0.0119837 -0.0221903 0)
  (0.028751 -0.0157925 0)
  (0.0429993 -0.0105357 0)
  (0.0523095 -0.00606322 0)
  (0.0573185 -0.00366427 0)
  (0.059559 -0.00271829 0)
  (0.0606053 -0.00232566 0)
  (0.0612404 -0.00208525 0)
  (0.0616207 -0.00189336 0)
  (0.0616894 -0.00167459 0)
  (0.0612599 -0.00125905 0)
  (0.059813 -0.000285582 0)
  (0.0562155 0.00175031 0)
  (0.0492565 0.00391561 0)
  (0.0425668 0.0059359 0)
  (-0.0111033 0.0210186 0)
  (0.203517 0.178507 0)
  (-0.157528 0.070457 0)
  (-0.158468 0.0536872 0)
  (-0.190412 0.039757 0)
  (-0.211067 0.0237644 0)
  (-0.22044 0.00560627 0)
  (-0.216279 -0.0146426 0)
  (-0.198954 -0.0349905 0)
  (-0.17066 -0.0517992 0)
  (-0.13534 -0.0621157 0)
  (-0.0976345 -0.0647519 0)
  (-0.0616958 -0.0598653 0)
  (-0.0307618 -0.0479284 0)
  (-0.00625181 -0.0292317 0)
  (0.00740583 -0.0105583 0)
  (0.0174193 0.000727246 0)
  (0.0147836 0.0181019 0)
  (0.0584564 0.0398349 0)
  (0.0166817 -0.0189044 0)
  (0.0287509 -0.0333498 0)
  (0.0406136 -0.0306014 0)
  (0.0504481 -0.0230007 0)
  (0.0581318 -0.0151719 0)
  (0.0616826 -0.00665211 0)
  (0.0624963 -0.00164049 0)
  (0.0624837 0.000396307 0)
  (0.0626089 0.00124432 0)
  (0.0628436 0.00173683 0)
  (0.0630166 0.00212087 0)
  (0.0630846 0.00257986 0)
  (0.0630048 0.00342632 0)
  (0.0622859 0.00551462 0)
  (0.0586166 0.0113391 0)
  (0.0493636 0.0161146 0)
  (0.0451243 0.0195713 0)
  (-0.0493586 0.0450862 0)
  (0.36195 0.267048 0)
  (-0.17216 0.111744 0)
  (-0.119445 0.0867532 0)
  (-0.150691 0.0623672 0)
  (-0.169546 0.0360044 0)
  (-0.178302 0.00633514 0)
  (-0.173136 -0.0263993 0)
  (-0.155203 -0.058448 0)
  (-0.128175 -0.0834433 0)
  (-0.0966344 -0.0972428 0)
  (-0.0647854 -0.0990826 0)
  (-0.0354239 -0.0902499 0)
  (-0.0106204 -0.0725589 0)
  (0.0103641 -0.0469284 0)
  (0.0244429 -0.0215213 0)
  (0.0322909 0.00259428 0)
  (0.0342224 0.0366621 0)
  (0.111341 -0.0161132 0)
  (0.0738905 -0.0335842 0)
  (0.0676613 -0.0385167 0)
  (0.0688094 -0.0352609 0)
  (0.0702277 -0.0281478 0)
  (0.0720548 -0.021439 0)
  (0.0711743 -0.0168383 0)
  (0.0657158 -0.0115235 0)
  (0.0616765 -0.00864176 0)
  (0.0599095 -0.00701543 0)
  (0.0591959 -0.00598106 0)
  (0.05882 -0.00527718 0)
  (0.0587328 -0.00469419 0)
  (0.0593867 -0.00383265 0)
  (0.0618851 -0.000716964 0)
  (0.0596694 0.0160651 0)
  (0.0464959 0.02719 0)
  (0.0502659 0.0344526 0)
  (-0.0846553 0.0691977 0)
  (0.505616 0.338279 0)
  (-0.204628 0.148151 0)
  (-0.0779998 0.115307 0)
  (-0.107759 0.0821782 0)
  (-0.122016 0.0477913 0)
  (-0.127456 0.00754043 0)
  (-0.117241 -0.0382756 0)
  (-0.0968949 -0.0816879 0)
  (-0.0714769 -0.112994 0)
  (-0.0453203 -0.128191 0)
  (-0.0213483 -0.128079 0)
  (-0.000168049 -0.115146 0)
  (0.0172353 -0.0926203 0)
  (0.0320165 -0.064646 0)
  (0.0454848 -0.0353008 0)
  (0.0603145 -0.00694844 0)
  (0.0795095 0.0248294 0)
  (0.108904 0.0325681 0)
  (0.11008 -0.0123784 0)
  (0.0955712 -0.0290699 0)
  (0.0857364 -0.0324476 0)
  (0.0793427 -0.0305198 0)
  (0.0742368 -0.0253961 0)
  (0.0704505 -0.0179781 0)
  (0.0710828 -0.0107966 0)
  (0.0764679 -0.00774553 0)
  (0.0809103 -0.00605914 0)
  (0.0835364 -0.00491485 0)
  (0.0849045 -0.00373305 0)
  (0.0845771 -0.00215906 0)
  (0.0815259 6.34462e-05 0)
  (0.0744545 0.00326541 0)
  (0.0606298 0.00805735 0)
  (0.0477636 0.0272102 0)
  (0.0353144 0.0423042 0)
  (0.0539498 0.0534319 0)
  (-0.125217 0.0893376 0)
  (0.630897 0.393284 0)
  (-0.24559 0.177465 0)
  (-0.0365721 0.132142 0)
  (-0.0621233 0.0939642 0)
  (-0.0692972 0.0548401 0)
  (-0.0669581 0.00568855 0)
  (-0.045046 -0.0537905 0)
  (-0.0226491 -0.104773 0)
  (-0.00156771 -0.13765 0)
  (0.0159527 -0.150299 0)
  (0.0289985 -0.146079 0)
  (0.0388043 -0.12985 0)
  (0.0462255 -0.105356 0)
  (0.052706 -0.07633 0)
  (0.0595585 -0.0469995 0)
  (0.0683747 -0.0213429 0)
  (0.0812846 -0.00500299 0)
  (0.0907972 -0.0110598 0)
  (0.0903598 -0.0222037 0)
  (0.0833077 -0.0259586 0)
  (0.0742621 -0.0256253 0)
  (0.0661727 -0.0235002 0)
  (0.0595547 -0.0197661 0)
  (0.0549522 -0.014397 0)
  (0.0535782 -0.00767158 0)
  (0.055224 -0.00425623 0)
  (0.0573782 -0.00299112 0)
  (0.0594335 -0.00210087 0)
  (0.0613625 -0.000407589 0)
  (0.0628074 0.00267713 0)
  (0.0625553 0.00728546 0)
  (0.0599704 0.0135856 0)
  (0.0543963 0.0221388 0)
  (0.0474143 0.0368538 0)
  (0.036876 0.0534125 0)
  (0.0619208 0.0714242 0)
  (-0.0303923 0.0993727 0)
  (0.0462927 0.0268844 0)
  (-0.0614391 -0.0332626 0)
  (-0.27243 -0.0561874 0)
  (0.723281 0.438725 0)
  (-0.286628 0.196545 0)
  (-0.0041223 0.128834 0)
  (-0.0139231 0.0950882 0)
  (-0.0104759 0.0549637 0)
  (0.015274 -0.00900468 0)
  (0.0437161 -0.0764709 0)
  (0.063649 -0.124871 0)
  (0.0757467 -0.151889 0)
  (0.0809787 -0.15956 0)
  (0.0809836 -0.15166 0)
  (0.0775609 -0.132655 0)
  (0.0725058 -0.106819 0)
  (0.0675846 -0.077973 0)
  (0.0642529 -0.0499521 0)
  (0.0635873 -0.0265534 0)
  (0.0658945 -0.0115925 0)
  (0.0671706 -0.00904584 0)
  (0.0638887 -0.0123263 0)
  (0.056776 -0.0154741 0)
  (0.048392 -0.0165431 0)
  (0.0407743 -0.0159265 0)
  (0.0346093 -0.0139603 0)
  (0.03041 -0.0108632 0)
  (0.0287348 -0.00742294 0)
  (0.0294275 -0.00592317 0)
  (0.0313602 -0.00571575 0)
  (0.0340294 -0.00542046 0)
  (0.0372422 -0.00387134 0)
  (0.0408279 -0.000104679 0)
  (0.0440796 0.00614799 0)
  (0.0460003 0.0145595 0)
  (0.0467941 0.0251665 0)
  (0.0477507 0.0390176 0)
  (0.0465778 0.0552174 0)
  (0.0709277 0.0760474 0)
  (0.0485308 0.0919266 0)
  (0.0927029 0.0633123 0)
  (0.115815 0.0428277 0)
  (-0.127887 -0.00618987 0)
  (0.77981 0.479899 0)
  (-0.30743 0.180959 0)
  (0.0256433 0.0772878 0)
  (0.0488412 0.0661345 0)
  (0.0690486 0.0303432 0)
  (0.114598 -0.0409678 0)
  (0.143355 -0.100488 0)
  (0.15601 -0.138217 0)
  (0.15547 -0.155375 0)
  (0.145093 -0.15544 0)
  (0.128394 -0.142478 0)
  (0.108573 -0.120839 0)
  (0.088476 -0.0947173 0)
  (0.0702409 -0.0673434 0)
  (0.0554282 -0.0418334 0)
  (0.0449305 -0.0214911 0)
  (0.0385466 -0.00877998 0)
  (0.0341349 -0.00480857 0)
  (0.0290745 -0.00596816 0)
  (0.0227565 -0.0082271 0)
  (0.0160596 -0.00955179 0)
  (0.00996562 -0.00980955 0)
  (0.00502223 -0.00925191 0)
  (0.00171629 -0.00815759 0)
  (0.000453423 -0.00717652 0)
  (0.00106129 -0.00733499 0)
  (0.00286141 -0.00821502 0)
  (0.00551846 -0.0088271 0)
  (0.00903004 -0.00814568 0)
  (0.0135305 -0.00503454 0)
  (0.0200301 0.00157716 0)
  (0.0266209 0.0107155 0)
  (0.0330629 0.0213365 0)
  (0.041054 0.0335832 0)
  (0.0493419 0.0467648 0)
  (0.0723362 0.0633774 0)
  (0.0856933 0.0687826 0)
  (0.119125 0.0458539 0)
  (0.15852 0.0407751 0)
  (-0.0306122 0.0926918 0)
  (0.886319 0.48033 0)
  (-0.0620155 0.159454 0)
  (0.11242 -0.000636719 0)
  (0.180229 -0.0387911 0)
  (0.222833 -0.067982 0)
  (0.252316 -0.100751 0)
  (0.262048 -0.126756 0)
  (0.25282 -0.140614 0)
  (0.228635 -0.141915 0)
  (0.194928 -0.132481 0)
  (0.15682 -0.114919 0)
  (0.118303 -0.0922775 0)
  (0.0826846 -0.0679435 0)
  (0.0518269 -0.0441569 0)
  (0.02745 -0.0232746 0)
  (0.0105832 -0.0082788 0)
  (0.000158959 -0.000454143 0)
  (-0.00535636 0.000994776 0)
  (-0.00940214 -0.000619317 0)
  (-0.0136888 -0.00271779 0)
  (-0.0182192 -0.00425479 0)
  (-0.0224429 -0.00521421 0)
  (-0.025963 -0.00580991 0)
  (-0.0284222 -0.00632215 0)
  (-0.0296312 -0.00713462 0)
  (-0.0298164 -0.00855421 0)
  (-0.0294266 -0.0103062 0)
  (-0.0286656 -0.0118385 0)
  (-0.0274199 -0.0125413 0)
  (-0.0252768 -0.0117459 0)
  (-0.0212021 -0.00869181 0)
  (-0.0121255 -0.00274813 0)
  (-0.00224192 0.0050798 0)
  (0.00936235 0.0129717 0)
  (0.0212461 0.0189492 0)
  (0.0404314 0.025115 0)
  (0.0571385 0.0172092 0)
  (0.0739421 -0.00816507 0)
  (0.13134 0.0424891 0)
  (-0.423345 0.209632 0)
  (1.03454 0.429492 0)
  (0.497682 0.28396 0)
  (0.505237 0.184796 0)
  (0.523028 0.104484 0)
  (0.497028 0.0422139 0)
  (0.443562 -0.0144963 0)
  (0.385531 -0.0566646 0)
  (0.324297 -0.0800748 0)
  (0.260199 -0.0864313 0)
  (0.19671 -0.0802942 0)
  (0.13728 -0.0661906 0)
  (0.0840636 -0.0478188 0)
  (0.0393612 -0.0286593 0)
  (0.00207538 -0.0107643 0)
  (-0.0231618 0.00084087 0)
  (-0.0352527 0.00518947 0)
  (-0.0407204 0.00591683 0)
  (-0.0436038 0.00467996 0)
  (-0.0460117 0.00265925 0)
  (-0.0485469 0.000700928 0)
  (-0.0512356 -0.000904237 0)
  (-0.054083 -0.00222016 0)
  (-0.0568402 -0.00344509 0)
  (-0.0593112 -0.00475621 0)
  (-0.0615063 -0.00626983 0)
  (-0.0637188 -0.00797615 0)
  (-0.0663857 -0.00961094 0)
  (-0.0698844 -0.0107188 0)
  (-0.0745796 -0.0107006 0)
  (-0.0809237 -0.00881354 0)
  (-0.0894512 -0.00421726 0)
  (-0.100179 0.00369466 0)
  (-0.111677 0.014472 0)
  (-0.127897 0.0280759 0)
  (-0.15342 0.0442718 0)
  (-0.190542 0.0616075 0)
  (-0.242076 0.0758697 0)
  (-0.299089 0.0842051 0)
  (-0.365132 0.0870659 0)
  (-0.620208 0.0860868 0)
  (-0.125483 0.0709851 0)
  (0.122687 0.0323391 0)
  (0.189263 -0.0339451 0)
  (0.174813 -0.0546591 0)
  (0.154599 -0.0546917 0)
  (0.126141 -0.0479695 0)
  (0.089348 -0.0377622 0)
  (0.0494436 -0.0251202 0)
  (0.00838934 -0.0104111 0)
  (-0.0298391 0.00286042 0)
  (-0.0534011 0.00972359 0)
  (-0.0666859 0.012471 0)
  (-0.0723916 0.0123152 0)
  (-0.0748152 0.0110958 0)
  (-0.0758961 0.00979328 0)
  (-0.0767253 0.00847535 0)
  (-0.0778819 0.00726098 0)
  (-0.0794942 0.0063155 0)
  (-0.0814378 0.00562501 0)
  (-0.0835145 0.00497086 0)
  (-0.0857162 0.00412087 0)
  (-0.0881478 0.00293514 0)
  (-0.0909166 0.00149869 0)
  (-0.0941595 0.000120708 0)
  (-0.0980139 -0.000837975 0)
  (-0.102495 -0.000965548 0)
  (-0.107518 0.000157134 0)
  (-0.11286 0.00292784 0)
  (-0.117942 0.00782407 0)
  (-0.122114 0.0155817 0)
  (-0.125637 0.0272577 0)
  (-0.128782 0.0431346 0)
  (-0.132427 0.0620176 0)
  (-0.136948 0.0799559 0)
  (-0.138813 0.0875013 0)
  (-0.118812 0.0651503 0)
  (-0.0592056 -0.0273757 0)
  (-0.278462 -0.207445 0)
  (0.00595581 0.224139 0)
  (0.0557045 0.0826016 0)
  (0.0214071 0.00357784 0)
  (0.00141489 -0.0157614 0)
  (-0.0235571 -0.0109056 0)
  (-0.0500621 -0.0055122 0)
  (-0.0751426 -6.53617e-05 0)
  (-0.094716 0.00523977 0)
  (-0.106042 0.00859932 0)
  (-0.110247 0.00886642 0)
  (-0.110826 0.00687317 0)
  (-0.109074 0.00432279 0)
  (-0.106291 0.00142167 0)
  (-0.103633 -0.00164884 0)
  (-0.101558 -0.00469456 0)
  (-0.10025 -0.00780003 0)
  (-0.0997494 -0.011 0)
  (-0.0999486 -0.0141272 0)
  (-0.100634 -0.016901 0)
  (-0.101597 -0.0190588 0)
  (-0.102724 -0.0204401 0)
  (-0.103989 -0.020987 0)
  (-0.105461 -0.0207696 0)
  (-0.107183 -0.0198591 0)
  (-0.109125 -0.0184581 0)
  (-0.111122 -0.0164544 0)
  (-0.112822 -0.0134642 0)
  (-0.113693 -0.00888743 0)
  (-0.113151 -0.00250716 0)
  (-0.110124 0.00617884 0)
  (-0.103179 0.0180358 0)
  (-0.0912115 0.033798 0)
  (-0.0742369 0.0527177 0)
  (-0.0529605 0.0695895 0)
  (-0.0309211 0.077723 0)
  (0.0122246 0.058146 0)
  (0.140702 -0.010052 0)
  (-0.206141 -0.115607 0)
  (0.938006 0.00557114 0)
  (-0.521285 -0.468981 0)
  (-0.322248 0.0821336 0)
  (-0.245847 -0.0178996 0)
  (-0.202123 -0.0296168 0)
  (-0.19351 -0.0157735 0)
  (-0.193097 -0.00435693 0)
  (-0.191871 0.00365018 0)
  (-0.188192 0.0106127 0)
  (-0.181455 0.017079 0)
  (-0.171997 0.0227901 0)
  (-0.161059 0.0273948 0)
  (-0.150186 0.0311469 0)
  (-0.140234 0.0347006 0)
  (-0.131554 0.0383335 0)
  (-0.124104 0.0422729 0)
  (-0.11765 0.0466053 0)
  (-0.112015 0.0511999 0)
  (-0.107127 0.0557384 0)
  (-0.102977 0.059758 0)
  (-0.0995782 0.0627627 0)
  (-0.0969559 0.064382 0)
  (-0.0951295 0.0644578 0)
  (-0.0940976 0.06302 0)
  (-0.0938323 0.0602585 0)
  (-0.0942672 0.0564501 0)
  (-0.0952005 0.052282 0)
  (-0.0963322 0.0481242 0)
  (-0.0972015 0.0441188 0)
  (-0.0970771 0.040359 0)
  (-0.0945823 0.0377328 0)
  (-0.0876876 0.0369759 0)
  (-0.0739069 0.0388704 0)
  (-0.0518971 0.0443261 0)
  (-0.0240789 0.0536509 0)
  (0.0279913 0.0657732 0)
  (0.0674571 0.0641698 0)
  (0.107813 0.049529 0)
  (0.163779 0.0219519 0)
  (-0.212143 -0.0314382 0)
)
;

boundaryField
{
  floor
  {
    type noSlip;
  }
  ceiling
  {
    type noSlip;
  }
  sWall
  {
    type noSlip;
  }
  nWall
  {
    type noSlip;
  }
  sideWalls
  {
    type empty;
  }
  glass1
  {
    type noSlip;
  }
  glass2
  {
    type noSlip;
  }
  sun
  {
    type noSlip;
  }
  heatsource1
  {
    type noSlip;
  }
  heatsource2
  {
    type noSlip;
  }
  Table_master
  {
    type noSlip;
  }
  Table_slave
  {
    type noSlip;
  }
  inlet
  {
    type fixedValue;
    value uniform (0.3 0 0);
  }
  outlet
  {
    type zeroGradient;
  }
} 	// ************************************************************************* //

