/*--------------------------------*- C++ -*----------------------------------*\
  =========                 |
  \\      /  F ield         | OpenFOAM: The Open Source CFD Toolbox
   \\    /   O peration     | Website:  https://openfoam.org
    \\  /    A nd           | Version:  6
     \\/     M anipulation  |
\*---------------------------------------------------------------------------*/
FoamFile
{
    version     2.0;
    format      ascii;
    class       surfaceScalarField;
    location    "1000";
    object      phi;
}
// * * * * * * * * * * * * * * * * * * * * * * * * * * * * * * * * * * * * * //

dimensions      [1 0 -1 0 0 0 0];

internalField   nonuniform List<scalar> 
852
(
-0.00295469
0.00301223
-0.00398518
0.0010305
-0.00478272
0.000797537
-0.00540789
0.000625183
-0.0058272
0.000419306
-0.0060128
0.000185611
-0.00593665
-7.61438e-05
-0.00557561
-0.00036104
-0.0049423
-0.000633307
-0.00409795
-0.000844345
-0.00313914
-0.000958801
-0.00217597
-0.000963169
-0.00130834
-0.000867626
-0.000593389
-0.000714943
-0.000591699
-0.000771997
0.000775051
-0.000509344
-0.000262648
8.55275e-05
-0.000594867
0.000579988
-0.000494456
0.00092035
-0.000340357
0.00114055
-0.000220191
0.00126254
-0.000121986
0.00132134
-5.88011e-05
0.00135362
-3.22746e-05
0.00137319
-1.95672e-05
0.00138397
-1.07722e-05
0.00138746
-3.48168e-06
0.00138236
5.10231e-06
0.00136128
2.108e-05
0.00130344
5.78507e-05
0.00117406
0.000129384
0.000962507
0.000211557
0.000709238
0.000253273
0.000713335
-0.00211703
0.00528428
-0.00313249
0.00204596
-0.00396071
0.00162576
-0.00458252
0.00124699
-0.00499995
0.000836742
-0.00519456
0.000380227
-0.005135
-0.000135692
-0.00480177
-0.000694266
-0.0042195
-0.00121558
-0.00346056
-0.00160328
-0.00262058
-0.00179877
-0.00179446
-0.00178929
-0.00106298
-0.0015991
-0.000505157
-0.00127276
-0.00024383
-0.000853022
8.52594e-05
-0.000329136
8.52131e-05
0.000273688
0.000510234
0.00067279
-0.000661745
0.000931906
-0.000853979
0.00115113
-0.00071368
0.00132487
-0.00051409
0.00143609
-0.000331409
0.00145533
-0.000141221
0.00146011
-6.35736e-05
0.00146598
-3.8136e-05
0.00147093
-2.45145e-05
0.00147422
-1.40629e-05
0.00147598
-5.23471e-06
0.00147557
5.51433e-06
0.00146985
2.68069e-05
0.00143128
9.64288e-05
0.00126561
0.00029506
0.000978168
0.000499
0.000620327
0.000611119
0.00134403
-0.00148891
0.00701029
-0.00237022
0.00292727
-0.00311155
0.0023671
-0.00365007
0.00178552
-0.00402142
0.0012081
-0.00420263
0.000561436
-0.00414023
-0.000198081
-0.00380463
-0.00102987
-0.00324486
-0.00177534
-0.00255246
-0.00229568
-0.00182073
-0.00253049
-0.00112484
-0.00248517
-0.000517569
-0.00220637
-3.8919e-05
-0.00175141
0.00027829
-0.00117023
0.000434625
-0.000485467
0.000519843
0.00149031
-0.00097042
0.00170799
-0.000879418
0.00166366
-0.000809647
0.0016515
-0.000701514
0.00167562
-0.000538204
0.00171408
-0.000369863
0.00157301
0.0015096
0.00147162
0.00144726
0.00143336
0.00142828
0.00143395
0.00146092
0.0015575
0.00128561
0.000566957
0.000953015
0.000831601
0.000534943
0.0010292
0.00189463
-0.00104385
0.00836107
-0.00174752
0.00363094
-0.0022472
0.00286679
-0.00260955
0.00214787
-0.00286762
0.00146618
-0.00298794
0.000681766
-0.00287407
-0.000311944
-0.0025003
-0.00140364
-0.0019629
-0.00231274
-0.00136571
-0.00289286
-0.000784026
-0.00311218
-0.000261883
-0.00300731
0.000183792
-0.00265204
0.000551401
-0.00211901
0.000876095
-0.00149492
0.00124283
-0.000852199
0.00207383
-0.000311151
0.0024572
-0.000374816
0.00209732
-0.000610543
0.00196867
-0.00075076
0.00184885
-0.000689825
0.00174133
-0.000593985
0.00167562
-0.000472495
0.0016273
-0.000321536
0.00176929
-0.000142141
0.00186003
-9.08842e-05
0.00193466
-7.47849e-05
0.00199418
-5.96692e-05
0.00202385
-2.98202e-05
0.00200115
2.25526e-05
0.00190008
0.000100919
0.00168703
0.0002129
0.00130702
0.000379869
0.00114366
0.000730316
0.000826581
0.00114868
0.000350023
0.00150576
0.00226505
-0.000730188
0.00945742
-0.00126755
0.00416831
-0.00139268
0.00299192
-0.00149098
0.00224617
-0.00155961
0.00153481
-0.00154086
0.00066302
-0.00128971
-0.000563093
-0.00086126
-0.00183208
-0.000387955
-0.00278604
4.90691e-05
-0.00332988
0.000410869
-0.00347397
0.000690119
-0.00328655
0.000904652
-0.00286657
0.00108567
-0.00230003
0.00126605
-0.00167529
0.00149427
-0.00108041
0.00181348
-0.000630353
0.00192498
-0.000486312
0.00184642
-0.000531985
0.00167496
-0.000579297
0.00152387
-0.000538723
0.00139624
-0.000466358
0.00130518
-0.000381433
0.00126664
-0.000282986
0.00131553
-0.000191034
0.00137522
-0.000150565
0.00143935
-0.000138911
0.00150416
-0.000124481
0.0015587
-8.43543e-05
0.00158188
-6.22441e-07
0.00155151
0.000131294
0.00145576
0.000308651
0.00129613
0.000539506
0.00114597
0.000880472
0.000976228
0.00131843
0.00061034
0.00187165
0.000494207
0.00238119
-0.00100054
0.00149454
-0.00146256
0.000461823
-0.00141374
-0.000632755
0.0105063
-0.00100423
0.00453979
-0.000614313
0.00260201
-0.000331102
0.00196297
-0.000128157
0.00133187
0.000169451
0.000365417
0.000629987
-0.00102362
0.00106679
-0.00226887
0.00138801
-0.00310725
0.00157403
-0.0035159
0.00164462
-0.00354456
0.00163397
-0.0032759
0.00157172
-0.00280432
0.00149512
-0.00222343
0.00143748
-0.00161765
0.00142442
-0.00106735
0.00145083
-0.000656757
0.0014184
-0.000453877
0.00129553
-0.000409112
0.00111985
-0.000403608
0.000960552
-0.000379425
0.000835886
-0.000341688
0.00075351
-0.000299054
0.000723771
-0.000253243
0.000749096
-0.000216356
0.000804556
-0.000206022
0.000876291
-0.000210643
0.000958397
-0.000206584
0.00104464
-0.000170594
0.00112358
-7.95593e-05
0.00117608
7.87929e-05
0.00119597
0.000288771
0.00119288
0.0005426
0.00121174
0.00086161
0.00129901
0.00123117
0.00147068
0.00169999
0.0019074
0.00194447
0.00216633
0.00123562
0.00177805
0.000850103
0.000422956
-0.000724201
0.0116911
-0.000614868
0.00443046
0.000452916
0.00153423
0.00110847
0.00130742
0.00164196
0.000798386
0.0022679
-0.000260514
0.00283317
-0.00158889
0.00315441
-0.00259011
0.00322391
-0.00317674
0.00308537
-0.00337735
0.00280003
-0.00325921
0.00243177
-0.00290763
0.00203401
-0.00240655
0.00165473
-0.00184414
0.00132783
-0.00129075
0.00107335
-0.000812865
0.000890324
-0.000473732
0.000735202
-0.000298751
0.000573321
-0.000247228
0.000412154
-0.000242438
0.000275031
-0.000242299
0.000172945
-0.000239598
0.000109774
-0.00023588
8.93475e-05
-0.000232814
0.000109313
-0.000236318
0.000155953
-0.00025266
0.000218902
-0.000273589
0.000296428
-0.000284107
0.000392637
-0.0002668
0.00051253
-0.000199449
0.000644589
-5.3263e-05
0.000776336
0.000157027
0.000916967
0.000401972
0.0011055
0.000673077
0.0013885
0.000948177
0.0018328
0.00125569
0.00250216
0.00127511
0.00304617
0.000691616
0.00306765
0.000828631
0.00355371
0.00259494
0.00961082
0.00326608
0.00375933
0.0034143
0.00138601
0.00384001
0.000881701
0.00449934
0.000139068
0.0051899
-0.000951074
0.00548858
-0.00188757
0.00538896
-0.00249048
0.00497089
-0.00275867
0.00433516
-0.00274161
0.00358237
-0.00250642
0.00279968
-0.00212493
0.00204565
-0.00165252
0.00137526
-0.00117374
0.000818231
-0.000733724
0.000394444
-0.000389074
0.000106987
-0.000186272
-8.60071e-05
-0.000105754
-0.000232759
-0.000100473
-0.000354584
-0.000120609
-0.000453375
-0.000143505
-0.000527721
-0.000165249
-0.000577352
-0.000186246
-0.000602351
-0.000207811
-0.000606186
-0.00023248
-0.000597557
-0.000261286
-0.000582221
-0.000288922
-0.000559428
-0.000306897
-0.00052084
-0.000305385
-0.000447365
-0.000272921
-0.000307606
-0.00019302
-0.000115668
-3.49087e-05
0.000108637
0.00017767
0.000384707
0.00039701
0.000722841
0.000610047
0.00116326
0.000815272
0.00163371
0.000804668
0.00181804
0.000507283
0.00106269
0.00158399
0.00487743
0.0101758
0.013928
0.0122173
0.00309673
0.0112744
0.00182455
0.0105354
0.000878084
0.00967313
-8.87677e-05
0.00855287
-0.000767309
0.00728061
-0.00121822
0.00595021
-0.00142826
0.00462808
-0.00141948
0.00337561
-0.00125394
0.00224691
-0.000996228
0.00124874
-0.000654348
0.000424039
-0.000349042
-0.000192819
-0.000116863
-0.000586244
4.35368e-06
-0.000804041
3.15283e-05
-0.000929803
2.00116e-05
-0.00102253
-7.73897e-06
-0.00110382
-3.93196e-05
-0.00117701
-7.03171e-05
-0.00124257
-9.96862e-05
-0.00130144
-0.000127368
-0.00135539
-0.000153862
-0.00140857
-0.000179292
-0.00146817
-0.000201683
-0.00154147
-0.000215621
-0.00163573
-0.000212638
-0.00175989
-0.000181223
-0.00192548
-0.000107329
-0.00214049
2.19976e-05
-0.00239118
0.000215781
-0.00270229
0.000488784
-0.00316247
0.000857199
-0.00386878
0.00131636
-0.00488458
0.00183107
-0.00632266
0.00224275
-0.00804874
0.00223336
-0.00752654
0.00106179
-0.00235971
0.00511764
0.00460055
0.00414215
0.00280005
0.00456591
0.000454337
0.00461712
-0.000139969
0.00422328
-0.000373471
0.00355773
-0.000552667
0.00272244
-0.000592962
0.00180805
-0.000505085
0.000891434
-0.000337326
2.26745e-05
-0.000127466
-0.000699498
6.78271e-05
-0.00118583
0.000137287
-0.00145707
0.000154383
-0.0015903
0.000137589
-0.00166273
0.00010396
-0.00171311
7.03932e-05
-0.00176002
3.91786e-05
-0.00181132
1.19842e-05
-0.00186999
-1.16429e-05
-0.00193579
-3.38838e-05
-0.00200862
-5.45418e-05
-0.0020893
-7.31803e-05
-0.00217941
-8.91705e-05
-0.00228117
-9.99275e-05
-0.0023956
-0.000101188
-0.00252137
-8.68617e-05
-0.00265358
-4.90122e-05
-0.00278295
2.20466e-05
-0.00289723
0.00013628
-0.00299413
0.000312688
-0.00308255
0.000577211
-0.00317016
0.000944804
-0.00325535
0.00140156
-0.0032906
0.00186633
-0.00321417
0.00216633
-0.00284367
0.00186286
-0.00156934
-0.000212531
-0.00385331
-0.000434243
0.00509069
0.000864517
0.00150129
0.000875752
0.000443106
0.000647245
8.85408e-05
0.000311172
-3.73975e-05
-0.000188146
-5.33497e-05
-0.00077998
-1.12686e-06
-0.00135089
6.58269e-05
-0.00181315
0.000124933
-0.00211102
0.000170408
-0.00223764
0.000194455
-0.00228356
0.000183209
-0.00228776
0.000158586
-0.00227993
0.000129758
-0.00227846
0.000102495
-0.00228727
7.92064e-05
-0.00230658
5.84866e-05
-0.00233419
3.9601e-05
-0.0023686
2.27657e-05
-0.00241012
7.64216e-06
-0.00245876
-5.90001e-06
-0.00251445
-1.74839e-05
-0.00257672
-2.68976e-05
-0.00264366
-3.29862e-05
-0.0027112
-3.3648e-05
-0.00277235
-2.57052e-05
-0.00281641
-4.95378e-06
-0.0028308
3.64461e-05
-0.00280208
0.000107565
-0.00270666
0.000217266
-0.00251121
0.000381763
-0.00218859
0.000622192
-0.00172552
0.00093849
-0.00109935
0.00124016
-0.000127768
0.00119475
0.00117108
0.000564013
0.00157003
-0.00061147
-0.00220011
0.000176591
-0.0108425
-0.00570785
-0.0041832
-0.00372527
-0.00362673
-0.00365728
-0.00370608
-0.00370439
-0.00363701
-0.00351155
-0.00334149
-0.00314812
-0.00296661
-0.00281023
-0.00268307
-0.00258347
-0.00250739
-0.00245219
-0.00241598
-0.00239665
-0.00239246
-0.0024018
-0.00242268
-0.00245293
-0.0024892
-0.00252606
-0.0025549
-0.00256289
-0.00252938
-0.00242464
-0.00221009
-0.00183096
-0.00121131
-0.000275313
0.000962343
0.00215448
0.00271571
0.00210125
)
;

boundaryField
{
    floor
    {
        type            calculated;
        value           nonuniform List<scalar> 
29
(
0
0
0
0
0
0
0
0
0
0
0
0
0
0
0
0
0
0
0
0
-4.09147e-06
-1.03641e-05
-1.56544e-05
-2.03922e-05
-1.68495e-06
-3.04959e-06
-8.86606e-06
-9.65322e-06
-8.54822e-06
)
;
    }
    ceiling
    {
        type            calculated;
        value           nonuniform List<scalar> 
43
(
-2.37798e-05
-4.38323e-05
-4.39973e-05
-2.33641e-05
-1.48232e-05
-9.99417e-06
-6.84445e-06
-4.55518e-06
-2.81416e-06
-1.54901e-06
-5.19826e-07
3.45911e-07
1.08471e-06
1.70458e-06
2.20618e-06
2.59971e-06
2.90334e-06
3.13068e-06
3.28996e-06
3.38941e-06
3.44005e-06
3.45355e-06
3.43852e-06
3.40287e-06
3.35272e-06
3.29029e-06
3.21705e-06
3.13385e-06
3.04087e-06
2.93692e-06
2.82976e-06
2.72569e-06
2.62969e-06
2.54874e-06
2.49565e-06
2.50698e-06
2.61406e-06
2.78219e-06
2.99428e-06
3.98314e-06
1.01393e-05
7.10273e-06
-5.59004e-05
)
;
    }
    sWall
    {
        type            calculated;
        value           uniform -0.000230401;
    }
    nWall
    {
        type            calculated;
        value           nonuniform List<scalar> 6(-4.90245e-05 -5.86332e-05 -6.31032e-05 -7.57422e-05 -8.31687e-05 -0.000102839);
    }
    sideWalls
    {
        type            empty;
        value           nonuniform 0();
    }
    glass1
    {
        type            calculated;
        value           nonuniform List<scalar> 9(-5.75442e-05 -0.000155012 -0.000237091 -0.000306917 -0.000366163 -0.000416084 -0.000460649 -0.000514634 -0.00057508);
    }
    glass2
    {
        type            calculated;
        value           nonuniform List<scalar> 2(-0.000261028 -0.000289386);
    }
    sun
    {
        type            calculated;
        value           uniform 0;
    }
    heatsource1
    {
        type            calculated;
        value           nonuniform List<scalar> 3(2.04262e-07 2.04196e-07 2.04213e-07);
    }
    heatsource2
    {
        type            calculated;
        value           nonuniform List<scalar> 4(5.12002e-08 5.12933e-08 0 0);
    }
    Table_master
    {
        type            calculated;
        value           nonuniform List<scalar> 9(-1.53188e-07 -1.53275e-07 -1.53307e-07 -1.53329e-07 -1.53344e-07 -1.53355e-07 -1.5336e-07 -1.53356e-07 -1.53327e-07);
    }
    Table_slave
    {
        type            calculated;
        value           nonuniform List<scalar> 9(1.53066e-07 1.53081e-07 1.53058e-07 1.53039e-07 1.53031e-07 1.53034e-07 1.53048e-07 1.5309e-07 1.53172e-07);
    }
    inlet
    {
        type            calculated;
        value           uniform -0.00662146;
    }
    outlet
    {
        type            calculated;
        value           nonuniform List<scalar> 2(7.75903e-05 0.011063);
    }
}


// ************************************************************************* //
