// -*- C++ -*-
// File generated by PyFoam - sorry for the ugliness

FoamFile
{
 version 2.0;
 format ascii;
 class volVectorField;
 location "1000";
 object U;
}

dimensions [ 0 1 -1 0 0 0 0 ];

internalField nonuniform List<vector> 459
(
  (0.0350942 0.0857498 0)
  (-0.16677 0.0252657 0)
  (-0.19115 0.0178464 0)
  (-0.222154 0.0122716 0)
  (-0.244774 0.00609996 0)
  (-0.257939 -0.000473022 0)
  (-0.259997 -0.00751952 0)
  (-0.249569 -0.015069 0)
  (-0.227181 -0.0224972 0)
  (-0.194572 -0.0284986 0)
  (-0.155332 -0.031977 0)
  (-0.113756 -0.0323805 0)
  (-0.0740276 -0.0299236 0)
  (-0.0413965 -0.0258703 0)
  (-0.0299051 -0.022149 0)
  (-0.0052982 0.00875404 0)
  (-0.0287699 -0.0168735 0)
  (-0.00694308 -0.0265135 0)
  (0.0163623 -0.0202559 0)
  (0.0317671 -0.0138353 0)
  (0.0442819 -0.00893956 0)
  (0.0521215 -0.00519916 0)
  (0.0561669 -0.00324236 0)
  (0.0579736 -0.00245824 0)
  (0.058857 -0.00212127 0)
  (0.059396 -0.00191363 0)
  (0.0596852 -0.00174651 0)
  (0.059669 -0.00154112 0)
  (0.0591642 -0.00113455 0)
  (0.0576533 -0.000163807 0)
  (0.0540243 0.00187015 0)
  (0.0470733 0.00397577 0)
  (0.0412349 0.0055043 0)
  (-0.0147706 0.0201377 0)
  (0.210338 0.175774 0)
  (-0.156411 0.0669025 0)
  (-0.154368 0.0529062 0)
  (-0.186581 0.0413323 0)
  (-0.209055 0.0281763 0)
  (-0.222506 0.0133296 0)
  (-0.225255 -0.00355087 0)
  (-0.215729 -0.0219716 0)
  (-0.195044 -0.039438 0)
  (-0.16536 -0.0528689 0)
  (-0.130422 -0.0601116 0)
  (-0.094283 -0.0604218 0)
  (-0.0605276 -0.0544143 0)
  (-0.0327265 -0.0437303 0)
  (-0.0149779 -0.0307478 0)
  (-0.000974874 -0.0125602 0)
  (-0.00145447 0.0154196 0)
  (0.0635529 0.0359851 0)
  (0.0252582 -0.0177309 0)
  (0.0334473 -0.030987 0)
  (0.0445219 -0.0275155 0)
  (0.0533515 -0.019727 0)
  (0.0597874 -0.0122736 0)
  (0.0625621 -0.00518165 0)
  (0.063086 -0.00111973 0)
  (0.0630332 0.000580758 0)
  (0.063139 0.00133662 0)
  (0.0633395 0.00180173 0)
  (0.0634865 0.00218618 0)
  (0.0635365 0.00264895 0)
  (0.0634488 0.00350233 0)
  (0.06272 0.00560329 0)
  (0.0590455 0.0114754 0)
  (0.049706 0.0162601 0)
  (0.0459029 0.0191673 0)
  (-0.0516595 0.0438508 0)
  (0.371093 0.263151 0)
  (-0.173859 0.106794 0)
  (-0.116039 0.0857513 0)
  (-0.147579 0.0650053 0)
  (-0.167648 0.0433001 0)
  (-0.180252 0.0191606 0)
  (-0.182766 -0.00833233 0)
  (-0.172601 -0.0378822 0)
  (-0.152098 -0.0650463 0)
  (-0.124358 -0.084742 0)
  (-0.0933414 -0.0942096 0)
  (-0.062648 -0.0931208 0)
  (-0.0346159 -0.0829204 0)
  (-0.0114155 -0.0657552 0)
  (0.00589532 -0.0429543 0)
  (0.0174856 -0.0163892 0)
  (0.0223508 0.0205348 0)
  (0.1112 -0.0279975 0)
  (0.0742192 -0.0378762 0)
  (0.0685772 -0.0380137 0)
  (0.0701301 -0.0324216 0)
  (0.0715151 -0.0244534 0)
  (0.0728087 -0.0174841 0)
  (0.0715579 -0.0140268 0)
  (0.0670755 -0.00995255 0)
  (0.0638335 -0.00772535 0)
  (0.0623825 -0.00644806 0)
  (0.0617789 -0.00562678 0)
  (0.0614883 -0.00505681 0)
  (0.0615011 -0.00454897 0)
  (0.0622479 -0.00374707 0)
  (0.064826 -0.000716907 0)
  (0.0627785 0.0160469 0)
  (0.0496276 0.0275475 0)
  (0.0526674 0.0349439 0)
  (-0.0840165 0.0684862 0)
  (0.516077 0.333498 0)
  (-0.209142 0.14229 0)
  (-0.0752172 0.113781 0)
  (-0.105619 0.0852307 0)
  (-0.120243 0.0574242 0)
  (-0.129721 0.0258133 0)
  (-0.129515 -0.0120865 0)
  (-0.116312 -0.0533947 0)
  (-0.0952505 -0.0896202 0)
  (-0.0703621 -0.113973 0)
  (-0.0449939 -0.124149 0)
  (-0.0218433 -0.120995 0)
  (-0.00123216 -0.106872 0)
  (0.0159719 -0.0847068 0)
  (0.030336 -0.0583874 0)
  (0.045569 -0.0295462 0)
  (0.0672972 0.00176383 0)
  (0.0977559 0.0150172 0)
  (0.103297 -0.0236202 0)
  (0.0897574 -0.0336542 0)
  (0.0810976 -0.0324868 0)
  (0.0764185 -0.0282147 0)
  (0.0729867 -0.0221448 0)
  (0.0707978 -0.0144724 0)
  (0.0723178 -0.00886667 0)
  (0.0773917 -0.00675698 0)
  (0.0817661 -0.00558223 0)
  (0.0847843 -0.00472574 0)
  (0.0867172 -0.00373118 0)
  (0.0870935 -0.002314 0)
  (0.0847287 -0.000216428 0)
  (0.078367 0.00285864 0)
  (0.0655275 0.00743837 0)
  (0.0530582 0.0267063 0)
  (0.0405922 0.0428625 0)
  (0.0569297 0.0553517 0)
  (-0.118582 0.0905305 0)
  (0.641503 0.388058 0)
  (-0.252057 0.171397 0)
  (-0.0344555 0.130041 0)
  (-0.0616171 0.0968945 0)
  (-0.0681746 0.0657277 0)
  (-0.0717821 0.0292951 0)
  (-0.0633529 -0.0179077 0)
  (-0.0447142 -0.0702976 0)
  (-0.024308 -0.112191 0)
  (-0.0050572 -0.13743 0)
  (0.0116895 -0.145341 0)
  (0.0243926 -0.138549 0)
  (0.0344116 -0.121548 0)
  (0.0424488 -0.0977853 0)
  (0.0497714 -0.0707712 0)
  (0.0583449 -0.0442085 0)
  (0.070917 -0.0242695 0)
  (0.0815931 -0.0224089 0)
  (0.0829145 -0.0297444 0)
  (0.0767442 -0.0301901 0)
  (0.068799 -0.0269882 0)
  (0.0623747 -0.0229715 0)
  (0.0576232 -0.0183645 0)
  (0.0548797 -0.0130504 0)
  (0.0549717 -0.00750977 0)
  (0.0575566 -0.00484777 0)
  (0.0605094 -0.00388713 0)
  (0.063339 -0.00309605 0)
  (0.0659231 -0.00145642 0)
  (0.0678992 0.00164959 0)
  (0.0679871 0.00630193 0)
  (0.0655719 0.0126299 0)
  (0.0600837 0.0212523 0)
  (0.053048 0.03647 0)
  (0.0425614 0.0543968 0)
  (0.0651474 0.0742966 0)
  (-0.0233488 0.102844 0)
  (0.0460814 0.0308625 0)
  (-0.0627451 -0.0347657 0)
  (-0.273508 -0.0575087 0)
  (0.732621 0.433628 0)
  (-0.293808 0.191124 0)
  (-0.00319283 0.126759 0)
  (-0.0167129 0.0983559 0)
  (-0.0127579 0.0683166 0)
  (-0.00825802 0.0273881 0)
  (0.0187636 -0.0338996 0)
  (0.0407131 -0.0904334 0)
  (0.0565001 -0.129824 0)
  (0.0663444 -0.150479 0)
  (0.0707879 -0.154217 0)
  (0.0711026 -0.144437 0)
  (0.0687942 -0.12517 0)
  (0.0652941 -0.100372 0)
  (0.0620804 -0.0737486 0)
  (0.060565 -0.0489181 0)
  (0.0616561 -0.0301317 0)
  (0.0624208 -0.0222042 0)
  (0.0592171 -0.021369 0)
  (0.0523485 -0.0211385 0)
  (0.0446094 -0.0194713 0)
  (0.038221 -0.0170933 0)
  (0.0336959 -0.0143523 0)
  (0.0313017 -0.0112908 0)
  (0.0312572 -0.00851324 0)
  (0.0331725 -0.00749282 0)
  (0.0360147 -0.00740173 0)
  (0.039339 -0.00700574 0)
  (0.0429546 -0.00529667 0)
  (0.046562 -0.00137875 0)
  (0.0498657 0.00508569 0)
  (0.0515423 0.0136662 0)
  (0.0518957 0.024469 0)
  (0.0523262 0.038975 0)
  (0.0509079 0.056684 0)
  (0.0736548 0.079375 0)
  (0.0523253 0.0968136 0)
  (0.0935336 0.0674973 0)
  (0.116609 0.0444671 0)
  (-0.129907 -0.00746435 0)
  (0.783976 0.475054 0)
  (-0.314847 0.17676 0)
  (0.0233574 0.0775897 0)
  (0.0414419 0.0754934 0)
  (0.0558549 0.0550985 0)
  (0.0790408 0.00623727 0)
  (0.114301 -0.0583017 0)
  (0.134344 -0.10826 0)
  (0.141468 -0.139129 0)
  (0.138453 -0.15208 0)
  (0.127943 -0.149956 0)
  (0.11278 -0.136413 0)
  (0.0954994 -0.115251 0)
  (0.0782958 -0.0903997 0)
  (0.062874 -0.0651625 0)
  (0.0504909 -0.042597 0)
  (0.0416447 -0.0258467 0)
  (0.0349391 -0.0171022 0)
  (0.0282752 -0.0143709 0)
  (0.0211559 -0.0137586 0)
  (0.0145048 -0.0130647 0)
  (0.00924479 -0.0121673 0)
  (0.0056602 -0.0112016 0)
  (0.00389106 -0.010218 0)
  (0.00397772 -0.00960176 0)
  (0.00553151 -0.00990549 0)
  (0.00791991 -0.0105931 0)
  (0.0108822 -0.0108032 0)
  (0.0144587 -0.00965781 0)
  (0.0187736 -0.006131 0)
  (0.0247629 0.000817324 0)
  (0.030895 0.0103003 0)
  (0.0365745 0.021299 0)
  (0.0437195 0.0342791 0)
  (0.0514203 0.0489332 0)
  (0.0736644 0.0673142 0)
  (0.0866849 0.0746065 0)
  (0.11914 0.0516823 0)
  (0.158932 0.043737 0)
  (-0.0348254 0.0941921 0)
  (0.88853 0.478138 0)
  (-0.0721725 0.156561 0)
  (0.105385 0.00486344 0)
  (0.167597 -0.013373 0)
  (0.179239 -0.0300278 0)
  (0.21321 -0.0647675 0)
  (0.235951 -0.0985231 0)
  (0.239615 -0.123168 0)
  (0.226721 -0.136009 0)
  (0.202196 -0.137095 0)
  (0.170795 -0.128089 0)
  (0.136726 -0.111609 0)
  (0.102996 -0.0902146 0)
  (0.0720513 -0.0672213 0)
  (0.0454263 -0.0451941 0)
  (0.0244308 -0.0265951 0)
  (0.00961645 -0.0140591 0)
  (-0.000205641 -0.00824107 0)
  (-0.00714126 -0.00704036 0)
  (-0.0128368 -0.00743613 0)
  (-0.0176304 -0.00798957 0)
  (-0.0213783 -0.00849868 0)
  (-0.0240425 -0.00900977 0)
  (-0.0256076 -0.00959828 0)
  (-0.0261462 -0.0104387 0)
  (-0.0259711 -0.0116381 0)
  (-0.0254486 -0.0129133 0)
  (-0.0246928 -0.013819 0)
  (-0.0235474 -0.0138567 0)
  (-0.0216193 -0.0124371 0)
  (-0.0179295 -0.00880851 0)
  (-0.00896293 -0.00220542 0)
  (0.000116217 0.00646524 0)
  (0.0108543 0.0149558 0)
  (0.0226155 0.0220821 0)
  (0.0424966 0.0293914 0)
  (0.0609074 0.0221515 0)
  (0.0801238 -0.00553293 0)
  (0.139253 0.0406158 0)
  (-0.417205 0.208187 0)
  (1.03328 0.430636 0)
  (0.497757 0.285576 0)
  (0.503577 0.193044 0)
  (0.510372 0.1227 0)
  (0.483346 0.0716725 0)
  (0.442403 0.0190233 0)
  (0.393603 -0.0297613 0)
  (0.341136 -0.0652628 0)
  (0.284867 -0.0843436 0)
  (0.227106 -0.0886545 0)
  (0.170976 -0.0821028 0)
  (0.119338 -0.0688084 0)
  (0.0731224 -0.0513445 0)
  (0.0342172 -0.0332612 0)
  (0.00241162 -0.0168716 0)
  (-0.0193891 -0.00600358 0)
  (-0.0311802 -0.00176279 0)
  (-0.0378105 -0.00102426 0)
  (-0.0421604 -0.00188716 0)
  (-0.0458586 -0.00320529 0)
  (-0.0491852 -0.00453416 0)
  (-0.0521738 -0.00580592 0)
  (-0.0548388 -0.00704992 0)
  (-0.0572245 -0.0083073 0)
  (-0.0594632 -0.00961844 0)
  (-0.0618278 -0.0109408 0)
  (-0.064642 -0.0120472 0)
  (-0.0681993 -0.0125592 0)
  (-0.0728236 -0.0119477 0)
  (-0.0789752 -0.00951513 0)
  (-0.0872513 -0.0044387 0)
  (-0.0977563 0.00391044 0)
  (-0.108358 0.0149885 0)
  (-0.123784 0.0289324 0)
  (-0.1482 0.0457605 0)
  (-0.184121 0.0642204 0)
  (-0.234832 0.0801653 0)
  (-0.292324 0.0909592 0)
  (-0.361026 0.0966538 0)
  (-0.623454 0.0980041 0)
  (-0.150479 0.0856852 0)
  (0.136892 0.0672631 0)
  (0.22115 0.0126918 0)
  (0.204763 -0.0241898 0)
  (0.18959 -0.0406336 0)
  (0.167833 -0.0472229 0)
  (0.136067 -0.0469686 0)
  (0.0979094 -0.0414855 0)
  (0.0579759 -0.0323516 0)
  (0.020266 -0.0207233 0)
  (-0.0179874 -0.0063511 0)
  (-0.0431306 0.00213109 0)
  (-0.0587653 0.00602129 0)
  (-0.0666852 0.00674037 0)
  (-0.0703627 0.00594772 0)
  (-0.0727694 0.00485804 0)
  (-0.0747797 0.00370278 0)
  (-0.0768217 0.00256161 0)
  (-0.0791993 0.00139998 0)
  (-0.0819014 0.000179183 0)
  (-0.0848784 -0.0010443 0)
  (-0.0881596 -0.00220423 0)
  (-0.0918123 -0.00321428 0)
  (-0.0959361 -0.00392745 0)
  (-0.10061 -0.0041066 0)
  (-0.105831 -0.00343655 0)
  (-0.111493 -0.0015502 0)
  (-0.117354 0.00193325 0)
  (-0.122816 0.0074292 0)
  (-0.127023 0.0156239 0)
  (-0.130478 0.0276471 0)
  (-0.133464 0.0438603 0)
  (-0.136843 0.0633156 0)
  (-0.141148 0.0822453 0)
  (-0.143143 0.0906438 0)
  (-0.125652 0.0676313 0)
  (-0.0806344 -0.0265979 0)
  (-0.280205 -0.205506 0)
  (-0.02501 0.235268 0)
  (0.0637405 0.10455 0)
  (0.0400913 0.0234858 0)
  (0.0279476 -0.00120323 0)
  (0.0211036 -0.00813448 0)
  (0.00446496 -0.0112261 0)
  (-0.0200891 -0.00922981 0)
  (-0.046479 -0.00434882 0)
  (-0.0695675 0.000601962 0)
  (-0.0861072 0.00420984 0)
  (-0.0948745 0.00517742 0)
  (-0.0980077 0.00334711 0)
  (-0.0988054 0.00066312 0)
  (-0.0984555 -0.00238731 0)
  (-0.0981053 -0.00547516 0)
  (-0.0982306 -0.00828043 0)
  (-0.0988526 -0.0107066 0)
  (-0.0998919 -0.0126152 0)
  (-0.101229 -0.0139318 0)
  (-0.102851 -0.0147166 0)
  (-0.104791 -0.0150442 0)
  (-0.107042 -0.0150427 0)
  (-0.109604 -0.0148417 0)
  (-0.112436 -0.0144023 0)
  (-0.115415 -0.0135945 0)
  (-0.118305 -0.012183 0)
  (-0.120736 -0.00980522 0)
  (-0.122186 -0.00592589 0)
  (-0.122061 -0.000194353 0)
  (-0.119363 0.00796446 0)
  (-0.112628 0.0194479 0)
  (-0.10059 0.0350233 0)
  (-0.0830397 0.0542308 0)
  (-0.0609191 0.072836 0)
  (-0.0371573 0.0836311 0)
  (0.00330868 0.0676645 0)
  (0.14339 -0.00377489 0)
  (-0.207843 -0.116316 0)
  (0.941622 -0.00454229 0)
  (-0.537728 -0.459013 0)
  (-0.316177 0.0920926 0)
  (-0.225366 -0.0198086 0)
  (-0.176112 -0.0449309 0)
  (-0.159836 -0.0345252 0)
  (-0.156975 -0.0219925 0)
  (-0.158591 -0.0116705 0)
  (-0.160148 -0.00286599 0)
  (-0.158439 0.00449812 0)
  (-0.154348 0.0110249 0)
  (-0.14784 0.0168508 0)
  (-0.139779 0.0217453 0)
  (-0.131598 0.025618 0)
  (-0.124264 0.0290858 0)
  (-0.11813 0.0323378 0)
  (-0.113255 0.0354346 0)
  (-0.109485 0.0382201 0)
  (-0.10667 0.0403964 0)
  (-0.10471 0.0417318 0)
  (-0.103519 0.0421378 0)
  (-0.103019 0.0416763 0)
  (-0.103142 0.0404742 0)
  (-0.103816 0.0388043 0)
  (-0.104959 0.0369536 0)
  (-0.106461 0.0350324 0)
  (-0.108143 0.0331347 0)
  (-0.109722 0.0313459 0)
  (-0.110761 0.0297437 0)
  (-0.110577 0.0284179 0)
  (-0.10793 0.0280258 0)
  (-0.100898 0.029233 0)
  (-0.0869805 0.0327818 0)
  (-0.0643247 0.0395617 0)
  (-0.033666 0.0500668 0)
  (0.0158612 0.0641201 0)
  (0.0608599 0.0652577 0)
  (0.103943 0.0499038 0)
  (0.164862 0.0198197 0)
  (-0.214688 -0.0364625 0)
)
;

boundaryField
{
  floor
  {
    type noSlip;
  }
  ceiling
  {
    type noSlip;
  }
  sWall
  {
    type noSlip;
  }
  nWall
  {
    type noSlip;
  }
  sideWalls
  {
    type empty;
  }
  glass1
  {
    type noSlip;
  }
  glass2
  {
    type noSlip;
  }
  sun
  {
    type noSlip;
  }
  heatsource1
  {
    type noSlip;
  }
  heatsource2
  {
    type noSlip;
  }
  Table_master
  {
    type noSlip;
  }
  Table_slave
  {
    type noSlip;
  }
  inlet
  {
    type fixedValue;
    value uniform (0.3 0 0);
  }
  outlet
  {
    type zeroGradient;
  }
} 	// ************************************************************************* //

