/*--------------------------------*- C++ -*----------------------------------*\
  =========                 |
  \\      /  F ield         | OpenFOAM: The Open Source CFD Toolbox
   \\    /   O peration     | Website:  https://openfoam.org
    \\  /    A nd           | Version:  6
     \\/     M anipulation  |
\*---------------------------------------------------------------------------*/
FoamFile
{
    version     2.0;
    format      ascii;
    class       volScalarField;
    location    "100";
    object      alphat;
}
// * * * * * * * * * * * * * * * * * * * * * * * * * * * * * * * * * * * * * //

dimensions      [1 -1 -1 0 0 0 0];

internalField   nonuniform List<scalar> 
459
(
0.000915665
0.000934808
0.000806796
0.000830689
0.000862931
0.00089508
0.00092662
0.000958148
0.000990999
0.00102209
0.00104702
0.0010635
0.00106956
0.00106368
0.00103964
0.00055578
0.000628051
0.000643411
0.000539387
0.000353171
0.000291727
0.000271947
0.000269487
0.000259463
0.000251352
0.000250863
0.000251647
0.000251979
0.000266813
0.000346399
0.000524603
0.000686276
0.000700768
0.000625381
0.00163406
0.00303967
0.00201862
0.00291762
0.00320805
0.00345497
0.00370927
0.00394662
0.00413198
0.00426205
0.00431623
0.00424772
0.00398227
0.0034023
0.00238979
0.00111499
0.00078967
0.000697062
0.00148559
0.00164498
0.00151421
0.00109841
0.000713429
0.000561445
0.000435443
0.000411824
0.000427271
0.000441979
0.000452386
0.000508182
0.000714206
0.00112373
0.0016766
0.001966
0.00206784
0.000757428
0.00224213
0.00514795
0.0021805
0.00392402
0.00479484
0.00510418
0.00534548
0.00554914
0.00569984
0.00579612
0.00580751
0.00567642
0.00531727
0.00462482
0.00355197
0.00228669
0.00118256
0.00113146
0.00283594
0.00246895
0.0020646
0.00169314
0.00132366
0.000433787
0.0002976
0.00025101
0.000281401
0.000341203
0.000422564
0.000521646
0.000646539
0.000837647
0.00199872
0.00211846
0.00169766
0.000866147
0.0027942
0.00760744
0.00268854
0.00390696
0.00553833
0.00595613
0.00618759
0.00638731
0.00655864
0.00669772
0.00680645
0.0068289
0.00666161
0.0061548
0.00515905
0.00369923
0.00220723
0.00136181
0.00286538
0.00299399
0.00267688
0.00229629
0.00193334
0.00151577
0.00113948
0.00116937
0.00120477
0.00124073
0.00127448
0.00130438
0.00133075
0.00134903
0.00136051
0.00246014
0.00313226
0.00351546
0.00130136
0.00328764
0.0100852
0.00372053
0.00353958
0.00559501
0.00618345
0.00642449
0.00662996
0.00683633
0.00704707
0.00734109
0.00769405
0.00803712
0.00827533
0.00830251
0.00804101
0.0075082
0.00682533
0.0063192
0.00586832
0.00563271
0.00549199
0.00536819
0.00528129
0.00524175
0.00530991
0.00539961
0.00547855
0.00552222
0.00552596
0.00551111
0.00550606
0.00552103
0.0055814
0.00548737
0.0050927
0.0040589
0.00167785
0.00148148
0.00137456
0.0037374
0.0121596
0.00551068
0.00347287
0.00491723
0.00572829
0.00607277
0.00629194
0.00646656
0.00666699
0.00705687
0.00760981
0.00826872
0.0089452
0.00952119
0.0098685
0.00988698
0.00958291
0.00908289
0.00853456
0.00806525
0.00772464
0.00748988
0.00732187
0.0071925
0.00710242
0.00703941
0.00697008
0.0068587
0.00669832
0.00652303
0.00638433
0.00631134
0.00629506
0.00631484
0.00628208
0.00587332
0.00507983
0.00330517
0.00172384
0.00414062
0.0135569
0.00844767
0.00473547
0.00398543
0.00460624
0.00527925
0.00568035
0.00579676
0.00593627
0.00626605
0.00679088
0.00750759
0.0083626
0.00923186
0.00994471
0.0103327
0.0103672
0.0101259
0.00974531
0.00935211
0.00901824
0.00875552
0.00854381
0.00836167
0.00821181
0.00809503
0.00797409
0.00778471
0.00748737
0.00710631
0.00671298
0.00637382
0.00611226
0.00588843
0.00559193
0.00508821
0.00443042
0.00362178
0.00165255
0.00420292
0.013233
0.010523
0.00812141
0.00588013
0.00488385
0.00503681
0.00545984
0.00548032
0.0054809
0.0055918
0.00584875
0.0062992
0.006984
0.00787013
0.00880896
0.00949286
0.00986944
0.00995735
0.00984476
0.00963931
0.00942552
0.00925046
0.00913162
0.00906877
0.00905759
0.00908756
0.00912053
0.00907677
0.00887193
0.00847565
0.0079071
0.00719028
0.0063929
0.00559215
0.00485999
0.00424316
0.00368458
0.00314699
0.00194162
0.00404555
0.00477039
0.0069376
0.00731292
0.00670863
0.00595362
0.00543926
0.00518064
0.00504624
0.0050115
0.00504605
0.00513917
0.00531557
0.00563366
0.00615596
0.0068725
0.00763382
0.00827527
0.00870093
0.00890954
0.00895859
0.00892117
0.00886403
0.00884589
0.00892123
0.00913325
0.00948215
0.00989529
0.0102608
0.0105035
0.0105786
0.0104692
0.0102516
0.0099953
0.00969094
0.00907467
0.00779956
0.00653374
0.00593527
0.00217525
0.0112918
0.0129778
0.0088179
0.00725011
0.00636878
0.00581255
0.00544262
0.0051821
0.00499389
0.0048622
0.00478772
0.00479142
0.00491528
0.00520613
0.00566816
0.00623107
0.00677756
0.00721281
0.00750254
0.0076641
0.00774313
0.00779849
0.00789826
0.00811719
0.00851654
0.00910027
0.00977828
0.0103732
0.0107742
0.0109603
0.0109696
0.010871
0.0107154
0.0104774
0.0100068
0.00882199
0.00768985
0.00216727
0.00566281
0.0123571
0.00900414
0.0075315
0.00660975
0.00594003
0.00542785
0.00501886
0.00466457
0.00435139
0.00409315
0.00390373
0.0038006
0.0038063
0.00394243
0.00421187
0.00457944
0.00497688
0.00533542
0.00561577
0.00581553
0.00596058
0.00609434
0.00627098
0.00654966
0.00697954
0.00756278
0.00820304
0.00876975
0.00919307
0.00944044
0.00952009
0.00945463
0.00923744
0.00873316
0.00760502
0.00628515
0.00196556
0.00325339
0.0038424
0.00461875
0.00442728
0.00362205
0.00314171
0.00279093
0.00251244
0.00228329
0.00209089
0.00192947
0.00179278
0.00167492
0.00157271
0.00148463
0.00141022
0.00134978
0.001304
0.00127322
0.00125659
0.00125171
0.00125518
0.0012637
0.00127498
0.0012883
0.00130464
0.00132667
0.00135832
0.00140297
0.00146594
0.0015489
0.00164235
0.00173311
0.00180755
0.00185469
0.00186592
0.00183629
0.00178958
0.00174365
0.00161263
)
;

boundaryField
{
    floor
    {
        type            compressible::alphatWallFunction;
        Prt             0.85;
        value           nonuniform List<scalar> 
29
(
0.000147718
7.75858e-05
8.84233e-05
9.07048e-05
7.51113e-05
4.61605e-05
3.62046e-05
3.29394e-05
3.25301e-05
3.08633e-05
2.95059e-05
2.94185e-05
2.95446e-05
2.95964e-05
3.20798e-05
4.50753e-05
7.28849e-05
9.70752e-05
9.92043e-05
8.80402e-05
8.80391e-05
0.00010746
0.000123125
0.000183888
0.000147717
7.75849e-05
9.86183e-05
0.000160508
0.000192147
)
;
    }
    ceiling
    {
        type            compressible::alphatWallFunction;
        Prt             0.85;
        value           nonuniform List<scalar> 
43
(
0.000436049
0.000508295
0.000601834
0.000578898
0.000481361
0.000422148
0.000378317
0.000343108
0.000313827
0.000289
0.000267981
0.000250031
0.000234433
0.00022081
0.00020899
0.000198943
0.00019074
0.000184498
0.000180287
0.000178008
0.000177338
0.000177813
0.000178978
0.000180522
0.000182342
0.000184572
0.000187574
0.00019188
0.000197938
0.000206446
0.000217594
0.000230072
0.000242115
0.000251943
0.000258146
0.000259623
0.00025573
0.000249578
0.000243508
0.000226106
0.000532949
0.00061991
0.000725224
)
;
    }
    sWall
    {
        type            compressible::alphatWallFunction;
        Prt             0.85;
        value           uniform 0.000434901;
    }
    nWall
    {
        type            compressible::alphatWallFunction;
        Prt             0.85;
        value           nonuniform List<scalar> 6(0.000193575 0.00024035 0.000230966 0.000298394 0.000272226 0.000225699);
    }
    sideWalls
    {
        type            empty;
    }
    glass1
    {
        type            compressible::alphatWallFunction;
        Prt             0.85;
        value           nonuniform List<scalar> 9(0.000126105 0.000222898 0.000301402 0.000370898 0.000431921 0.000486798 0.000535468 0.000543122 0.00052451);
    }
    glass2
    {
        type            compressible::alphatWallFunction;
        Prt             0.85;
        value           nonuniform List<scalar> 2(0.000266686 0.000296923);
    }
    sun
    {
        type            compressible::alphatWallFunction;
        Prt             0.85;
        value           nonuniform List<scalar> 
14
(
0.000130244
0.000132939
0.000114617
0.000118062
0.000122692
0.000127288
0.000131777
0.000136248
0.000140887
0.000145262
0.000148758
0.000151063
0.000151909
0.000151086
)
;
    }
    heatsource1
    {
        type            compressible::alphatWallFunction;
        Prt             0.85;
        value           nonuniform List<scalar> 3(0.000234784 0.000208536 0.000194148);
    }
    heatsource2
    {
        type            compressible::alphatWallFunction;
        Prt             0.85;
        value           nonuniform List<scalar> 4(0.000158503 0.000112389 0.000112387 0.000167866);
    }
    Table_master
    {
        type            compressible::alphatWallFunction;
        Prt             0.85;
        value           nonuniform List<scalar> 9(5.90754e-05 3.73604e-05 2.96619e-05 3.46952e-05 4.44168e-05 5.73101e-05 7.26001e-05 9.13728e-05 0.000119288);
    }
    Table_slave
    {
        type            compressible::alphatWallFunction;
        Prt             0.85;
        value           nonuniform List<scalar> 9(0.000161913 0.000166061 0.000170958 0.000175918 0.00018056 0.000184661 0.000188268 0.000190758 0.00019231);
    }
    inlet
    {
        type            fixedValue;
        value           uniform 1.94e-05;
    }
    outlet
    {
        type            zeroGradient;
    }
}


// ************************************************************************* //
