/*--------------------------------*- C++ -*----------------------------------*\
  =========                 |
  \\      /  F ield         | OpenFOAM: The Open Source CFD Toolbox
   \\    /   O peration     | Website:  https://openfoam.org
    \\  /    A nd           | Version:  6
     \\/     M anipulation  |
\*---------------------------------------------------------------------------*/
FoamFile
{
    version     2.0;
    format      ascii;
    class       surfaceScalarField;
    location    "1400";
    object      phi;
}
// * * * * * * * * * * * * * * * * * * * * * * * * * * * * * * * * * * * * * //

dimensions      [1 0 -1 0 0 0 0];

internalField   nonuniform List<scalar> 
852
(
-0.00295875
0.00301606
-0.00399962
0.00104087
-0.00480006
0.000800432
-0.00542318
0.000623128
-0.00583554
0.000412353
-0.00600905
0.000173512
-0.00591559
-9.34609e-05
-0.00553332
-0.000382267
-0.00487838
-0.00065494
-0.00401608
-0.000862306
-0.00304657
-0.00096951
-0.00208169
-0.000964872
-0.00122386
-0.000857831
-0.000535584
-0.000688279
-0.000533923
-0.000778826
0.000781794
-0.000525302
-0.000253525
6.91949e-05
-0.000594496
0.000572086
-0.000502891
0.000922518
-0.000350432
0.0011519
-0.000229379
0.00128003
-0.000128136
0.00134204
-6.20062e-05
0.00137639
-3.43495e-05
0.0013976
-2.12105e-05
0.00140972
-1.21235e-05
0.00141432
-4.60091e-06
0.00141008
4.24059e-06
0.00138948
2.06005e-05
0.00133139
5.80963e-05
0.00120025
0.000131139
0.000983624
0.000216624
0.00071641
0.000267214
0.000720377
-0.00211955
0.00529004
-0.00314012
0.00206144
-0.00396908
0.0016294
-0.00458842
0.00124246
-0.0049992
0.00082314
-0.00518229
0.000356598
-0.00510627
-0.000169476
-0.00475359
-0.000734953
-0.00415291
-0.00125562
-0.00338015
-0.00163506
-0.00253365
-0.00181601
-0.00170812
-0.00179041
-0.000984149
-0.0015818
-0.000435412
-0.00123702
-0.000166423
-0.000802912
0.000120297
-0.000286771
0.000120245
0.000249591
0.000540853
0.000655257
-0.000659191
0.000924205
-0.000863444
0.00115001
-0.000728696
0.00133009
-0.000530515
0.00144691
-0.000346198
0.0014679
-0.00014912
0.001473
-6.71069e-05
0.00147918
-4.05366e-05
0.00148439
-2.64129e-05
0.00148783
-1.55723e-05
0.0014897
-6.468e-06
0.00148936
4.58355e-06
0.00148359
2.63667e-05
0.00144475
9.69406e-05
0.00127826
0.000297632
0.000988619
0.00050626
0.000625116
0.000630717
0.0013556
-0.0014896
0.00701592
-0.00237232
0.00294416
-0.00311288
0.00236996
-0.00364854
0.00177812
-0.00401338
0.00118798
-0.00418308
0.000526298
-0.00410341
-0.000249144
-0.00374887
-0.00108949
-0.0031739
-0.00183059
-0.00247213
-0.00233684
-0.0017387
-0.00254944
-0.00104611
-0.00248299
-0.000446345
-0.00218157
2.62944e-05
-0.00170966
0.000337246
-0.00111386
0.000476226
-0.000425752
0.000596472
0.00149331
-0.000942981
0.00171359
-0.000879472
0.0016728
-0.00082266
0.00166252
-0.000718413
0.00168805
-0.000556044
0.00173179
-0.000389937
0.00158282
0.00151587
0.00147549
0.00144923
0.00143381
0.00142749
0.00143223
0.00145875
0.00155584
0.0012858
0.000567676
0.00095472
0.00083734
0.000536723
0.00104871
0.00190764
-0.00104295
0.00836484
-0.00174472
0.00364593
-0.00224255
0.00286779
-0.00260144
0.00213701
-0.00285279
0.00143934
-0.00295966
0.000633165
-0.0028254
-0.000383405
-0.00243386
-0.00148103
-0.00188658
-0.00237787
-0.00128598
-0.00293744
-0.000707705
-0.00312772
-0.0001912
-0.0029995
0.000247765
-0.00262053
0.000610093
-0.00207198
0.000932875
-0.00143665
0.00129741
-0.000790282
0.00214679
-0.000252917
0.0025011
-0.00034595
0.00215161
-0.000593492
0.00201594
-0.000743803
0.00188631
-0.000693029
0.00176985
-0.000601951
0.00169541
-0.000481603
0.00163454
-0.000329068
0.00177652
-0.00014213
0.00186315
-8.67806e-05
0.00193248
-6.94895e-05
0.00198666
-5.43262e-05
0.0020117
-2.51925e-05
0.00198596
2.55799e-05
0.00188395
0.000101861
0.00167212
0.000211677
0.00129533
0.000376634
0.00113625
0.000726755
0.00082592
0.00114767
0.000361361
0.00151327
0.00228897
-0.000728632
0.00945861
-0.00126177
0.00417907
-0.00138401
0.00299003
-0.00147744
0.00223043
-0.00153958
0.00150148
-0.0015001
0.000593694
-0.00122519
-0.000658324
-0.000784042
-0.00192218
-0.000308176
-0.00285373
0.000123558
-0.00336918
0.000476914
-0.00348107
0.000747266
-0.00326985
0.000956631
-0.0028299
0.00113461
-0.00224997
0.00131539
-0.00161742
0.00154693
-0.00102183
0.00187285
-0.000578836
0.00197885
-0.00045195
0.00189673
-0.000511369
0.00172024
-0.000567314
0.001561
-0.00053379
0.00142436
-0.000465314
0.00132392
-0.00038116
0.00127574
-0.000280886
0.00131795
-0.000184342
0.00137155
-0.000140376
0.00142953
-0.000127475
0.00148871
-0.000113509
0.00153871
-7.51881e-05
0.00155922
5.06797e-06
0.00152866
0.000132426
0.00143483
0.0003055
0.00127854
0.00053293
0.00113303
0.000872258
0.000969713
0.00131099
0.000617107
0.00186588
0.000520909
0.00238517
-0.000985737
0.00150644
-0.00145031
0.000464369
-0.00140195
-0.000630808
0.0105044
-0.000996703
0.00454496
-0.000602729
0.00259605
-0.000309491
0.00193719
-9.50326e-05
0.00128702
0.000229589
0.000269072
0.000710869
-0.0011396
0.00114879
-0.0023601
0.00146138
-0.00316632
0.00163482
-0.00354261
0.00169496
-0.00354122
0.00167399
-0.00324888
0.00160472
-0.00276062
0.00152477
-0.00217002
0.00146746
-0.00156011
0.00145781
-0.00101218
0.00148888
-0.000609909
0.00145699
-0.000420056
0.00133201
-0.000386394
0.00115305
-0.000388349
0.000988427
-0.00036917
0.000857028
-0.000333916
0.000767135
-0.000291266
0.000729668
-0.000243419
0.000748439
-0.000203113
0.000798341
-0.000190279
0.000865078
-0.000194212
0.000942767
-0.000191198
0.00102549
-0.000157908
0.00110183
-7.12739e-05
0.00115337
8.08883e-05
0.00117429
0.000284581
0.00117342
0.0005338
0.00119519
0.000850489
0.00128592
0.00122026
0.00146199
0.00168981
0.00190196
0.0019452
0.00216247
0.00124594
0.00177246
0.000854377
0.000428622
-0.00071659
0.0116806
-0.000602236
0.00443061
0.000473742
0.00152008
0.00115177
0.00125917
0.00172702
0.000711776
0.00237281
-0.000376724
0.00292627
-0.00169306
0.00323153
-0.00266536
0.00328268
-0.00321747
0.00312555
-0.00338548
0.00282435
-0.00324002
0.00244319
-0.00286771
0.00203715
-0.00235459
0.00165465
-0.00178751
0.00132846
-0.00123392
0.00107875
-0.000762465
0.000902313
-0.000433475
0.000752005
-0.000269749
0.000592374
-0.000226762
0.000431228
-0.000227203
0.000291905
-0.000229848
0.000185917
-0.000227927
0.000117927
-0.000223276
9.25819e-05
-0.000218074
0.00010851
-0.00021904
0.000152023
-0.000233792
0.000212385
-0.000254574
0.000287539
-0.000266353
0.000381368
-0.000251737
0.000498827
-0.000188733
0.00062865
-4.89354e-05
0.000759052
0.000154179
0.000899458
0.000393393
0.00108782
0.000662129
0.00137063
0.000937443
0.00181378
0.00124666
0.00248317
0.00127582
0.00302708
0.000702018
0.00304569
0.000835768
0.00353685
0.0026029
0.00959127
0.00328079
0.00375272
0.00344571
0.00135515
0.00389881
0.000806066
0.00459033
2.02575e-05
0.00528238
-0.00106877
0.00556406
-0.00197474
0.00543869
-0.00253999
0.00499418
-0.00277296
0.00433535
-0.00272666
0.00356464
-0.0024693
0.00276845
-0.00207152
0.00200757
-0.00159371
0.00133699
-0.00111693
0.000783636
-0.000680571
0.000370118
-0.000348947
9.48984e-05
-0.000158256
-8.83209e-05
-8.65293e-05
-0.000229158
-8.59247e-05
-0.000348415
-0.000107947
-0.000447023
-0.00013124
-0.00052252
-0.00015243
-0.000573715
-0.000172081
-0.000599972
-0.000191817
-0.000604244
-0.000214769
-0.000595385
-0.000242651
-0.000579572
-0.000270388
-0.000556416
-0.000289508
-0.000517917
-0.000290236
-0.00044547
-0.000261179
-0.000308846
-0.00018556
-0.000121418
-3.32486e-05
9.88731e-05
0.000173103
0.000371821
0.000389181
0.000707984
0.00060128
0.00114796
0.000806678
0.00162361
0.000800172
0.00181658
0.000509049
0.0010696
0.00158274
0.0048646
0.0101549
0.0139004
0.0122288
0.0030267
0.01133
0.00170486
0.0105954
0.00075489
0.00970306
-0.00017643
0.00855411
-0.000825796
0.00725561
-0.00124148
0.0059017
-0.00141906
0.00456154
-0.00138649
0.00329833
-0.00120609
0.00216193
-0.000935132
0.00116429
-0.000596064
0.000347111
-0.000299747
-0.000254538
-7.8921e-05
-0.00062838
2.48946e-05
-0.000830841
4.42049e-05
-0.000946484
2.91146e-05
-0.00103266
2.53828e-07
-0.00110988
-3.07284e-05
-0.00118067
-6.04557e-05
-0.00124451
-8.85852e-05
-0.00130168
-0.000114915
-0.00135362
-0.000139875
-0.00140431
-0.000164073
-0.00146107
-0.0001859
-0.0015314
-0.000200054
-0.00162275
-0.000198159
-0.00174419
-0.00016879
-0.00190728
-9.80962e-05
-0.00211944
2.66001e-05
-0.00236756
0.000214873
-0.00267623
0.000481768
-0.00313099
0.000843946
-0.00382753
0.00129782
-0.00483074
0.00180989
-0.00625487
0.00222431
-0.00797029
0.00222447
-0.00746443
0.00107688
-0.00231379
0.00509934
0.00455609
0.00409322
0.00271098
0.00449103
0.00035708
0.00453047
-0.000215875
0.0041219
-0.00041722
0.00343642
-0.000556005
0.00258777
-0.000570408
0.00166846
-0.000467186
0.000752212
-0.000289842
-0.000106174
-7.67462e-05
-0.000802126
9.98881e-05
-0.0012574
0.000155528
-0.00150328
0.00016696
-0.00162414
0.000145754
-0.00169131
0.000111375
-0.00173913
7.69329e-05
-0.00178402
4.51378e-05
-0.00183244
1.76931e-05
-0.00188788
-5.01118e-06
-0.00195051
-2.5954e-05
-0.00201981
-4.56188e-05
-0.00209687
-6.28123e-05
-0.00218319
-7.77539e-05
-0.00228083
-8.82637e-05
-0.00239091
-8.99758e-05
-0.00251231
-7.67538e-05
-0.00264053
-4.05678e-05
-0.002767
2.83689e-05
-0.00287971
0.00013931
-0.00297627
0.000311433
-0.00306494
0.000570443
-0.00315251
0.000931509
-0.00323655
0.00138187
-0.00327077
0.0018441
-0.00319665
0.00215018
-0.00283444
0.00186226
-0.00156287
-0.000194697
-0.00380182
-0.000409189
0.00502204
0.000863969
0.00143783
0.000821369
0.00039968
0.000545046
6.04479e-05
0.000163927
-3.61011e-05
-0.000360437
-3.16407e-05
-0.000949281
1.84361e-05
-0.00149781
8.13414e-05
-0.00192651
0.000138855
-0.00218577
0.000182513
-0.00228798
0.0002021
-0.00232135
0.000188903
-0.00231764
0.000163249
-0.00230617
0.000134283
-0.00230277
0.000107981
-0.00231144
8.55984e-05
-0.00233198
6.56777e-05
-0.00236177
4.74826e-05
-0.0023978
3.10178e-05
-0.00244023
1.6474e-05
-0.00248868
2.83841e-06
-0.0025426
-8.89424e-06
-0.00260179
-1.85678e-05
-0.00266477
-2.52839e-05
-0.00272776
-2.69814e-05
-0.00278404
-2.04808e-05
-0.00282295
-1.65515e-06
-0.00283278
3.82022e-05
-0.00280103
0.00010756
-0.0027045
0.000214906
-0.00251036
0.000376303
-0.00219125
0.000612393
-0.00173182
0.000922436
-0.00110821
0.0012205
-0.000141002
0.00118297
0.00116023
0.000561034
0.0015729
-0.000607376
-0.00214678
0.000275957
-0.0107876
-0.00572156
-0.00426083
-0.00384706
-0.00377742
-0.00380743
-0.00383528
-0.00381476
-0.00373265
-0.00359411
-0.00341285
-0.00321282
-0.00302669
-0.00286677
-0.00273627
-0.00263243
-0.00255126
-0.00249021
-0.00244751
-0.00242135
-0.00240976
-0.00241181
-0.00242555
-0.00244889
-0.00247887
-0.00251044
-0.0025354
-0.0025414
-0.00250738
-0.00240386
-0.00219284
-0.00182027
-0.00121147
-0.000292533
0.000924521
0.00210396
0.00266126
0.0020499
)
;

boundaryField
{
    floor
    {
        type            calculated;
        value           nonuniform List<scalar> 
29
(
0
0
0
0
0
0
0
0
0
0
0
0
0
0
0
0
0
0
0
0
-3.96635e-06
-1.01097e-05
-1.53139e-05
-1.99713e-05
-1.66134e-06
-2.96767e-06
-8.65e-06
-9.47382e-06
-8.35717e-06
)
;
    }
    ceiling
    {
        type            calculated;
        value           nonuniform List<scalar> 
43
(
-2.34155e-05
-4.36575e-05
-4.40314e-05
-2.29008e-05
-1.40916e-05
-9.19356e-06
-6.08629e-06
-3.79468e-06
-2.07826e-06
-7.72802e-07
3.15719e-07
1.25487e-06
2.07215e-06
2.7677e-06
3.33361e-06
3.78349e-06
4.14108e-06
4.4223e-06
4.63299e-06
4.77628e-06
4.85914e-06
4.89192e-06
4.88456e-06
4.84328e-06
4.77807e-06
4.6934e-06
4.5915e-06
4.47383e-06
4.34088e-06
4.19136e-06
4.03608e-06
3.88162e-06
3.73359e-06
3.59976e-06
3.49446e-06
3.44743e-06
3.53734e-06
3.72554e-06
3.98787e-06
5.04471e-06
1.02772e-05
7.2313e-06
-5.67592e-05
)
;
    }
    sWall
    {
        type            calculated;
        value           uniform -0.000230196;
    }
    nWall
    {
        type            calculated;
        value           nonuniform List<scalar> 6(-4.85691e-05 -5.81105e-05 -6.25314e-05 -7.48377e-05 -8.21307e-05 -0.000101927);
    }
    sideWalls
    {
        type            empty;
        value           nonuniform 0();
    }
    glass1
    {
        type            calculated;
        value           nonuniform List<scalar> 9(-5.731e-05 -0.00015443 -0.000236278 -0.000305969 -0.00036514 -0.000415014 -0.000459599 -0.00051354 -0.000573909);
    }
    glass2
    {
        type            calculated;
        value           nonuniform List<scalar> 2(-0.000258152 -0.000286033);
    }
    sun
    {
        type            calculated;
        value           uniform 0;
    }
    heatsource1
    {
        type            calculated;
        value           nonuniform List<scalar> 3(2.04187e-07 2.04129e-07 2.04147e-07);
    }
    heatsource2
    {
        type            calculated;
        value           nonuniform List<scalar> 4(5.11924e-08 5.12764e-08 0 0);
    }
    Table_master
    {
        type            calculated;
        value           nonuniform List<scalar> 9(-1.53137e-07 -1.53228e-07 -1.53261e-07 -1.53282e-07 -1.53298e-07 -1.53309e-07 -1.53314e-07 -1.53309e-07 -1.53279e-07);
    }
    Table_slave
    {
        type            calculated;
        value           nonuniform List<scalar> 9(1.53015e-07 1.53034e-07 1.53012e-07 1.52995e-07 1.52987e-07 1.52991e-07 1.53005e-07 1.53047e-07 1.53128e-07);
    }
    inlet
    {
        type            calculated;
        value           uniform -0.00662873;
    }
    outlet
    {
        type            calculated;
        value           nonuniform List<scalar> 2(-2.23451e-05 0.0111072);
    }
}


// ************************************************************************* //
