// -*- C++ -*-
// File generated by PyFoam - sorry for the ugliness

FoamFile
{
 version 2.0;
 format ascii;
 class volVectorField;
 location "800";
 object U;
}

dimensions [ 0 1 -1 0 0 0 0 ];

internalField nonuniform List<vector> 459
(
  (0.0344589 0.0859906 0)
  (-0.167338 0.0254292 0)
  (-0.19198 0.0177188 0)
  (-0.222843 0.0119569 0)
  (-0.245003 0.005579 0)
  (-0.257297 -0.00122044 0)
  (-0.257976 -0.00849608 0)
  (-0.245899 -0.0162557 0)
  (-0.221743 -0.0237079 0)
  (-0.187616 -0.0294911 0)
  (-0.14742 -0.0325083 0)
  (-0.105667 -0.0322338 0)
  (-0.0666486 -0.0287873 0)
  (-0.0354981 -0.0232684 0)
  (-0.0265287 -0.0176304 0)
  (-0.00622273 0.00905964 0)
  (-0.0299726 -0.0167075 0)
  (-0.00848557 -0.0266436 0)
  (0.0155575 -0.0206868 0)
  (0.0310343 -0.0142647 0)
  (0.0439223 -0.00928371 0)
  (0.0521068 -0.00538098 0)
  (0.0563724 -0.00332464 0)
  (0.0582718 -0.00250321 0)
  (0.0591845 -0.00215243 0)
  (0.0597366 -0.00193575 0)
  (0.0600363 -0.00176128 0)
  (0.0600275 -0.00155069 0)
  (0.0595273 -0.0011408 0)
  (0.0580198 -0.000169548 0)
  (0.054391 0.00186235 0)
  (0.0474418 0.00396341 0)
  (0.0415214 0.00555688 0)
  (-0.0142924 0.0203209 0)
  (0.209201 0.176269 0)
  (-0.15663 0.0674976 0)
  (-0.155079 0.0529316 0)
  (-0.187185 0.0409373 0)
  (-0.209287 0.0272662 0)
  (-0.221961 0.0118053 0)
  (-0.223396 -0.00572226 0)
  (-0.212339 -0.0245773 0)
  (-0.190086 -0.0420061 0)
  (-0.159158 -0.0548834 0)
  (-0.123543 -0.0611615 0)
  (-0.0873429 -0.0603208 0)
  (-0.0540781 -0.0529879 0)
  (-0.0269949 -0.0408516 0)
  (-0.0100716 -0.0268417 0)
  (0.00345266 -0.00917783 0)
  (0.00202256 0.015508 0)
  (0.062808 0.0368691 0)
  (0.0233432 -0.0178289 0)
  (0.0322833 -0.0315022 0)
  (0.0435338 -0.0282292 0)
  (0.0525569 -0.0204655 0)
  (0.0592724 -0.012933 0)
  (0.0622341 -0.00551722 0)
  (0.0628269 -0.00123918 0)
  (0.0627812 0.000538377 0)
  (0.0628894 0.00131638 0)
  (0.0630967 0.00178969 0)
  (0.0632486 0.00217635 0)
  (0.0633006 0.0026381 0)
  (0.0632128 0.00348831 0)
  (0.0624847 0.00558274 0)
  (0.0588092 0.0114386 0)
  (0.0494863 0.0161827 0)
  (0.0457495 0.0191229 0)
  (-0.0517114 0.0440786 0)
  (0.369471 0.263862 0)
  (-0.173527 0.107645 0)
  (-0.116688 0.085777 0)
  (-0.14811 0.0643813 0)
  (-0.167946 0.0418477 0)
  (-0.179869 0.0167111 0)
  (-0.180994 -0.0117902 0)
  (-0.169299 -0.0419603 0)
  (-0.147419 -0.068874 0)
  (-0.118755 -0.0875226 0)
  (-0.087444 -0.0953957 0)
  (-0.0569188 -0.0926393 0)
  (-0.0293797 -0.0807168 0)
  (-0.00668263 -0.0619741 0)
  (0.00995168 -0.0383497 0)
  (0.0208014 -0.0123508 0)
  (0.0248886 0.0240844 0)
  (0.111537 -0.0252251 0)
  (0.0741861 -0.0367854 0)
  (0.0683221 -0.0380126 0)
  (0.0697181 -0.032977 0)
  (0.0710528 -0.0252381 0)
  (0.0724463 -0.0183796 0)
  (0.0713135 -0.0146572 0)
  (0.0666206 -0.0103011 0)
  (0.0632002 -0.00792384 0)
  (0.0616819 -0.00656499 0)
  (0.0610618 -0.00569248 0)
  (0.0607635 -0.005089 0)
  (0.0607685 -0.00455992 0)
  (0.0615098 -0.00374248 0)
  (0.0640835 -0.000693822 0)
  (0.0619905 0.016081 0)
  (0.0487842 0.0274393 0)
  (0.0522136 0.0346514 0)
  (-0.0849327 0.0685199 0)
  (0.514133 0.334381 0)
  (-0.20821 0.143331 0)
  (-0.0758152 0.113886 0)
  (-0.105993 0.0845088 0)
  (-0.120554 0.0555521 0)
  (-0.129398 0.022447 0)
  (-0.127456 -0.0169873 0)
  (-0.112762 -0.0590407 0)
  (-0.0907245 -0.0945763 0)
  (-0.0653604 -0.117297 0)
  (-0.0401937 -0.125274 0)
  (-0.0174243 -0.12012 0)
  (0.00281773 -0.103912 0)
  (0.0194124 -0.0805548 0)
  (0.0335679 -0.0535313 0)
  (0.0486926 -0.0247038 0)
  (0.069844 0.00702177 0)
  (0.100094 0.0190057 0)
  (0.104682 -0.0211085 0)
  (0.090883 -0.0325614 0)
  (0.0819351 -0.0323593 0)
  (0.0768419 -0.0286161 0)
  (0.0729867 -0.0227969 0)
  (0.0703797 -0.0152446 0)
  (0.0716481 -0.00928733 0)
  (0.0767875 -0.00698207 0)
  (0.0812075 -0.00570757 0)
  (0.0841956 -0.00480029 0)
  (0.086077 -0.00377305 0)
  (0.086392 -0.00232455 0)
  (0.0839502 -0.000189248 0)
  (0.0774753 0.00293607 0)
  (0.0644249 0.00759678 0)
  (0.0518271 0.0268752 0)
  (0.0392683 0.0427588 0)
  (0.0563703 0.054782 0)
  (-0.121309 0.089998 0)
  (0.639444 0.389034 0)
  (-0.250664 0.172502 0)
  (-0.0350199 0.130253 0)
  (-0.0617098 0.0961584 0)
  (-0.0683816 0.0635803 0)
  (-0.0712765 0.0250103 0)
  (-0.0602248 -0.0245924 0)
  (-0.0406609 -0.0773434 0)
  (-0.0200276 -0.117737 0)
  (-0.000836599 -0.140739 0)
  (0.015123 -0.145894 0)
  (0.0273111 -0.137053 0)
  (0.0368468 -0.118325 0)
  (0.0445943 -0.0933578 0)
  (0.0518178 -0.0657453 0)
  (0.0604237 -0.0392802 0)
  (0.0730737 -0.0201937 0)
  (0.0834654 -0.0199265 0)
  (0.0843653 -0.0279954 0)
  (0.077965 -0.0291013 0)
  (0.0697447 -0.026509 0)
  (0.0629227 -0.0229274 0)
  (0.0577263 -0.0185558 0)
  (0.0545382 -0.0132813 0)
  (0.0542823 -0.00751948 0)
  (0.0566673 -0.00474041 0)
  (0.0594796 -0.00376084 0)
  (0.0621974 -0.00298785 0)
  (0.0647099 -0.00136237 0)
  (0.0666564 0.00174784 0)
  (0.0667375 0.00642883 0)
  (0.0643267 0.012808 0)
  (0.0588346 0.0214799 0)
  (0.0517984 0.0366404 0)
  (0.0412209 0.054253 0)
  (0.0644844 0.0736141 0)
  (-0.0255196 0.101731 0)
  (0.0461586 0.029595 0)
  (-0.0624199 -0.0343181 0)
  (-0.273504 -0.0571613 0)
  (0.730723 0.434589 0)
  (-0.292201 0.192132 0)
  (-0.0036338 0.127012 0)
  (-0.0162864 0.097617 0)
  (-0.0124643 0.066171 0)
  (-0.00646073 0.0215902 0)
  (0.0235664 -0.0426154 0)
  (0.0450501 -0.0978282 0)
  (0.0602026 -0.134894 0)
  (0.0692059 -0.152963 0)
  (0.0727776 -0.154202 0)
  (0.0723708 -0.142353 0)
  (0.0695059 -0.121529 0)
  (0.0657244 -0.0957621 0)
  (0.0624802 -0.0687138 0)
  (0.0611293 -0.0440604 0)
  (0.0624652 -0.0260026 0)
  (0.0633008 -0.0191919 0)
  (0.0600348 -0.0192216 0)
  (0.0530801 -0.0197026 0)
  (0.04518 -0.0186282 0)
  (0.0385069 -0.0166594 0)
  (0.0336086 -0.0141336 0)
  (0.0308086 -0.011121 0)
  (0.0304063 -0.00825863 0)
  (0.0320724 -0.00719816 0)
  (0.0347495 -0.00714265 0)
  (0.0379741 -0.006818 0)
  (0.0415498 -0.0051751 0)
  (0.0451772 -0.00129097 0)
  (0.0485424 0.00518095 0)
  (0.0503143 0.0138059 0)
  (0.0507823 0.0246514 0)
  (0.0513349 0.0390826 0)
  (0.0499428 0.056461 0)
  (0.0731167 0.0786555 0)
  (0.0513738 0.0954459 0)
  (0.093449 0.0662822 0)
  (0.116507 0.0440052 0)
  (-0.129359 -0.00708018 0)
  (0.783172 0.475988 0)
  (-0.313141 0.177597 0)
  (0.0235755 0.0775163 0)
  (0.0429161 0.0736652 0)
  (0.0582082 0.0509458 0)
  (0.0870503 -0.0025372 0)
  (0.120312 -0.066731 0)
  (0.138709 -0.114745 0)
  (0.144309 -0.143073 0)
  (0.139828 -0.153436 0)
  (0.128056 -0.148972 0)
  (0.111923 -0.133544 0)
  (0.0940111 -0.111136 0)
  (0.076573 -0.0856433 0)
  (0.0612388 -0.060212 0)
  (0.0492045 -0.0379914 0)
  (0.0408614 -0.0220209 0)
  (0.0346138 -0.0142582 0)
  (0.0282764 -0.0123483 0)
  (0.0213196 -0.0123409 0)
  (0.014657 -0.0120857 0)
  (0.00921427 -0.0114671 0)
  (0.00533474 -0.0106391 0)
  (0.00323667 -0.00969206 0)
  (0.00304091 -0.00906545 0)
  (0.00440539 -0.00941318 0)
  (0.00668186 -0.0102124 0)
  (0.00958937 -0.0105631 0)
  (0.0131584 -0.00954858 0)
  (0.0175144 -0.00611622 0)
  (0.0235939 0.000788478 0)
  (0.0298889 0.0102974 0)
  (0.035763 0.0213172 0)
  (0.0431175 0.034209 0)
  (0.0509648 0.0485376 0)
  (0.0734428 0.0664405 0)
  (0.0865636 0.0730329 0)
  (0.11935 0.0499871 0)
  (0.159034 0.0429147 0)
  (-0.0333575 0.0938917 0)
  (0.888186 0.478567 0)
  (-0.0701003 0.157204 0)
  (0.106619 0.00413831 0)
  (0.170061 -0.0175272 0)
  (0.18459 -0.0378099 0)
  (0.220266 -0.0721191 0)
  (0.241044 -0.10462 0)
  (0.242389 -0.127334 0)
  (0.227352 -0.137922 0)
  (0.200959 -0.136809 0)
  (0.168138 -0.125911 0)
  (0.133081 -0.107919 0)
  (0.0988259 -0.0856839 0)
  (0.0678717 -0.0624312 0)
  (0.0415817 -0.0404702 0)
  (0.0213311 -0.0225169 0)
  (0.00750132 -0.0109679 0)
  (-0.00139363 -0.00605778 0)
  (-0.00768229 -0.00544566 0)
  (-0.0130904 -0.00618682 0)
  (-0.0178205 -0.00695694 0)
  (-0.0216622 -0.00759343 0)
  (-0.0244981 -0.00817326 0)
  (-0.0262412 -0.00880647 0)
  (-0.026915 -0.00971089 0)
  (-0.0268199 -0.0110311 0)
  (-0.0263433 -0.0124723 0)
  (-0.0256179 -0.0135572 0)
  (-0.0244924 -0.0137599 0)
  (-0.0225633 -0.0124733 0)
  (-0.0188355 -0.00894716 0)
  (-0.0099177 -0.00244915 0)
  (-0.000603523 0.00611053 0)
  (0.0103613 0.0145623 0)
  (0.0221672 0.0214231 0)
  (0.0419006 0.0283876 0)
  (0.0598197 0.0207809 0)
  (0.0783237 -0.00637064 0)
  (0.136848 0.041259 0)
  (-0.419446 0.20897 0)
  (1.03382 0.430301 0)
  (0.497849 0.285141 0)
  (0.504013 0.191522 0)
  (0.512717 0.119332 0)
  (0.488134 0.0669659 0)
  (0.444163 0.0128695 0)
  (0.393167 -0.0353382 0)
  (0.338773 -0.0687994 0)
  (0.280712 -0.0854086 0)
  (0.221489 -0.0875073 0)
  (0.164493 -0.0792831 0)
  (0.112357 -0.0647024 0)
  (0.066187 -0.046735 0)
  (0.02784 -0.028673 0)
  (-0.00332518 -0.0126078 0)
  (-0.0231973 -0.00327419 0)
  (-0.0336259 3.87762e-05 0)
  (-0.0393269 0.000320816 0)
  (-0.0430722 -0.000765369 0)
  (-0.0463819 -0.00217706 0)
  (-0.0495412 -0.00353798 0)
  (-0.0524727 -0.00484032 0)
  (-0.05513 -0.006128 0)
  (-0.0575136 -0.00745171 0)
  (-0.0597415 -0.0088651 0)
  (-0.0620942 -0.0103262 0)
  (-0.0649152 -0.0115895 0)
  (-0.0685125 -0.0122555 0)
  (-0.0732151 -0.01178 0)
  (-0.0794769 -0.00945657 0)
  (-0.0878755 -0.0044586 0)
  (-0.098508 0.00384459 0)
  (-0.109388 0.0149203 0)
  (-0.125041 0.0288433 0)
  (-0.149816 0.0455435 0)
  (-0.186193 0.063704 0)
  (-0.237342 0.0791434 0)
  (-0.294861 0.0891737 0)
  (-0.362888 0.0939794 0)
  (-0.623443 0.0945864 0)
  (-0.145269 0.0830741 0)
  (0.134429 0.0606566 0)
  (0.216318 0.003713 0)
  (0.199548 -0.0307216 0)
  (0.183232 -0.0443142 0)
  (0.160024 -0.0480638 0)
  (0.126953 -0.0456642 0)
  (0.0880862 -0.038661 0)
  (0.0482732 -0.0284226 0)
  (0.0100524 -0.0156065 0)
  (-0.0263103 -0.00233256 0)
  (-0.0489882 0.00471196 0)
  (-0.0623951 0.00761691 0)
  (-0.0685054 0.00760206 0)
  (-0.0715792 0.00660553 0)
  (-0.0735982 0.00543594 0)
  (-0.0754024 0.00428325 0)
  (-0.0772908 0.003222 0)
  (-0.079415 0.00218104 0)
  (-0.0818993 0.00102769 0)
  (-0.0846774 -0.000217017 0)
  (-0.0877568 -0.00146173 0)
  (-0.0912162 -0.00260176 0)
  (-0.0951628 -0.00346912 0)
  (-0.0996836 -0.00380541 0)
  (-0.104782 -0.00327963 0)
  (-0.110354 -0.00151301 0)
  (-0.116152 0.00188542 0)
  (-0.121579 0.00734138 0)
  (-0.12581 0.015534 0)
  (-0.129303 0.0275814 0)
  (-0.132335 0.0438188 0)
  (-0.135797 0.0632073 0)
  (-0.140204 0.081896 0)
  (-0.142238 0.0899899 0)
  (-0.12406 0.0669393 0)
  (-0.0751943 -0.0271863 0)
  (-0.280132 -0.20654 0)
  (-0.0190184 0.233332 0)
  (0.0620259 0.0999501 0)
  (0.0354884 0.0189537 0)
  (0.0232599 -0.00434998 0)
  (0.0129731 -0.00921794 0)
  (-0.00684528 -0.00957317 0)
  (-0.0321972 -0.00660309 0)
  (-0.0576393 -0.00178613 0)
  (-0.0786484 0.00298339 0)
  (-0.0925783 0.0061457 0)
  (-0.098583 0.0063844 0)
  (-0.10057 0.00435081 0)
  (-0.100456 0.00166605 0)
  (-0.0995239 -0.0013406 0)
  (-0.0988092 -0.00430688 0)
  (-0.0986228 -0.00708098 0)
  (-0.0989955 -0.00957899 0)
  (-0.0998226 -0.0116424 0)
  (-0.100961 -0.0131537 0)
  (-0.102308 -0.0140877 0)
  (-0.103928 -0.0145451 0)
  (-0.105847 -0.0145668 0)
  (-0.108087 -0.0143541 0)
  (-0.110635 -0.013914 0)
  (-0.113384 -0.0131195 0)
  (-0.116102 -0.0117336 0)
  (-0.118417 -0.00939121 0)
  (-0.119796 -0.00555621 0)
  (-0.119632 0.000123831 0)
  (-0.116895 0.00823722 0)
  (-0.11012 0.0196879 0)
  (-0.0980842 0.0352378 0)
  (-0.0806574 0.0543346 0)
  (-0.058756 0.0724631 0)
  (-0.0355426 0.0825637 0)
  (0.00594782 0.0656002 0)
  (0.142545 -0.00506383 0)
  (-0.207498 -0.116842 0)
  (0.941212 -0.00328593 0)
  (-0.536117 -0.460959 0)
  (-0.31738 0.089868 0)
  (-0.229942 -0.020262 0)
  (-0.18214 -0.0425965 0)
  (-0.167795 -0.0312009 0)
  (-0.165313 -0.0188039 0)
  (-0.16623 -0.00907344 0)
  (-0.16605 -0.00122483 0)
  (-0.163338 0.0056321 0)
  (-0.158107 0.0117925 0)
  (-0.150625 0.0171881 0)
  (-0.141883 0.0215829 0)
  (-0.133293 0.0251204 0)
  (-0.125625 0.0283668 0)
  (-0.119199 0.0315322 0)
  (-0.113985 0.0346895 0)
  (-0.109802 0.0376526 0)
  (-0.106524 0.0401005 0)
  (-0.104079 0.0417404 0)
  (-0.102415 0.0424121 0)
  (-0.101477 0.0421136 0)
  (-0.101212 0.0409822 0)
  (-0.10156 0.0391685 0)
  (-0.102438 0.0370871 0)
  (-0.103735 0.0349313 0)
  (-0.105273 0.0328168 0)
  (-0.106761 0.0308426 0)
  (-0.107754 0.0290954 0)
  (-0.107558 0.0276698 0)
  (-0.104905 0.0272228 0)
  (-0.0978414 0.0284087 0)
  (-0.0838617 0.031973 0)
  (-0.0612381 0.0388074 0)
  (-0.0310911 0.0493493 0)
  (0.019416 0.0633125 0)
  (0.0630423 0.0636598 0)
  (0.105657 0.0482936 0)
  (0.164876 0.0185288 0)
  (-0.212335 -0.0375267 0)
)
;

boundaryField
{
  floor
  {
    type noSlip;
  }
  ceiling
  {
    type noSlip;
  }
  sWall
  {
    type noSlip;
  }
  nWall
  {
    type noSlip;
  }
  sideWalls
  {
    type empty;
  }
  glass1
  {
    type noSlip;
  }
  glass2
  {
    type noSlip;
  }
  sun
  {
    type noSlip;
  }
  heatsource1
  {
    type noSlip;
  }
  heatsource2
  {
    type noSlip;
  }
  Table_master
  {
    type noSlip;
  }
  Table_slave
  {
    type noSlip;
  }
  inlet
  {
    type fixedValue;
    value uniform (0.3 0 0);
  }
  outlet
  {
    type zeroGradient;
  }
} 	// ************************************************************************* //

