/*--------------------------------*- C++ -*----------------------------------*\
  =========                 |
  \\      /  F ield         | OpenFOAM: The Open Source CFD Toolbox
   \\    /   O peration     | Website:  https://openfoam.org
    \\  /    A nd           | Version:  6
     \\/     M anipulation  |
\*---------------------------------------------------------------------------*/
FoamFile
{
    version     2.0;
    format      ascii;
    class       surfaceScalarField;
    location    "1100";
    object      phi;
}
// * * * * * * * * * * * * * * * * * * * * * * * * * * * * * * * * * * * * * //

dimensions      [1 0 -1 0 0 0 0];

internalField   nonuniform List<scalar> 
852
(
-0.00295829
0.00301578
-0.00399456
0.00103627
-0.00479333
0.000798776
-0.00541643
0.000623104
-0.00583013
0.000413704
-0.0060062
0.000176074
-0.00591636
-8.9834e-05
-0.00553845
-0.000377913
-0.00488797
-0.000650471
-0.00402962
-0.000858349
-0.00306294
-0.000966676
-0.00209947
-0.000963469
-0.00124089
-0.00085857
-0.000547962
-0.000692927
-0.00054627
-0.000779709
0.000782741
-0.000524817
-0.000254889
6.88913e-05
-0.000593705
0.000568468
-0.000499573
0.000915014
-0.000346543
0.00114079
-0.000225773
0.00126647
-0.000125674
0.00132711
-6.06357e-05
0.0013605
-3.33945e-05
0.00138092
-2.0415e-05
0.00139236
-1.1435e-05
0.00139637
-4.00486e-06
0.00139167
4.70272e-06
0.00137086
2.08168e-05
0.00131306
5.78015e-05
0.00118331
0.000129752
0.000970492
0.000212821
0.000712843
0.000257653
0.000716902
-0.00211981
0.00529047
-0.00313882
0.0020553
-0.00396762
0.00162757
-0.00458752
0.00124301
-0.00499983
0.000826021
-0.00518541
0.000361661
-0.00511273
-0.000162508
-0.0047638
-0.00072684
-0.00416663
-0.00124764
-0.00339665
-0.00162832
-0.00255169
-0.00181163
-0.0017265
-0.00178866
-0.00100152
-0.00158354
-0.000451507
-0.00124294
-0.000186452
-0.000811321
0.000108959
-0.000295459
0.000108912
0.000255386
0.000536183
0.000656089
-0.000655588
0.000921057
-0.000858669
0.00114424
-0.000722754
0.00132196
-0.000524256
0.00143676
-0.000340577
0.00145713
-0.00014604
0.00146216
-6.56634e-05
0.00146828
-3.95091e-05
0.00147344
-2.55648e-05
0.00147686
-1.48569e-05
0.00147871
-5.8505e-06
0.00147837
5.04707e-06
0.00147268
2.65058e-05
0.00143409
9.64003e-05
0.00126819
0.000295649
0.000980422
0.000500595
0.000621826
0.000616253
0.00134904
-0.00149048
0.00701789
-0.00237351
0.00293833
-0.00311496
0.00236902
-0.00365184
0.00177989
-0.00401858
0.00119277
-0.00419103
0.000534115
-0.00411492
-0.000238607
-0.00376394
-0.00107782
-0.00319168
-0.00181989
-0.00249164
-0.00232836
-0.00175851
-0.00254476
-0.00106542
-0.00248175
-0.000464342
-0.00218461
9.40075e-06
-0.00171668
0.000321974
-0.00112389
0.00046554
-0.00043902
0.000574455
0.00149166
-0.000945825
0.00171055
-0.000874475
0.00166663
-0.000814745
0.00165477
-0.000710886
0.00167961
-0.0005491
0.0017213
-0.000382262
0.00157542
0.00150991
0.00147056
0.00144515
0.00143045
0.00142475
0.00142996
0.00145662
0.00155318
0.00128142
0.000567413
0.000949639
0.000832376
0.000533634
0.00103226
0.00189826
-0.00104425
0.00836893
-0.00174775
0.00364183
-0.00224706
0.00286834
-0.00260773
0.00214057
-0.00286147
0.00144651
-0.0029721
0.000644752
-0.00284234
-0.000368357
-0.00245421
-0.00146596
-0.00190857
-0.00236552
-0.00130843
-0.00292849
-0.000729187
-0.00312399
-0.000211388
-0.00299954
0.000229026
-0.00262502
0.000592006
-0.00207965
0.000915168
-0.00144705
0.00127926
-0.000803112
0.00212039
-0.000266669
0.00247997
-0.000351063
0.00212746
-0.000593311
0.00199506
-0.000742071
0.00186977
-0.000689451
0.00175712
-0.000598234
0.00168651
-0.000478488
0.00163129
-0.000327039
0.00177427
-0.000143132
0.00186357
-8.94537e-05
0.00193605
-7.26275e-05
0.00199322
-5.73199e-05
0.00202057
-2.75038e-05
0.00199588
2.45392e-05
0.00189331
0.000102419
0.00167924
0.000213915
0.00129857
0.000380519
0.00113571
0.000730275
0.000820346
0.00114775
0.000348184
0.00150443
0.00226675
-0.000729948
0.00946493
-0.00126564
0.00417753
-0.00138962
0.00299232
-0.00148539
0.00223635
-0.00154997
0.00151109
-0.00151683
0.000611612
-0.00124754
-0.000637643
-0.000809104
-0.00190439
-0.000333664
-0.00284095
9.95603e-05
-0.00336171
0.000455173
-0.0034796
0.000727834
-0.0032722
0.000938437
-0.00283562
0.00111694
-0.00225815
0.00129733
-0.00162743
0.00152703
-0.00103281
0.00184941
-0.000589041
0.00195585
-0.000457502
0.00187586
-0.000513314
0.00170179
-0.000568001
0.00154605
-0.000533708
0.00141304
-0.000465229
0.00131632
-0.000381757
0.00127205
-0.000282768
0.00131726
-0.00018834
0.00137374
-0.000145937
0.00143475
-0.000133631
0.00149679
-0.000119357
0.00154908
-7.97931e-05
0.00157071
2.90783e-06
0.00153965
0.000133481
0.00144393
0.000309634
0.00128498
0.000539474
0.00113594
0.000879319
0.000968024
0.00131566
0.000605616
0.00186684
0.000495069
0.00237729
-0.000997241
0.00149211
-0.001459
0.000461553
-0.0014103
-0.000632141
0.0105131
-0.00100095
0.00454634
-0.000608622
0.0026
-0.000319267
0.001947
-0.000109053
0.00130088
0.000208241
0.000294322
0.000684243
-0.00111364
0.00112148
-0.00234162
0.00143591
-0.00315538
0.00161238
-0.00353818
0.00167514
-0.00354235
0.00165693
-0.00325399
0.00158965
-0.00276834
0.00151075
-0.00217925
0.00145347
-0.00157015
0.00144276
-0.0010221
0.00147221
-0.000618488
0.00144039
-0.000425681
0.00131682
-0.00038974
0.0011395
-0.000390673
0.00097692
-0.00037113
0.000847762
-0.000336069
0.000760263
-0.000294256
0.000725364
-0.000247867
0.00074651
-0.000209485
0.000798722
-0.000198147
0.000867843
-0.000202751
0.000947926
-0.00019944
0.00103282
-0.000164683
0.0011109
-7.51697e-05
0.00116317
8.12049e-05
0.00118367
0.000289141
0.00118171
0.000541431
0.0012019
0.00085913
0.00129064
0.00122692
0.00146389
0.00169359
0.00190279
0.00193839
0.00216335
0.00123155
0.00177614
0.000848766
0.000424307
-0.000720144
0.0116939
-0.000607877
0.00443407
0.000465979
0.00152615
0.00113716
0.00127582
0.00170079
0.000737254
0.00234167
-0.000346561
0.00289721
-0.00166917
0.00320551
-0.00264992
0.00326048
-0.00321035
0.00310758
-0.00338528
0.0028103
-0.00324505
0.00243265
-0.00287634
0.00202919
-0.00236488
0.00164815
-0.0017982
0.00132241
-0.00124441
0.00107202
-0.000771705
0.000894309
-0.000440774
0.000743205
-0.000274574
0.000583353
-0.000229886
0.000422255
-0.000229572
0.000283258
-0.000232132
0.000177929
-0.000230738
0.000110925
-0.000227251
8.68058e-05
-0.000223747
0.000103943
-0.000226621
0.000148665
-0.000242868
0.000210339
-0.000264425
0.000287025
-0.000276125
0.000382722
-0.000260379
0.000502435
-0.000194882
0.000634522
-5.08816e-05
0.000766666
0.000156998
0.000908289
0.000399809
0.00109781
0.000669612
0.00138163
0.000943099
0.00182637
0.00124885
0.00249659
0.00126818
0.00304134
0.000686811
0.00306261
0.000827492
0.00354978
0.00260255
0.00960603
0.00327824
0.00375839
0.00343688
0.00136751
0.00388147
0.000831243
0.00456436
5.43652e-05
0.00525587
-0.00103807
0.00554076
-0.00195405
0.00542064
-0.00252979
0.00498175
-0.00277145
0.00432814
-0.00273166
0.00356188
-0.00247879
0.00276951
-0.00208397
0.00201103
-0.00160639
0.00134146
-0.00112863
0.000788133
-0.000691078
0.000372816
-0.000356386
9.49081e-05
-0.000162864
-9.07861e-05
-8.88781e-05
-0.000233461
-8.72097e-05
-0.000353967
-0.000109064
-0.000453307
-0.00013279
-0.000529112
-0.000154933
-0.000580369
-0.000175992
-0.000606667
-0.000197447
-0.000611146
-0.000222141
-0.000602613
-0.000251401
-0.000587084
-0.000279952
-0.000564002
-0.000299206
-0.000525137
-0.000299244
-0.000451502
-0.000268517
-0.000312016
-0.000190367
-0.000120567
-3.44508e-05
0.000103625
0.000175618
0.000379806
0.000393431
0.00071763
0.000605276
0.00115688
0.000809607
0.0016258
0.000799254
0.00180912
0.000503494
0.00105683
0.00157979
0.00486681
0.0101711
0.0139224
0.0122335
0.00305642
0.0113194
0.00174529
0.0105821
0.000791721
0.00969582
-0.000151794
0.00855222
-0.00081044
0.00725861
-0.00123617
0.00590943
-0.00142226
0.00457322
-0.00139544
0.00331268
-0.00121825
0.00217881
-0.000950093
0.0011816
-0.000609172
0.000363273
-0.000310308
-0.000241587
-8.62165e-05
-0.000619941
2.19687e-05
-0.00082611
4.33066e-05
-0.000944311
2.93241e-05
-0.0010324
8.75462e-07
-0.00111112
-3.0339e-05
-0.00118305
-6.08595e-05
-0.00124781
-9.01742e-05
-0.00130588
-0.000117916
-0.00135893
-0.0001444
-0.00141101
-0.000170062
-0.00146942
-0.000192986
-0.00154164
-0.000207736
-0.00163504
-0.000205804
-0.00175863
-0.000175648
-0.0019239
-0.000103252
-0.00213849
2.42283e-05
-0.00238902
0.000216078
-0.00270057
0.000487171
-0.00316077
0.000853637
-0.00386621
0.00131071
-0.00488002
0.00182342
-0.00631493
0.00223416
-0.00803737
0.00222594
-0.00751471
0.00105713
-0.00235949
0.00510949
0.00457348
0.00410991
0.00274488
0.00451392
0.000387731
0.00455419
-0.000192054
0.00414754
-0.000403787
0.00346581
-0.000554437
0.00261961
-0.000576057
0.00170094
-0.000476779
0.000784154
-0.000301466
-7.73873e-05
-8.85526e-05
-0.000779918
9.3359e-05
-0.00124207
0.000151846
-0.00149291
0.000164623
-0.00161565
0.000144714
-0.00168337
0.000111026
-0.00173128
7.72321e-05
-0.00177619
4.57887e-05
-0.00182482
1.8286e-05
-0.00188066
-5.01125e-06
-0.00194392
-2.69176e-05
-0.00201414
-4.76928e-05
-0.00209244
-6.61015e-05
-0.00218021
-8.22869e-05
-0.00227964
-9.35629e-05
-0.0023918
-9.55737e-05
-0.00251543
-8.21647e-05
-0.00264575
-4.53282e-05
-0.0027737
2.46999e-05
-0.0028872
0.000137725
-0.00298392
0.0003128
-0.00307246
0.000575711
-0.00316019
0.000941372
-0.00324515
0.00139567
-0.00327938
0.00185765
-0.00320089
0.00215567
-0.00282575
0.00185081
-0.00155333
-0.000215292
-0.00383739
-0.000454317
0.00508405
0.000847331
0.00144324
0.000826713
0.000408356
0.000565895
6.87679e-05
0.000197824
-3.5716e-05
-0.000320196
-3.64215e-05
-0.000910487
1.42311e-05
-0.00146544
7.8177e-05
-0.00190273
0.000135814
-0.00217111
0.00017983
-0.00227828
0.000200536
-0.00231421
0.000187777
-0.00231193
0.000162344
-0.00230062
0.000133404
-0.00229645
0.000106854
-0.00230331
8.40939e-05
-0.00232121
6.36877e-05
-0.00234788
4.49604e-05
-0.00238081
2.79142e-05
-0.00242051
1.27854e-05
-0.00246699
-1.21761e-06
-0.00252
-1.30849e-05
-0.00257941
-2.28768e-05
-0.00264349
-2.9482e-05
-0.00270828
-3.07799e-05
-0.00276688
-2.35703e-05
-0.00280855
-3.65373e-06
-0.00282098
3.71348e-05
-0.00279091
0.000107655
-0.00269475
0.000216637
-0.00249931
0.000380275
-0.00217756
0.000619619
-0.00171588
0.000933995
-0.00109107
0.00123284
-0.000121554
0.00118615
0.0011716
0.000557655
0.00156816
-0.000611853
-0.00218642
-0.00797543
-0.0108295
-0.0057013
-0.00423497
-0.00381221
-0.00373387
-0.00376311
-0.00379532
-0.00377857
-0.00369914
-0.00356312
-0.00338396
-0.00318486
-0.00299916
-0.00283941
-0.00270902
-0.00260549
-0.00252498
-0.00246504
-0.00242395
-0.00239996
-0.00239111
-0.00239625
-0.00241321
-0.0024399
-0.00247313
-0.00250756
-0.00253468
-0.00254178
-0.00250796
-0.0024035
-0.00218993
-0.00181261
-0.00119585
-0.000264634
0.000965436
0.00214871
0.00270332
0.00208818
)
;

boundaryField
{
    floor
    {
        type            calculated;
        value           nonuniform List<scalar> 
29
(
0
0
0
0
0
0
0
0
0
0
0
0
0
0
0
0
0
0
0
0
-4.05554e-06
-1.0306e-05
-1.55808e-05
-2.03031e-05
-1.68874e-06
-3.02853e-06
-8.8241e-06
-9.65274e-06
-8.51171e-06
)
;
    }
    ceiling
    {
        type            calculated;
        value           nonuniform List<scalar> 
43
(
-4.66472e-05
-4.53697e-05
-4.4099e-05
-2.30947e-05
-1.44041e-05
-9.5744e-06
-6.48056e-06
-4.21274e-06
-2.51627e-06
-1.24905e-06
-2.08628e-07
6.74457e-07
1.43371e-06
2.07595e-06
2.5975e-06
3.00964e-06
3.33191e-06
3.5779e-06
3.75405e-06
3.86624e-06
3.92415e-06
3.93932e-06
3.92166e-06
3.87764e-06
3.81658e-06
3.74117e-06
3.65321e-06
3.55383e-06
3.44333e-06
3.32048e-06
3.1941e-06
3.0706e-06
2.95514e-06
2.85496e-06
2.7834e-06
2.7754e-06
2.87713e-06
3.05279e-06
3.28175e-06
4.29317e-06
1.01158e-05
7.08697e-06
-5.62514e-05
)
;
    }
    sWall
    {
        type            calculated;
        value           uniform -0.000271161;
    }
    nWall
    {
        type            calculated;
        value           nonuniform List<scalar> 6(-4.88929e-05 -5.84705e-05 -6.28597e-05 -7.54223e-05 -8.28058e-05 -0.000102531);
    }
    sideWalls
    {
        type            empty;
        value           nonuniform 0();
    }
    glass1
    {
        type            calculated;
        value           nonuniform List<scalar> 9(-5.74846e-05 -0.000154881 -0.000236935 -0.000306775 -0.000366056 -0.000416015 -0.000460651 -0.000514686 -0.000575171);
    }
    glass2
    {
        type            calculated;
        value           nonuniform List<scalar> 2(-0.000260204 -0.00028841);
    }
    sun
    {
        type            calculated;
        value           uniform 0;
    }
    heatsource1
    {
        type            calculated;
        value           nonuniform List<scalar> 3(2.04246e-07 2.04179e-07 2.04197e-07);
    }
    heatsource2
    {
        type            calculated;
        value           nonuniform List<scalar> 4(5.12026e-08 5.12895e-08 0 0);
    }
    Table_master
    {
        type            calculated;
        value           nonuniform List<scalar> 9(-1.53177e-07 -1.53266e-07 -1.53299e-07 -1.53321e-07 -1.53337e-07 -1.53347e-07 -1.53353e-07 -1.53348e-07 -1.53319e-07);
    }
    Table_slave
    {
        type            calculated;
        value           nonuniform List<scalar> 9(1.53053e-07 1.5307e-07 1.53047e-07 1.53028e-07 1.5302e-07 1.53023e-07 1.53037e-07 1.5308e-07 1.53161e-07);
    }
    inlet
    {
        type            calculated;
        value           uniform -0.00662653;
    }
    outlet
    {
        type            calculated;
        value           nonuniform List<scalar> 2(0.00829324 0.00289939);
    }
}


// ************************************************************************* //
