// -*- C++ -*-
// File generated by PyFoam - sorry for the ugliness

FoamFile
{
 version 2.0;
 format ascii;
 class volVectorField;
 location "1100";
 object U;
}

dimensions [ 0 1 -1 0 0 0 0 ];

internalField nonuniform List<vector> 459
(
  (0.0346178 0.0858665 0)
  (-0.167038 0.0253842 0)
  (-0.191628 0.0178219 0)
  (-0.222612 0.0121547 0)
  (-0.245069 0.00589115 0)
  (-0.257896 -0.000779555 0)
  (-0.259398 -0.00792496 0)
  (-0.248289 -0.0155685 0)
  (-0.225154 -0.0230177 0)
  (-0.191883 -0.0289413 0)
  (-0.152199 -0.0322394 0)
  (-0.110494 -0.0323746 0)
  (-0.0710004 -0.0295201 0)
  (-0.0389095 -0.0248504 0)
  (-0.0282645 -0.0202354 0)
  (-0.006017 0.00892933 0)
  (-0.0293407 -0.0167239 0)
  (-0.00771099 -0.0265494 0)
  (0.0159482 -0.0204724 0)
  (0.0314159 -0.0140562 0)
  (0.0441524 -0.00912109 0)
  (0.0521969 -0.00530188 0)
  (0.05638 -0.00329808 0)
  (0.0582582 -0.00249785 0)
  (0.0591795 -0.00215561 0)
  (0.0597464 -0.0019442 0)
  (0.0600601 -0.00177339 0)
  (0.0600636 -0.00156543 0)
  (0.0595734 -0.00115567 0)
  (0.0580697 -0.000180702 0)
  (0.0544353 0.0018599 0)
  (0.0474591 0.00399164 0)
  (0.041406 0.0056172 0)
  (-0.0140842 0.0202531 0)
  (0.209553 0.175993 0)
  (-0.156446 0.0672399 0)
  (-0.154699 0.0529814 0)
  (-0.186879 0.0412097 0)
  (-0.209209 0.0278293 0)
  (-0.222347 0.0127209 0)
  (-0.224558 -0.00443741 0)
  (-0.21439 -0.0230574 0)
  (-0.193035 -0.040535 0)
  (-0.162799 -0.0537629 0)
  (-0.12754 -0.060621 0)
  (-0.0913344 -0.0604681 0)
  (-0.0577431 -0.0539248 0)
  (-0.0302124 -0.0426359 0)
  (-0.0127384 -0.0290789 0)
  (0.00105573 -0.0110984 0)
  (-2.36692e-05 0.0154921 0)
  (0.0623574 0.036479 0)
  (0.0244512 -0.0178292 0)
  (0.0330272 -0.0312747 0)
  (0.0441882 -0.027915 0)
  (0.053136 -0.0201385 0)
  (0.0597368 -0.0126393 0)
  (0.0626145 -0.00537702 0)
  (0.0631778 -0.00120171 0)
  (0.0631331 0.000540094 0)
  (0.0632442 0.00130897 0)
  (0.0634514 0.00178005 0)
  (0.0636035 0.00216783 0)
  (0.0636575 0.00263539 0)
  (0.0635714 0.00349396 0)
  (0.0628428 0.00560233 0)
  (0.0591654 0.011484 0)
  (0.0498238 0.0163117 0)
  (0.0458123 0.0193608 0)
  (-0.0509127 0.0440285 0)
  (0.370067 0.263445 0)
  (-0.173597 0.107237 0)
  (-0.116259 0.0858274 0)
  (-0.147729 0.0647849 0)
  (-0.167686 0.0427227 0)
  (-0.179999 0.0181609 0)
  (-0.18193 -0.00976278 0)
  (-0.171113 -0.0395977 0)
  (-0.15001 -0.0666974 0)
  (-0.12185 -0.0859956 0)
  (-0.0906855 -0.0948127 0)
  (-0.0600372 -0.0930394 0)
  (-0.0321887 -0.0821272 0)
  (-0.00924893 -0.0643498 0)
  (0.00788928 -0.0409357 0)
  (0.0191096 -0.0145964 0)
  (0.0235316 0.0223353 0)
  (0.110981 -0.0266646 0)
  (0.0743875 -0.0374375 0)
  (0.0687723 -0.0381269 0)
  (0.0702818 -0.0327991 0)
  (0.0716636 -0.0249224 0)
  (0.073018 -0.0179886 0)
  (0.0717915 -0.0143983 0)
  (0.0671731 -0.0101778 0)
  (0.0638133 -0.00786938 0)
  (0.0623022 -0.00654549 0)
  (0.0616661 -0.00569364 0)
  (0.0613498 -0.00510278 0)
  (0.0613393 -0.00458201 0)
  (0.0620685 -0.00376778 0)
  (0.0646379 -0.000718032 0)
  (0.0625935 0.0160638 0)
  (0.049479 0.027597 0)
  (0.0523574 0.0351203 0)
  (-0.083366 0.0686797 0)
  (0.514922 0.333833 0)
  (-0.208612 0.142769 0)
  (-0.0753541 0.113856 0)
  (-0.105607 0.0849388 0)
  (-0.120159 0.056646 0)
  (-0.129337 0.0244128 0)
  (-0.128379 -0.0141294 0)
  (-0.114518 -0.0557829 0)
  (-0.0930188 -0.0917689 0)
  (-0.0678993 -0.115486 0)
  (-0.0426172 -0.124747 0)
  (-0.0196166 -0.120766 0)
  (0.000860104 -0.105748 0)
  (0.0177597 -0.0830884 0)
  (0.032056 -0.0563745 0)
  (0.0472992 -0.0274389 0)
  (0.0688407 0.00420034 0)
  (0.0993669 0.0164724 0)
  (0.104548 -0.0226426 0)
  (0.0909521 -0.033304 0)
  (0.0821324 -0.0325869 0)
  (0.0772161 -0.0285333 0)
  (0.0735491 -0.0225428 0)
  (0.071123 -0.0148879 0)
  (0.0724882 -0.00908348 0)
  (0.0775464 -0.00685406 0)
  (0.0818799 -0.00561508 0)
  (0.0848065 -0.0047252 0)
  (0.0866361 -0.0037139 0)
  (0.086909 -0.00228893 0)
  (0.0844678 -0.000191936 0)
  (0.0780526 0.0028792 0)
  (0.0651634 0.00745754 0)
  (0.0527004 0.0267252 0)
  (0.0403033 0.0428663 0)
  (0.0565398 0.0553891 0)
  (-0.117963 0.0906593 0)
  (0.640305 0.388393 0)
  (-0.251353 0.171841 0)
  (-0.0345596 0.130096 0)
  (-0.061444 0.0965393 0)
  (-0.0679778 0.0647937 0)
  (-0.0712195 0.0274947 0)
  (-0.0616157 -0.0207063 0)
  (-0.0425235 -0.073299 0)
  (-0.0219932 -0.114609 0)
  (-0.00273819 -0.138958 0)
  (0.0136314 -0.145683 0)
  (0.0261138 -0.138049 0)
  (0.0359171 -0.120321 0)
  (0.0438133 -0.09604 0)
  (0.0510973 -0.0687152 0)
  (0.0597306 -0.0421278 0)
  (0.0724262 -0.0225026 0)
  (0.0830598 -0.021379 0)
  (0.0842314 -0.0290373 0)
  (0.077958 -0.0298038 0)
  (0.0698669 -0.0268809 0)
  (0.0632244 -0.0230346 0)
  (0.0582254 -0.0184949 0)
  (0.0552287 -0.0131565 0)
  (0.0551144 -0.00745914 0)
  (0.0575552 -0.00469868 0)
  (0.0603795 -0.00370367 0)
  (0.0630829 -0.00291195 0)
  (0.065558 -0.00128711 0)
  (0.0674486 0.00178473 0)
  (0.0674861 0.00639507 0)
  (0.0650585 0.0126845 0)
  (0.0595832 0.0212742 0)
  (0.0525842 0.0364564 0)
  (0.0421806 0.0543292 0)
  (0.064772 0.0741719 0)
  (-0.023303 0.102818 0)
  (0.0461042 0.0309462 0)
  (-0.0625398 -0.0346352 0)
  (-0.273177 -0.0573665 0)
  (0.731471 0.433917 0)
  (-0.293025 0.191469 0)
  (-0.00328772 0.126748 0)
  (-0.0163393 0.0979086 0)
  (-0.0123375 0.0673218 0)
  (-0.00708195 0.0248386 0)
  (0.0213103 -0.0376334 0)
  (0.0431248 -0.0936085 0)
  (0.0586756 -0.132034 0)
  (0.0681604 -0.151615 0)
  (0.072212 -0.154308 0)
  (0.0721994 -0.143668 0)
  (0.0696268 -0.123746 0)
  (0.0659793 -0.0985332 0)
  (0.0627387 -0.0717038 0)
  (0.0613087 -0.0469151 0)
  (0.0625473 -0.0284117 0)
  (0.0633814 -0.0209741 0)
  (0.0601617 -0.0205187 0)
  (0.0532417 -0.0205946 0)
  (0.0453996 -0.0191696 0)
  (0.0388403 -0.0169365 0)
  (0.0341005 -0.0142462 0)
  (0.0314761 -0.0111599 0)
  (0.0312262 -0.00829468 0)
  (0.0329847 -0.00721302 0)
  (0.0357043 -0.00710844 0)
  (0.03893 -0.00673159 0)
  (0.0424701 -0.00506064 0)
  (0.0460417 -0.00119586 0)
  (0.0493063 0.00519421 0)
  (0.0509925 0.0137052 0)
  (0.0513868 0.0244535 0)
  (0.0518704 0.0389058 0)
  (0.050524 0.0565423 0)
  (0.073295 0.079143 0)
  (0.0521275 0.0966107 0)
  (0.0933865 0.0673502 0)
  (0.116438 0.0444021 0)
  (-0.129628 -0.00734924 0)
  (0.783264 0.475298 0)
  (-0.314006 0.176993 0)
  (0.0234778 0.0773442 0)
  (0.0422271 0.0744159 0)
  (0.0571281 0.0530943 0)
  (0.0829597 0.00234458 0)
  (0.117388 -0.0619982 0)
  (0.13679 -0.111106 0)
  (0.143301 -0.140882 0)
  (0.139656 -0.15273 0)
  (0.128576 -0.149614 0)
  (0.112957 -0.135278 0)
  (0.0953603 -0.113589 0)
  (0.0780113 -0.0884682 0)
  (0.062593 -0.0631433 0)
  (0.0503477 -0.0407143 0)
  (0.0417234 -0.024283 0)
  (0.0352203 -0.0159525 0)
  (0.0286848 -0.0135641 0)
  (0.0216086 -0.0131941 0)
  (0.0149163 -0.0126624 0)
  (0.00953858 -0.0118498 0)
  (0.00579289 -0.0109034 0)
  (0.00385415 -0.00989353 0)
  (0.00379744 -0.00922748 0)
  (0.00525211 -0.00950576 0)
  (0.00757577 -0.0102067 0)
  (0.0104953 -0.0104588 0)
  (0.0140439 -0.00937426 0)
  (0.0183452 -0.00592167 0)
  (0.0243385 0.000936354 0)
  (0.0304571 0.0103163 0)
  (0.0361717 0.0212349 0)
  (0.043365 0.034149 0)
  (0.0511165 0.0487258 0)
  (0.0733659 0.067017 0)
  (0.0864473 0.0742976 0)
  (0.118933 0.0514349 0)
  (0.158684 0.0436182 0)
  (-0.0346721 0.09404 0)
  (0.887948 0.478134 0)
  (-0.0712105 0.156715 0)
  (0.105902 0.0042287 0)
  (0.168795 -0.0156176 0)
  (0.181417 -0.0340316 0)
  (0.216638 -0.0683717 0)
  (0.238644 -0.101419 0)
  (0.241358 -0.125115 0)
  (0.227554 -0.136914 0)
  (0.202196 -0.137019 0)
  (0.170129 -0.12719 0)
  (0.135572 -0.110068 0)
  (0.101551 -0.0883172 0)
  (0.0705421 -0.0652249 0)
  (0.0440113 -0.0432385 0)
  (0.023311 -0.0249225 0)
  (0.00890288 -0.012801 0)
  (-0.000535245 -0.00735658 0)
  (-0.0072197 -0.00639143 0)
  (-0.0128185 -0.00691774 0)
  (-0.0176048 -0.00754251 0)
  (-0.0214043 -0.0080823 0)
  (-0.0241412 -0.008594 0)
  (-0.0257729 -0.00916666 0)
  (-0.0263536 -0.00999366 0)
  (-0.0261915 -0.0112022 0)
  (-0.0256638 -0.0125122 0)
  (-0.0248955 -0.0134716 0)
  (-0.0237361 -0.0135755 0)
  (-0.0217941 -0.0122298 0)
  (-0.0180914 -0.00868053 0)
  (-0.00916989 -0.00217448 0)
  (-0.000124948 0.0063744 0)
  (0.0106423 0.0148032 0)
  (0.0224061 0.0218648 0)
  (0.0422396 0.0291154 0)
  (0.0606097 0.021896 0)
  (0.0797733 -0.00563695 0)
  (0.138766 0.0406072 0)
  (-0.416677 0.207914 0)
  (1.03298 0.430406 0)
  (0.497515 0.285356 0)
  (0.503611 0.192112 0)
  (0.511512 0.12089 0)
  (0.486133 0.0694077 0)
  (0.443734 0.0161124 0)
  (0.393938 -0.0323551 0)
  (0.340593 -0.0668771 0)
  (0.283476 -0.0848093 0)
  (0.224989 -0.0881185 0)
  (0.168387 -0.0808321 0)
  (0.116456 -0.0669962 0)
  (0.0701828 -0.0493238 0)
  (0.0314668 -0.0312758 0)
  (-0.00011537 -0.0150537 0)
  (-0.0210973 -0.00487296 0)
  (-0.0323282 -0.00103184 0)
  (-0.0385747 -0.000484127 0)
  (-0.0426549 -0.00143487 0)
  (-0.0462157 -0.00278002 0)
  (-0.0494673 -0.00411823 0)
  (-0.0524175 -0.00539349 0)
  (-0.0550514 -0.00663536 0)
  (-0.0574015 -0.00788921 0)
  (-0.0595964 -0.00920692 0)
  (-0.0619096 -0.0105523 0)
  (-0.0646731 -0.011698 0)
  (-0.0681875 -0.0122626 0)
  (-0.0727806 -0.0117139 0)
  (-0.0789127 -0.00935126 0)
  (-0.0871794 -0.00435009 0)
  (-0.0976557 0.00391259 0)
  (-0.108286 0.0149121 0)
  (-0.123725 0.028785 0)
  (-0.148127 0.0455431 0)
  (-0.184 0.063934 0)
  (-0.234605 0.0798242 0)
  (-0.291957 0.0905675 0)
  (-0.360484 0.0962289 0)
  (-0.622405 0.0976059 0)
  (-0.148287 0.0840142 0)
  (0.135528 0.0635953 0)
  (0.218857 0.00796954 0)
  (0.202334 -0.0275623 0)
  (0.186668 -0.0425099 0)
  (0.164248 -0.0476693 0)
  (0.131871 -0.0463562 0)
  (0.0933678 -0.0401485 0)
  (0.0534628 -0.0305179 0)
  (0.0155591 -0.018382 0)
  (-0.0220137 -0.00442356 0)
  (-0.0460073 0.00338334 0)
  (-0.0607031 0.00686045 0)
  (-0.0678767 0.00729765 0)
  (-0.0713306 0.0064647 0)
  (-0.0735945 0.00539331 0)
  (-0.0755358 0.00430005 0)
  (-0.0774727 0.00324286 0)
  (-0.0797149 0.00217596 0)
  (-0.0823089 0.00100283 0)
  (-0.0851776 -0.000212075 0)
  (-0.0883516 -0.00139254 0)
  (-0.0919026 -0.00245061 0)
  (-0.0959251 -0.00323009 0)
  (-0.100499 -0.00348762 0)
  (-0.105624 -0.00290627 0)
  (-0.111198 -0.00112118 0)
  (-0.116988 0.00224334 0)
  (-0.122392 0.00761128 0)
  (-0.126589 0.0156912 0)
  (-0.130049 0.0276053 0)
  (-0.133045 0.0437149 0)
  (-0.136425 0.0630703 0)
  (-0.140709 0.0819184 0)
  (-0.142657 0.0903089 0)
  (-0.125045 0.0674419 0)
  (-0.0795179 -0.0264605 0)
  (-0.279792 -0.205125 0)
  (-0.0247959 0.232252 0)
  (0.063158 0.101196 0)
  (0.0377976 0.0203974 0)
  (0.0257383 -0.00326746 0)
  (0.017145 -0.0090358 0)
  (-0.00102964 -0.0107978 0)
  (-0.0259563 -0.00835257 0)
  (-0.0518836 -0.00360284 0)
  (-0.0739965 0.00112598 0)
  (-0.089342 0.00438761 0)
  (-0.0968698 0.00489199 0)
  (-0.0995261 0.00282308 0)
  (-0.0999661 5.62603e-06 0)
  (-0.0994043 -0.00317102 0)
  (-0.0989346 -0.00636844 0)
  (-0.0989626 -0.00932919 0)
  (-0.0995148 -0.0119456 0)
  (-0.100503 -0.0140499 0)
  (-0.101803 -0.0155343 0)
  (-0.103348 -0.0164112 0)
  (-0.105203 -0.0167886 0)
  (-0.107347 -0.0167077 0)
  (-0.109789 -0.0164024 0)
  (-0.112496 -0.0158473 0)
  (-0.115353 -0.0149173 0)
  (-0.118127 -0.0133766 0)
  (-0.12045 -0.0108553 0)
  (-0.121802 -0.0068028 0)
  (-0.121606 -0.000912368 0)
  (-0.118863 0.00737715 0)
  (-0.112116 0.0189547 0)
  (-0.100103 0.0345819 0)
  (-0.0826069 0.0537835 0)
  (-0.0605473 0.0723044 0)
  (-0.0368862 0.0829902 0)
  (0.00369847 0.0668716 0)
  (0.143241 -0.00432116 0)
  (-0.207657 -0.115755 0)
  (-0.107119 -0.350321 0)
  (-0.440838 -0.120293 0)
  (-0.311856 0.0968093 0)
  (-0.226226 -0.020481 0)
  (-0.179068 -0.0430902 0)
  (-0.164069 -0.0316796 0)
  (-0.161503 -0.0190344 0)
  (-0.162837 -0.00888158 0)
  (-0.163579 -0.00039469 0)
  (-0.161405 0.00691243 0)
  (-0.156801 0.0135144 0)
  (-0.149848 0.0194388 0)
  (-0.141467 0.0244372 0)
  (-0.13309 0.028503 0)
  (-0.125598 0.0322246 0)
  (-0.119328 0.0357911 0)
  (-0.114298 0.0392606 0)
  (-0.110346 0.0424495 0)
  (-0.107332 0.0450333 0)
  (-0.105166 0.0467373 0)
  (-0.103768 0.0474282 0)
  (-0.103066 0.0471292 0)
  (-0.102997 0.0459784 0)
  (-0.103495 0.0441367 0)
  (-0.104475 0.0420433 0)
  (-0.105833 0.0398274 0)
  (-0.107396 0.0375949 0)
  (-0.108886 0.0354366 0)
  (-0.109868 0.0334293 0)
  (-0.10966 0.0316552 0)
  (-0.107009 0.0308334 0)
  (-0.0999993 0.0316363 0)
  (-0.0861403 0.0348136 0)
  (-0.0636052 0.0412579 0)
  (-0.0331673 0.0514531 0)
  (0.0162152 0.0651358 0)
  (0.0607964 0.0661285 0)
  (0.103616 0.0509817 0)
  (0.164554 0.0213071 0)
  (-0.215681 -0.0344586 0)
)
;

boundaryField
{
  floor
  {
    type noSlip;
  }
  ceiling
  {
    type noSlip;
  }
  sWall
  {
    type noSlip;
  }
  nWall
  {
    type noSlip;
  }
  sideWalls
  {
    type empty;
  }
  glass1
  {
    type noSlip;
  }
  glass2
  {
    type noSlip;
  }
  sun
  {
    type noSlip;
  }
  heatsource1
  {
    type noSlip;
  }
  heatsource2
  {
    type noSlip;
  }
  Table_master
  {
    type noSlip;
  }
  Table_slave
  {
    type noSlip;
  }
  inlet
  {
    type fixedValue;
    value uniform (0.3 0 0);
  }
  outlet
  {
    type zeroGradient;
  }
} 	// ************************************************************************* //

