/*--------------------------------*- C++ -*----------------------------------*\
  =========                 |
  \\      /  F ield         | OpenFOAM: The Open Source CFD Toolbox
   \\    /   O peration     | Website:  https://openfoam.org
    \\  /    A nd           | Version:  6
     \\/     M anipulation  |
\*---------------------------------------------------------------------------*/
FoamFile
{
    version     2.0;
    format      ascii;
    class       volScalarField;
    location    "1100";
    object      nut;
}
// * * * * * * * * * * * * * * * * * * * * * * * * * * * * * * * * * * * * * //

dimensions      [0 2 -1 0 0 0 0];

internalField   nonuniform List<scalar> 
459
(
0.001063
0.00115846
0.00118003
0.00123618
0.00128819
0.00133721
0.00138587
0.00143239
0.00146503
0.00147751
0.00146383
0.00141974
0.00134332
0.00123697
0.00111268
0.000462674
0.000551802
0.000622784
0.000628402
0.000610395
0.000584558
0.000548757
0.000512254
0.000479026
0.000449585
0.000423572
0.000400515
0.000380043
0.000361732
0.000344921
0.000328776
0.000312163
0.000302311
0.000277321
0.00144872
0.0034227
0.00323402
0.00374971
0.00425467
0.00476159
0.0052032
0.00554681
0.00586656
0.00613272
0.00630856
0.00635608
0.0062299
0.00582193
0.00467386
0.00113165
0.000699333
0.00048277
0.00101101
0.00141316
0.00171717
0.00189626
0.00190513
0.00150946
0.00129745
0.00114662
0.00103128
0.000940025
0.000866012
0.00080299
0.000744529
0.000688242
0.000638491
0.000594598
0.000712581
0.000370526
0.00177006
0.00464407
0.00393917
0.00490467
0.00534645
0.00566909
0.00592298
0.00614757
0.0064082
0.00668968
0.00695893
0.00716536
0.00726426
0.00718238
0.00669804
0.00514372
0.00116468
0.000906256
0.00131573
0.00170946
0.00209137
0.00237509
0.00234738
0.000779793
0.000690335
0.000617602
0.000558506
0.000510162
0.00047026
0.000437087
0.000409529
0.000387092
0.000417254
0.000479689
0.000807797
0.000433963
0.00207926
0.00594864
0.00388789
0.0051184
0.00544956
0.00553138
0.00560315
0.0057349
0.00595605
0.00624927
0.00658462
0.00688987
0.00711712
0.00720361
0.00709889
0.00654588
0.00440771
0.00136258
0.00163218
0.002078
0.00256404
0.00299538
0.00329211
0.00313848
0.000882795
0.00080878
0.000756222
0.000716332
0.000682171
0.000649915
0.000618783
0.00058582
0.000547251
0.000512937
0.000517002
0.000943454
0.000483818
0.00239474
0.00765256
0.0042062
0.00488011
0.00533328
0.00528602
0.00524934
0.00535439
0.00556354
0.00586264
0.00623312
0.00656873
0.00680114
0.00688714
0.00682858
0.00660276
0.0060404
0.00511428
0.00479302
0.00473328
0.00476984
0.00481625
0.00481751
0.00466773
0.0039838
0.00365278
0.00346188
0.0033133
0.00315367
0.00292276
0.00259895
0.00219968
0.00175405
0.00131104
0.000968615
0.000959433
0.000657985
0.000598378
0.00072032
0.000808844
0.00272982
0.00952223
0.00579654
0.00472015
0.00515935
0.00530178
0.00517233
0.00527224
0.00544616
0.0057236
0.00608209
0.00643129
0.00666174
0.00670793
0.00658496
0.00637717
0.00617873
0.00604751
0.00604412
0.00605842
0.00602082
0.00592467
0.00577543
0.00556333
0.00524985
0.00497025
0.00472252
0.00448406
0.00424068
0.00397899
0.00364163
0.00321287
0.00269297
0.00211516
0.00159607
0.00117417
0.000907726
0.000779409
0.00111116
0.000846319
0.0030448
0.0108758
0.00833164
0.0060059
0.00559651
0.00563321
0.00550452
0.00543229
0.00551566
0.00577695
0.00615296
0.00651834
0.00673654
0.00673193
0.00653879
0.00630817
0.00623973
0.00639521
0.00659161
0.00664527
0.00653172
0.00630155
0.00599887
0.00565342
0.00529406
0.00496822
0.00467656
0.00440853
0.00416174
0.00394093
0.00374527
0.00347215
0.00307349
0.00257792
0.00209402
0.00164685
0.00133592
0.00125017
0.00128587
0.000971335
0.00311313
0.00988078
0.00856497
0.00757866
0.00697257
0.00632336
0.00577178
0.00553676
0.00563531
0.00598366
0.00643533
0.00681809
0.00698028
0.00687041
0.00658104
0.00634942
0.00640845
0.00667198
0.00676912
0.00661603
0.0062874
0.00585653
0.00538623
0.00493478
0.004546
0.00423139
0.00397489
0.00376404
0.00359782
0.0034819
0.00342349
0.00340024
0.00321063
0.00289757
0.00261805
0.00248289
0.00260823
0.00303505
0.00371341
0.00150511
0.00303842
0.00362884
0.00409901
0.00424856
0.00426305
0.00435622
0.00463376
0.00512206
0.00577703
0.00646864
0.00703297
0.00732772
0.00725466
0.00687543
0.00646075
0.00635579
0.00638612
0.00635656
0.00613673
0.00573159
0.00521595
0.00467236
0.00417643
0.0037736
0.00346858
0.00323878
0.00305804
0.00290907
0.00278104
0.0026652
0.00255381
0.00244614
0.00236
0.00229681
0.00227445
0.00228454
0.00226638
0.00216682
0.00201929
0.0014054
0.00183681
0.00327018
0.0045122
0.00554426
0.006381
0.0071302
0.00771503
0.00800807
0.00796678
0.00761039
0.00697715
0.00624615
0.00578127
0.00559037
0.00539539
0.00506938
0.00461971
0.00411307
0.00361606
0.00318789
0.0028627
0.00263284
0.0024739
0.00236239
0.00228257
0.00222561
0.00218691
0.00216466
0.00216138
0.00217988
0.0022069
0.00223937
0.00226925
0.00227109
0.00220472
0.00205911
0.00184652
0.00115164
0.00213552
0.00456126
0.00623652
0.00702408
0.00754842
0.00790313
0.00787448
0.00736293
0.00657833
0.00573552
0.00502197
0.00449964
0.00414721
0.00383636
0.00347224
0.00307253
0.00268914
0.00236817
0.00213094
0.00197204
0.00186848
0.0018045
0.00177449
0.00177018
0.00178652
0.00182018
0.001868
0.00192555
0.00199838
0.00208406
0.00218015
0.00228011
0.00236846
0.00242811
0.00240959
0.00242453
0.00237987
0.00117031
0.00183659
0.00193373
0.00200586
0.00207499
0.00187948
0.00172201
0.00164394
0.00156712
0.00145651
0.00132134
0.0011671
0.00101428
0.000879091
0.000771996
0.000694897
0.000641274
0.000603828
0.000578299
0.00056278
0.000556141
0.000557106
0.000564328
0.000576738
0.000593733
0.000614236
0.000638185
0.000665699
0.000697097
0.000732995
0.00077454
0.000821199
0.000873071
0.000930777
0.000994899
0.00106527
0.00115104
0.00117637
0.00114577
0.00107309
0.000995045
)
;

boundaryField
{
    floor
    {
        type            nutkWallFunction;
        Cmu             0.09;
        kappa           0.41;
        E               9.8;
        value           nonuniform List<scalar> 
29
(
0.000133899
5.49171e-05
6.62913e-05
7.51871e-05
7.58857e-05
7.36438e-05
7.04128e-05
6.59068e-05
6.12749e-05
5.7023e-05
5.32249e-05
4.9843e-05
4.68235e-05
4.41238e-05
4.16932e-05
3.94478e-05
3.7278e-05
3.50306e-05
3.36905e-05
3.02647e-05
3.02646e-05
4.28618e-05
5.11962e-05
5.76376e-05
0.000133899
5.4917e-05
5.75035e-05
0.000109631
0.000162607
)
;
    }
    ceiling
    {
        type            nutkWallFunction;
        Cmu             0.09;
        kappa           0.41;
        E               9.8;
        value           nonuniform List<scalar> 
43
(
0.000215398
0.000226035
0.000233897
0.000241496
0.000220215
0.000202882
0.000194226
0.00018566
0.000173239
0.000157913
0.000140209
0.000122402
0.000106393
9.35067e-05
8.40997e-05
7.74838e-05
7.28244e-05
6.96278e-05
6.76762e-05
6.68392e-05
6.69608e-05
6.78708e-05
6.94313e-05
7.15617e-05
7.41223e-05
7.70999e-05
8.05045e-05
8.43691e-05
8.87621e-05
9.38147e-05
9.94513e-05
0.000105674
0.000112546
0.000120125
0.000128377
0.000138353
0.000141283
0.000137743
0.000129291
0.000120142
0.000344128
0.000405151
0.000247851
)
;
    }
    sWall
    {
        type            nutkWallFunction;
        Cmu             0.09;
        kappa           0.41;
        E               9.8;
        value           uniform 0.000215458;
    }
    nWall
    {
        type            nutkWallFunction;
        Cmu             0.09;
        kappa           0.41;
        E               9.8;
        value           nonuniform List<scalar> 6(9.79635e-05 0.000102472 0.00011735 0.000138433 0.000140594 0.000120148);
    }
    sideWalls
    {
        type            empty;
    }
    glass1
    {
        type            nutkWallFunction;
        Cmu             0.09;
        kappa           0.41;
        E               9.8;
        value           nonuniform List<scalar> 9(0.000128211 0.000172579 0.000208518 0.000242427 0.000276469 0.00031211 0.000345198 0.000352337 0.000344556);
    }
    glass2
    {
        type            nutkWallFunction;
        Cmu             0.09;
        kappa           0.41;
        E               9.8;
        value           nonuniform List<scalar> 2(0.000178792 0.000167537);
    }
    sun
    {
        type            nutkWallFunction;
        Cmu             0.09;
        kappa           0.41;
        E               9.8;
        value           nonuniform List<scalar> 
14
(
0.000128114
0.00013921
0.000141703
0.000148169
0.00015413
0.000159723
0.000165252
0.000170519
0.000174201
0.000175607
0.000174065
0.000169087
0.000160416
0.000148258
)
;
    }
    heatsource1
    {
        type            nutkWallFunction;
        Cmu             0.09;
        kappa           0.41;
        E               9.8;
        value           nonuniform List<scalar> 3(7.21447e-05 8.72146e-05 9.79625e-05);
    }
    heatsource2
    {
        type            nutkWallFunction;
        Cmu             0.09;
        kappa           0.41;
        E               9.8;
        value           nonuniform List<scalar> 4(0.000136098 8.46459e-05 8.46459e-05 0.000139924);
    }
    Table_master
    {
        type            nutkWallFunction;
        Cmu             0.09;
        kappa           0.41;
        E               9.8;
        value           nonuniform List<scalar> 9(9.44517e-05 8.35403e-05 7.45444e-05 6.71408e-05 6.1013e-05 5.59013e-05 5.16104e-05 4.80146e-05 4.50644e-05);
    }
    Table_slave
    {
        type            nutkWallFunction;
        Cmu             0.09;
        kappa           0.41;
        E               9.8;
        value           nonuniform List<scalar> 9(0.000106834 9.79548e-05 9.15917e-05 8.67274e-05 8.25361e-05 7.85555e-05 7.46908e-05 7.05732e-05 6.57194e-05);
    }
    inlet
    {
        type            calculated;
        value           uniform 0.000100623;
    }
    outlet
    {
        type            calculated;
        value           nonuniform List<scalar> 2(0.00183659 0.00193373);
    }
}


// ************************************************************************* //
