// -*- C++ -*-
// File generated by PyFoam - sorry for the ugliness

FoamFile
{
 version 2.0;
 format ascii;
 class volScalarField;
 location "600";
 object T;
}

dimensions [ 0 0 0 1 0 0 0 ];

internalField nonuniform List<scalar> 459
(
  302.829
  302.575
  302.554
  302.546
  302.542
  302.551
  302.618
  302.762
  302.851
  302.912
  302.952
  302.979
  303.004
  303.028
  303.057
  304.509
  304.365
  304.253
  304.213
  304.252
  304.298
  304.343
  304.39
  304.438
  304.488
  304.54
  304.596
  304.655
  304.718
  304.786
  304.861
  304.948
  305.059
  305.221
  302.963
  302.584
  302.532
  302.51
  302.493
  302.486
  302.589
  302.795
  302.953
  303.06
  303.12
  303.145
  303.151
  303.139
  303.119
  303.139
  303.176
  304.586
  304.4
  304.12
  304.102
  304.157
  304.228
  304.28
  304.331
  304.384
  304.441
  304.502
  304.569
  304.643
  304.72
  304.802
  304.888
  304.982
  305.096
  305.254
  303.112
  302.625
  302.549
  302.518
  302.477
  302.426
  302.555
  302.829
  303.071
  303.235
  303.318
  303.339
  303.325
  303.286
  303.236
  303.215
  303.215
  304.572
  304.096
  303.967
  304.006
  304.118
  304.238
  304.275
  304.323
  304.379
  304.442
  304.517
  304.606
  304.709
  304.817
  304.915
  304.991
  305.065
  305.156
  305.292
  303.27
  302.696
  302.608
  302.577
  302.493
  302.373
  302.52
  302.863
  303.206
  303.44
  303.552
  303.57
  303.531
  303.459
  303.376
  303.315
  303.274
  303.302
  303.469
  303.573
  303.744
  303.958
  304.176
  304.36
  304.501
  304.6
  304.684
  304.763
  304.841
  304.918
  304.999
  305.09
  305.2
  305.198
  305.199
  305.235
  305.33
  303.43
  302.798
  302.709
  302.692
  302.519
  302.329
  302.484
  302.907
  303.361
  303.675
  303.816
  303.828
  303.756
  303.648
  303.538
  303.453
  303.401
  303.423
  303.515
  303.696
  303.939
  304.203
  304.45
  304.654
  304.816
  304.932
  305.03
  305.11
  305.18
  305.245
  305.307
  305.37
  305.43
  305.39
  305.327
  305.315
  305.367
  305.46
  305.69
  306.046
  303.589
  302.93
  302.853
  302.826
  302.517
  302.277
  302.458
  302.978
  303.553
  303.946
  304.105
  304.098
  303.988
  303.854
  303.732
  303.65
  303.62
  303.69
  303.862
  304.105
  304.375
  304.637
  304.864
  305.043
  305.177
  305.281
  305.352
  305.41
  305.463
  305.514
  305.563
  305.607
  305.618
  305.54
  305.44
  305.404
  305.425
  305.506
  305.635
  305.824
  303.772
  303.121
  303.081
  302.934
  302.453
  302.177
  302.45
  303.11
  303.817
  304.27
  304.414
  304.368
  304.247
  304.119
  304.016
  303.973
  304.012
  304.168
  304.407
  304.664
  304.917
  305.14
  305.319
  305.452
  305.555
  305.609
  305.647
  305.683
  305.718
  305.75
  305.773
  305.776
  305.744
  305.66
  305.564
  305.504
  305.503
  305.584
  305.676
  305.811
  304.005
  303.532
  303.483
  302.953
  302.206
  301.992
  302.502
  303.372
  304.215
  304.663
  304.736
  304.678
  304.589
  304.509
  304.463
  304.481
  304.594
  304.802
  305.048
  305.268
  305.473
  305.631
  305.749
  305.827
  305.867
  305.888
  305.906
  305.923
  305.937
  305.944
  305.938
  305.912
  305.861
  305.784
  305.701
  305.64
  305.649
  305.834
  305.894
  305.927
  304.351
  304.11
  303.856
  302.378
  301.449
  301.712
  302.793
  303.937
  304.817
  305.077
  305.111
  305.08
  305.045
  305.031
  305.053
  305.129
  305.269
  305.459
  305.656
  305.822
  305.95
  306.04
  306.094
  306.123
  306.135
  306.141
  306.145
  306.148
  306.145
  306.135
  306.114
  306.078
  306.028
  305.965
  305.906
  305.884
  305.946
  306.102
  306.209
  306.365
  294.448
  296.1
  299.175
  301.891
  304.182
  305.078
  305.423
  305.521
  305.546
  305.556
  305.573
  305.607
  305.667
  305.759
  305.88
  306.016
  306.143
  306.243
  306.312
  306.354
  306.376
  306.384
  306.386
  306.385
  306.381
  306.375
  306.365
  306.349
  306.323
  306.287
  306.237
  306.177
  306.117
  306.081
  306.101
  306.192
  306.282
  306.547
  297.129
  300.699
  303.342
  304.746
  305.491
  305.79
  305.907
  305.966
  306.005
  306.041
  306.081
  306.13
  306.192
  306.267
  306.35
  306.431
  306.5
  306.551
  306.584
  306.601
  306.607
  306.607
  306.603
  306.597
  306.588
  306.577
  306.563
  306.543
  306.516
  306.48
  306.434
  306.378
  306.319
  306.268
  306.246
  306.288
  306.377
  306.515
  314.053
  308.117
  304.145
  305.068
  305.789
  306.109
  306.264
  306.354
  306.412
  306.459
  306.499
  306.536
  306.571
  306.608
  306.645
  306.684
  306.72
  306.753
  306.777
  306.793
  306.801
  306.803
  306.8
  306.795
  306.787
  306.777
  306.766
  306.752
  306.735
  306.715
  306.689
  306.658
  306.62
  306.578
  306.533
  306.494
  306.473
  306.501
  306.668
  306.874
)
;

boundaryField
{
  floor
  {
    type wallHeatTransfer;
    Tinf uniform 305.2;
    alphaWall uniform 0.24;
    value nonuniform List<scalar> 29
(
  303.248
  304.609
  304.472
  304.361
  304.317
  304.348
  304.39
  304.434
  304.48
  304.527
  304.575
  304.624
  304.676
  304.73
  304.787
  304.847
  304.912
  304.987
  305.082
  305.218
  305.218
  305.245
  305.276
  305.308
  303.248
  304.609
  304.676
  304.666
  303.476
)
;
  }
  ceiling
  {
    type wallHeatTransfer;
    Tinf uniform 303.2;
    alphaWall uniform 0.24;
    value nonuniform List<scalar> 43
(
  313.111
  307.787
  304.091
  304.966
  305.634
  305.919
  306.051
  306.123
  306.172
  306.213
  306.249
  306.284
  306.318
  306.352
  306.387
  306.422
  306.454
  306.48
  306.498
  306.507
  306.509
  306.506
  306.499
  306.491
  306.482
  306.472
  306.46
  306.447
  306.432
  306.412
  306.388
  306.356
  306.316
  306.27
  306.22
  306.173
  306.145
  306.165
  306.332
  306.516
  304.301
  304.074
  297.505
)
;
  }
  sWall
  {
    type wallHeatTransfer;
    Tinf uniform 315.2;
    alphaWall uniform 0.36;
    value uniform 314.199;
  }
  nWall
  {
    type wallHeatTransfer;
    Tinf uniform 307.2;
    alphaWall uniform 0.36;
    value nonuniform List<scalar> 6
(
  306.353
  306.137
  306.104
  306.643
  306.604
  306.92
)
;
  }
  sideWalls
  {
    type empty;
  }
  glass1
  {
    type wallHeatTransfer;
    Tinf uniform 315.2;
    alphaWall uniform 4.3;
    value nonuniform List<scalar> 9
(
  310.434
  309.888
  309.529
  309.251
  309.029
  308.856
  308.83
  308.971
  309.263
)
;
  }
  glass2
  {
    type wallHeatTransfer;
    Tinf uniform 307.2;
    alphaWall uniform 4.3;
    value nonuniform List<scalar> 2
(
  306.88
  306.95
)
;
  }
  sun
  {
    type wallHeatTransfer;
    Tinf uniform 305.2;
    alphaWall uniform 0.24;
    value nonuniform List<scalar> 14
(
  303.02
  302.766
  302.739
  302.721
  302.707
  302.709
  302.77
  302.909
  302.999
  303.063
  303.108
  303.142
  303.174
  303.207
)
;
  }
  heatsource1
  {
    type fixedGradient;
    gradient uniform 0;
  }
  heatsource2
  {
    type fixedGradient;
    gradient uniform 0;
  }
  Table_master
  {
    type zeroGradient;
  }
  Table_slave
  {
    type zeroGradient;
  }
  inlet
  {
    type fixedValue;
    value uniform 293.15;
  }
  outlet
  {
    type zeroGradient;
  }
} 	// ************************************************************************* //

