/*--------------------------------*- C++ -*----------------------------------*\
  =========                 |
  \\      /  F ield         | OpenFOAM: The Open Source CFD Toolbox
   \\    /   O peration     | Website:  https://openfoam.org
    \\  /    A nd           | Version:  6
     \\/     M anipulation  |
\*---------------------------------------------------------------------------*/
FoamFile
{
    version     2.0;
    format      ascii;
    class       volScalarField;
    location    "900";
    object      alphat;
}
// * * * * * * * * * * * * * * * * * * * * * * * * * * * * * * * * * * * * * //

dimensions      [1 -1 -1 0 0 0 0];

internalField   nonuniform List<scalar> 
459
(
0.00123651
0.00134909
0.00137463
0.0014402
0.00150097
0.00155829
0.00161525
0.00166958
0.00170767
0.0017222
0.00170617
0.00165465
0.00156528
0.00144071
0.00129478
0.000535304
0.000637434
0.00071974
0.000726852
0.000705456
0.000675023
0.000632825
0.000589881
0.000550886
0.000516419
0.000486034
0.000459162
0.00043531
0.000414036
0.000394563
0.00037593
0.000356869
0.000345974
0.000317757
0.00168283
0.00398842
0.00377138
0.00437299
0.00496309
0.00555505
0.00606982
0.00647171
0.00684582
0.00715757
0.00736422
0.00742181
0.0072777
0.00680684
0.00548137
0.0013178
0.000818619
0.000557822
0.00117186
0.00163885
0.00199121
0.0021989
0.00220719
0.00174207
0.00149372
0.00131746
0.001183
0.00107681
0.000990812
0.000918447
0.00085144
0.00078689
0.000729598
0.000679107
0.000816477
0.000425597
0.0020539
0.00541085
0.00459704
0.00571852
0.00623402
0.00661079
0.00690727
0.00717071
0.00747681
0.00780812
0.00812571
0.00837088
0.00849101
0.00839765
0.0078325
0.00600842
0.00135782
0.00104473
0.00151937
0.00197555
0.00241884
0.00274786
0.00271521
0.000902128
0.0007972
0.000712036
0.000642948
0.000586506
0.000539973
0.000501316
0.000469211
0.00044304
0.000476523
0.000546884
0.000927018
0.000499526
0.00241035
0.00692469
0.00453941
0.00596711
0.0063519
0.00644731
0.00653161
0.00668653
0.00694667
0.00729268
0.00768826
0.00805013
0.0083218
0.00842664
0.00830659
0.00765502
0.00513264
0.00158717
0.00189441
0.00240598
0.00296626
0.00346489
0.00380745
0.00362892
0.00102216
0.000933548
0.000870102
0.000821857
0.000780934
0.000742891
0.000706351
0.000667908
0.000623283
0.000585529
0.000591825
0.00108782
0.000557776
0.00277367
0.00890011
0.00491028
0.00569182
0.00621659
0.00616127
0.00611834
0.00624161
0.0064868
0.00684048
0.00727718
0.00767469
0.00795217
0.00805897
0.00799648
0.00773503
0.0070728
0.00598287
0.00559925
0.0055216
0.00555688
0.00560379
0.00559717
0.00541281
0.00460523
0.00420616
0.00397363
0.00379508
0.00360782
0.00334105
0.00297145
0.00251607
0.00200787
0.00150427
0.00111598
0.00110194
0.000764316
0.000692797
0.000833675
0.000936427
0.00315948
0.0110661
0.00675921
0.00551198
0.00601936
0.00618341
0.00603134
0.00614589
0.00634925
0.00667694
0.0071013
0.00751518
0.00779038
0.00785105
0.00771536
0.00748012
0.00725116
0.00709346
0.00708062
0.00708911
0.00703899
0.0069214
0.00674164
0.00648686
0.00610886
0.00576803
0.00546437
0.00517198
0.00487438
0.00455715
0.0041611
0.00366918
0.00308182
0.00243321
0.00185253
0.00135949
0.00106219
0.000910597
0.00128921
0.000979767
0.00352147
0.0126274
0.00969509
0.00700962
0.0065419
0.00657512
0.00641662
0.00632925
0.00642919
0.00674048
0.00718706
0.00762075
0.00788181
0.00788346
0.00766743
0.007409
0.00733654
0.00751685
0.00774065
0.00780073
0.00766968
0.007405
0.00705569
0.00665094
0.00621721
0.00581073
0.00543801
0.00509139
0.00477108
0.00448417
0.00423325
0.00393127
0.00350166
0.00296325
0.00244015
0.00194447
0.00160012
0.00147432
0.00145935
0.00111069
0.00359751
0.0114456
0.00993467
0.00880526
0.00811538
0.00734948
0.00670898
0.00644326
0.00656916
0.00698726
0.00752483
0.00797939
0.00817475
0.00805423
0.00772904
0.00747359
0.00755306
0.0078621
0.00798026
0.00781252
0.00744235
0.00694943
0.00639816
0.00584937
0.00535557
0.00493977
0.00459218
0.00430335
0.00407421
0.00391062
0.00381832
0.00378123
0.00364843
0.00333111
0.00304758
0.00290497
0.00299453
0.00330977
0.00411507
0.00168808
0.00350732
0.00419208
0.00473876
0.00491342
0.0049309
0.00504901
0.00538572
0.0059711
0.00675153
0.0075724
0.00824017
0.00858838
0.00850608
0.00807312
0.00761158
0.00750684
0.00755373
0.00752882
0.00728694
0.00683667
0.00624647
0.00560301
0.0049888
0.00446531
0.00405247
0.00373438
0.00348494
0.00328527
0.00312277
0.00298653
0.00286613
0.0027537
0.00266722
0.00260446
0.0025798
0.00258766
0.00256954
0.00247298
0.00230821
0.00156782
0.00216895
0.0038389
0.00529656
0.00651354
0.00749948
0.00838183
0.00906464
0.00940249
0.00934941
0.00893037
0.00819722
0.0073697
0.00685685
0.00665225
0.0064405
0.00607521
0.00556058
0.00496506
0.00437002
0.00383833
0.00340924
0.00309162
0.00286469
0.00270318
0.00258831
0.00250854
0.00245693
0.0024295
0.00242617
0.00245127
0.00248898
0.00253604
0.00258746
0.00262404
0.00261367
0.00253838
0.00224448
0.00125214
0.00252107
0.00536916
0.00733705
0.00825146
0.00886194
0.0092815
0.00923234
0.00863838
0.00773921
0.0067803
0.00597278
0.00538652
0.0049929
0.00464478
0.00423582
0.00377941
0.00332762
0.00293188
0.00262264
0.00240271
0.00225585
0.00215855
0.00209649
0.00206528
0.00206094
0.00207927
0.0021166
0.0021684
0.00223956
0.00232705
0.00242804
0.0025363
0.00263657
0.00270514
0.00272534
0.00269393
0.00193814
0.00128053
0.00215325
0.00226801
0.00235264
0.0024201
0.00218886
0.00200795
0.00192118
0.00183313
0.00170605
0.00154994
0.00137271
0.00119748
0.00104273
0.000920053
0.000831231
0.00076843
0.000723036
0.000690029
0.000667367
0.000654178
0.000649482
0.000652044
0.00066075
0.00067486
0.000694166
0.000718021
0.000746274
0.000779251
0.000817579
0.000862411
0.000913258
0.000970134
0.00103353
0.00110383
0.00118044
0.0012625
0.00127874
0.001143
0.00108421
0.00128217
)
;

boundaryField
{
    floor
    {
        type            compressible::alphatWallFunction;
        Prt             0.85;
        value           nonuniform List<scalar> 
29
(
0.000183169
7.4624e-05
8.99589e-05
0.000102097
0.000103138
0.000100003
9.5525e-05
8.9274e-05
8.28598e-05
7.69854e-05
7.17501e-05
6.70986e-05
6.29543e-05
5.92499e-05
5.59241e-05
5.28607e-05
4.9911e-05
4.6874e-05
4.51288e-05
4.05748e-05
4.05742e-05
5.77344e-05
6.91689e-05
7.80277e-05
0.000183167
7.46231e-05
7.80334e-05
0.000148578
0.000222673
)
;
    }
    ceiling
    {
        type            compressible::alphatWallFunction;
        Prt             0.85;
        value           nonuniform List<scalar> 
43
(
0.000296896
0.000311682
0.000322538
0.000331277
0.00030166
0.00027824
0.000266929
0.000255389
0.000238617
0.000217818
0.000193917
0.000169939
0.000148427
0.00013111
0.000118403
0.000109322
0.000102702
9.78576e-05
9.4515e-05
9.25634e-05
9.18675e-05
9.22475e-05
9.3537e-05
9.56224e-05
9.84672e-05
0.000101969
0.000106099
0.000110895
0.000116439
0.000122884
0.000130147
0.000138214
0.000147142
0.000156968
0.000167593
0.000178888
0.000181114
0.000162413
0.000154238
0.000181593
0.000467468
0.000550754
0.000343892
)
;
    }
    sWall
    {
        type            compressible::alphatWallFunction;
        Prt             0.85;
        value           uniform 0.000295676;
    }
    nWall
    {
        type            compressible::alphatWallFunction;
        Prt             0.85;
        value           nonuniform List<scalar> 6(0.000133113 0.000139241 0.000157579 0.000177142 0.000181031 0.000181262);
    }
    sideWalls
    {
        type            empty;
    }
    glass1
    {
        type            compressible::alphatWallFunction;
        Prt             0.85;
        value           nonuniform List<scalar> 9(0.000170876 0.000230291 0.000278486 0.000323988 0.000369698 0.0004176 0.000462039 0.000471445 0.00046067);
    }
    glass2
    {
        type            compressible::alphatWallFunction;
        Prt             0.85;
        value           nonuniform List<scalar> 2(0.000234494 0.000218607);
    }
    sun
    {
        type            compressible::alphatWallFunction;
        Prt             0.85;
        value           nonuniform List<scalar> 
14
(
0.000175203
0.000190581
0.000194053
0.000202933
0.000211122
0.000218813
0.000226424
0.000233657
0.000238711
0.000240635
0.000238511
0.000231668
0.000219746
0.000202997
)
;
    }
    heatsource1
    {
        type            compressible::alphatWallFunction;
        Prt             0.85;
        value           nonuniform List<scalar> 3(9.82581e-05 0.000118749 0.000133432);
    }
    heatsource2
    {
        type            compressible::alphatWallFunction;
        Prt             0.85;
        value           nonuniform List<scalar> 4(0.000186443 0.000116581 0.000116579 0.000191894);
    }
    Table_master
    {
        type            compressible::alphatWallFunction;
        Prt             0.85;
        value           nonuniform List<scalar> 9(0.00012855 0.000113484 0.000101082 9.08885e-05 8.24615e-05 7.54386e-05 6.95468e-05 6.46102e-05 6.05542e-05);
    }
    Table_slave
    {
        type            compressible::alphatWallFunction;
        Prt             0.85;
        value           nonuniform List<scalar> 9(0.000145538 0.000133023 0.000123978 0.000117047 0.000111131 0.000105597 0.00010025 9.4588e-05 8.79654e-05);
    }
    inlet
    {
        type            fixedValue;
        value           uniform 1.94e-05;
    }
    outlet
    {
        type            zeroGradient;
    }
}


// ************************************************************************* //
