/*--------------------------------*- C++ -*----------------------------------*\
  =========                 |
  \\      /  F ield         | OpenFOAM: The Open Source CFD Toolbox
   \\    /   O peration     | Website:  https://openfoam.org
    \\  /    A nd           | Version:  6
     \\/     M anipulation  |
\*---------------------------------------------------------------------------*/
FoamFile
{
    version     2.0;
    format      ascii;
    class       volScalarField;
    location    "1400";
    object      alphat;
}
// * * * * * * * * * * * * * * * * * * * * * * * * * * * * * * * * * * * * * //

dimensions      [1 -1 -1 0 0 0 0];

internalField   nonuniform List<scalar> 
459
(
0.00123776
0.00135088
0.0013768
0.00144265
0.00150372
0.00156139
0.00161879
0.00167338
0.00171163
0.00172618
0.00171004
0.00165832
0.00156857
0.00144315
0.00129581
0.000540563
0.000645288
0.000729756
0.00073776
0.000717203
0.00068714
0.000644914
0.000601772
0.00056252
0.000527777
0.00049711
0.000469948
0.00044582
0.000424256
0.000404469
0.000385476
0.000365926
0.000353615
0.00032357
0.00168386
0.00400124
0.0037903
0.00439757
0.0049931
0.00558973
0.00610667
0.0065106
0.00688526
0.00719615
0.00740093
0.00745657
0.00731118
0.00684195
0.00553308
0.00132
0.000825539
0.000563042
0.00119002
0.00167133
0.00203679
0.00225406
0.00226587
0.00178687
0.00153372
0.0013546
0.00121809
0.00111034
0.00102313
0.000949318
0.000880503
0.000813659
0.000754219
0.000702084
0.000833871
0.000429457
0.00205447
0.00542627
0.00462433
0.00575812
0.00627977
0.00665931
0.00695601
0.0072189
0.00752344
0.0078531
0.008169
0.00841313
0.0085325
0.00843648
0.00786975
0.00603419
0.00136364
0.00105639
0.00154478
0.00202027
0.00248321
0.00282831
0.00279534
0.000916968
0.000810747
0.000724477
0.000654474
0.000597281
0.000550131
0.000510977
0.0004785
0.000452128
0.000488274
0.000563793
0.000943514
0.000501348
0.00241033
0.00693824
0.00456586
0.00601276
0.00640555
0.00650106
0.00658255
0.00673284
0.00698908
0.00733336
0.0077276
0.00808959
0.00836161
0.00846505
0.0083458
0.00769058
0.00513461
0.00159489
0.00191238
0.00244506
0.00303285
0.00355951
0.00392437
0.00373992
0.00103809
0.000949548
0.000886439
0.000838411
0.000797359
0.000758971
0.000721971
0.000682917
0.000637419
0.000597971
0.000604553
0.00109611
0.000558382
0.00277308
0.00891136
0.00493503
0.00573542
0.00627538
0.00622119
0.00617059
0.00628453
0.00652401
0.00687685
0.00731241
0.00771018
0.00798744
0.00809368
0.00803161
0.00777266
0.00711416
0.00603405
0.00566997
0.00561742
0.00568008
0.00575212
0.00576434
0.00558454
0.00474584
0.00433833
0.00410196
0.00391865
0.00372427
0.00344587
0.00306108
0.00258894
0.00206253
0.00153904
0.00113652
0.00112322
0.000760651
0.000689016
0.000830838
0.000933242
0.00315839
0.011076
0.00678521
0.00555029
0.00607282
0.00624597
0.0060801
0.00618408
0.00638231
0.00670923
0.00713498
0.00754998
0.00782499
0.00788436
0.00774822
0.0075177
0.0073036
0.00717269
0.00719375
0.0072351
0.00721176
0.00711197
0.00693916
0.00667985
0.00628812
0.00593628
0.00562542
0.00532875
0.00502875
0.00470781
0.00430117
0.00379016
0.00317407
0.00249084
0.00187828
0.00138509
0.00105878
0.000902311
0.00128221
0.000976214
0.00351964
0.0126345
0.00971814
0.00704855
0.00659485
0.00662534
0.00645385
0.00635894
0.00645743
0.00677115
0.00722152
0.00765778
0.00791919
0.0079197
0.00770387
0.00745428
0.00740719
0.00762863
0.00789427
0.00798426
0.00786731
0.00760031
0.00723457
0.00680713
0.00635628
0.00594502
0.00557754
0.00524158
0.00493388
0.0046597
0.00441834
0.00408964
0.00361752
0.00303381
0.00246432
0.00193925
0.00156598
0.00145649
0.00148946
0.00111969
0.0035954
0.0114421
0.00993935
0.00882123
0.00814056
0.0073629
0.00672147
0.00646018
0.00659317
0.00701929
0.00756374
0.00802175
0.00821733
0.00809592
0.00777328
0.00753598
0.00765456
0.00801019
0.00815944
0.00799922
0.00761562
0.00709551
0.00651592
0.00595093
0.00545876
0.00505799
0.0047308
0.00446157
0.00424838
0.00409755
0.00401738
0.00398201
0.00375617
0.00338804
0.00305871
0.00289376
0.00302263
0.00349324
0.00426406
0.00173544
0.00350518
0.0041889
0.00473444
0.00490664
0.004923
0.00504833
0.00539472
0.00599219
0.00678512
0.00761624
0.00828978
0.00863715
0.00855125
0.00811825
0.00766986
0.00759952
0.00768592
0.00768844
0.00745131
0.00697846
0.00635653
0.00568629
0.00506342
0.00454968
0.00415646
0.0038586
0.00362415
0.00343142
0.00326694
0.00311975
0.00298
0.00284686
0.00274045
0.0026616
0.00263104
0.00263963
0.00261764
0.00250365
0.00233416
0.00162281
0.00216018
0.00382887
0.00530424
0.00653789
0.00753932
0.00843618
0.00912391
0.00945999
0.00940062
0.00896804
0.00822902
0.00742338
0.00694582
0.00677255
0.00657297
0.00620237
0.00567033
0.00505543
0.00444031
0.0038985
0.00347765
0.00317331
0.00295793
0.00280332
0.00269012
0.00260746
0.00254966
0.00251422
0.00250404
0.00252059
0.00254826
0.00258309
0.00261571
0.00261688
0.00254023
0.00237224
0.00212854
0.00133241
0.00251526
0.00537471
0.00736608
0.00828746
0.00890788
0.00933609
0.00926072
0.00865795
0.00776187
0.00681562
0.00602877
0.0054641
0.00508431
0.00473642
0.0043179
0.00384951
0.00338888
0.00299044
0.00268351
0.00246758
0.00231835
0.00221741
0.00215647
0.00212835
0.00212687
0.00214797
0.00218792
0.00224171
0.00231622
0.00240778
0.00251323
0.0026248
0.00272432
0.00279052
0.00276785
0.00278418
0.00275361
0.00135501
0.00214852
0.00226307
0.00234736
0.00241477
0.00218604
0.00200937
0.00192679
0.00183968
0.00171353
0.00155697
0.00138042
0.00120638
0.00105329
0.000932346
0.000844949
0.000783134
0.000738438
0.000706086
0.000684245
0.000672153
0.00066884
0.00067304
0.000683568
0.000699857
0.000720866
0.00074617
0.000775894
0.000810394
0.000850365
0.000897097
0.000949729
0.00100851
0.00107415
0.0011473
0.00122769
0.00132453
0.00135474
0.00131992
0.0012365
0.0011475
)
;

boundaryField
{
    floor
    {
        type            compressible::alphatWallFunction;
        Prt             0.85;
        value           nonuniform List<scalar> 
29
(
0.00018331
7.54233e-05
9.11263e-05
0.000103564
0.000104733
0.000101727
9.73123e-05
9.10711e-05
8.46426e-05
7.87445e-05
7.34813e-05
6.87995e-05
6.46226e-05
6.08865e-05
5.75258e-05
5.44228e-05
5.14258e-05
4.83209e-05
4.63549e-05
4.15185e-05
4.15179e-05
5.83387e-05
6.94491e-05
7.81206e-05
0.000183308
7.54224e-05
7.88228e-05
0.000150211
0.000223705
)
;
    }
    ceiling
    {
        type            compressible::alphatWallFunction;
        Prt             0.85;
        value           nonuniform List<scalar> 
43
(
0.000296285
0.000311048
0.000321862
0.000330597
0.000301297
0.000278426
0.000267664
0.000256252
0.00023961
0.000218762
0.000194965
0.000171167
0.000149907
0.000132858
0.000120377
0.000111457
0.000104955
0.000100219
9.70067e-05
9.52232e-05
9.47339e-05
9.53544e-05
9.69075e-05
9.93047e-05
0.000102387
0.000106084
0.000110408
0.000115403
0.000121157
0.000127845
0.000135327
0.000143627
0.000152829
0.000163007
0.000174108
0.000187372
0.000191487
0.000186744
0.000175322
0.000163039
0.000467206
0.000550371
0.000343152
)
;
    }
    sWall
    {
        type            compressible::alphatWallFunction;
        Prt             0.85;
        value           uniform 0.000295066;
    }
    nWall
    {
        type            compressible::alphatWallFunction;
        Prt             0.85;
        value           nonuniform List<scalar> 6(0.000132663 0.000138742 0.000158832 0.000188116 0.000191192 0.000162713);
    }
    sideWalls
    {
        type            empty;
    }
    glass1
    {
        type            compressible::alphatWallFunction;
        Prt             0.85;
        value           nonuniform List<scalar> 9(0.000171052 0.000230434 0.000278568 0.000323994 0.000369634 0.000417476 0.000461827 0.000471199 0.000460419);
    }
    glass2
    {
        type            compressible::alphatWallFunction;
        Prt             0.85;
        value           nonuniform List<scalar> 2(0.000240751 0.000225924);
    }
    sun
    {
        type            compressible::alphatWallFunction;
        Prt             0.85;
        value           nonuniform List<scalar> 
14
(
0.000175376
0.000190826
0.000194348
0.000203264
0.000211493
0.000219229
0.000226897
0.000234163
0.000239237
0.000241163
0.000239025
0.000232158
0.000220186
0.000203328
)
;
    }
    heatsource1
    {
        type            compressible::alphatWallFunction;
        Prt             0.85;
        value           nonuniform List<scalar> 3(9.77016e-05 0.000118341 0.00013298);
    }
    heatsource2
    {
        type            compressible::alphatWallFunction;
        Prt             0.85;
        value           nonuniform List<scalar> 4(0.000186744 0.000117578 0.000117577 0.000192685);
    }
    Table_master
    {
        type            compressible::alphatWallFunction;
        Prt             0.85;
        value           nonuniform List<scalar> 9(0.000130664 0.000115442 0.000102904 9.2598e-05 8.40777e-05 7.69779e-05 7.10245e-05 6.60428e-05 6.1966e-05);
    }
    Table_slave
    {
        type            compressible::alphatWallFunction;
        Prt             0.85;
        value           nonuniform List<scalar> 9(0.000147773 0.000135293 0.000126314 0.000119431 0.00011351 0.00010794 0.00010254 9.68032e-05 9.00693e-05);
    }
    inlet
    {
        type            fixedValue;
        value           uniform 1.94e-05;
    }
    outlet
    {
        type            zeroGradient;
    }
}


// ************************************************************************* //
