// -*- C++ -*-
// File generated by PyFoam - sorry for the ugliness

FoamFile
{
 version 2.0;
 format ascii;
 class volScalarField;
 location "500";
 object T;
}

dimensions [ 0 0 0 1 0 0 0 ];

internalField nonuniform List<scalar> 459
(
  302.86
  302.553
  302.544
  302.543
  302.541
  302.54
  302.539
  302.537
  302.535
  302.533
  302.53
  302.524
  302.517
  302.508
  302.5
  302.538
  302.533
  302.531
  302.529
  302.528
  302.526
  302.525
  302.524
  302.523
  302.521
  302.52
  302.518
  302.516
  302.514
  302.512
  302.51
  302.507
  302.504
  302.514
  303.086
  302.581
  302.561
  302.566
  302.57
  302.574
  302.577
  302.579
  302.579
  302.578
  302.572
  302.559
  302.541
  302.517
  302.491
  302.475
  302.466
  302.525
  302.522
  302.519
  302.516
  302.513
  302.509
  302.504
  302.499
  302.494
  302.49
  302.485
  302.48
  302.476
  302.472
  302.469
  302.467
  302.468
  302.47
  302.496
  303.314
  302.624
  302.587
  302.6
  302.615
  302.629
  302.641
  302.651
  302.657
  302.657
  302.649
  302.628
  302.595
  302.554
  302.512
  302.482
  302.469
  302.52
  302.527
  302.527
  302.525
  302.521
  302.517
  302.508
  302.499
  302.491
  302.483
  302.475
  302.468
  302.46
  302.454
  302.449
  302.448
  302.449
  302.453
  302.486
  303.533
  302.681
  302.614
  302.634
  302.66
  302.686
  302.71
  302.731
  302.745
  302.75
  302.74
  302.71
  302.662
  302.601
  302.538
  302.488
  302.47
  302.487
  302.515
  302.535
  302.539
  302.538
  302.535
  302.531
  302.528
  302.525
  302.522
  302.518
  302.515
  302.51
  302.505
  302.5
  302.493
  302.471
  302.454
  302.448
  302.483
  303.739
  302.755
  302.64
  302.658
  302.693
  302.73
  302.766
  302.8
  302.825
  302.837
  302.829
  302.794
  302.734
  302.654
  302.567
  302.493
  302.46
  302.483
  302.523
  302.545
  302.552
  302.552
  302.549
  302.546
  302.544
  302.541
  302.538
  302.534
  302.53
  302.524
  302.516
  302.508
  302.498
  302.481
  302.461
  302.448
  302.472
  302.532
  302.561
  302.571
  303.917
  302.85
  302.683
  302.676
  302.71
  302.751
  302.794
  302.836
  302.874
  302.898
  302.898
  302.862
  302.792
  302.699
  302.596
  302.5
  302.451
  302.482
  302.53
  302.556
  302.564
  302.565
  302.563
  302.561
  302.559
  302.556
  302.553
  302.548
  302.542
  302.534
  302.524
  302.513
  302.501
  302.486
  302.467
  302.452
  302.462
  302.489
  302.498
  302.535
  304.048
  303.01
  302.816
  302.735
  302.733
  302.762
  302.8
  302.84
  302.883
  302.93
  302.936
  302.897
  302.822
  302.723
  302.612
  302.503
  302.442
  302.48
  302.536
  302.565
  302.575
  302.577
  302.576
  302.575
  302.573
  302.571
  302.567
  302.562
  302.554
  302.544
  302.53
  302.516
  302.503
  302.489
  302.473
  302.458
  302.458
  302.467
  302.475
  302.506
  304.276
  303.499
  303.266
  303.057
  302.931
  302.878
  302.87
  302.886
  302.928
  302.961
  302.952
  302.899
  302.814
  302.711
  302.6
  302.491
  302.433
  302.48
  302.542
  302.575
  302.586
  302.588
  302.589
  302.589
  302.588
  302.586
  302.582
  302.577
  302.57
  302.56
  302.547
  302.529
  302.516
  302.504
  302.493
  302.482
  302.485
  302.504
  302.533
  302.701
  304.59
  304.261
  303.981
  303.701
  303.468
  303.301
  303.195
  303.136
  303.101
  303.037
  302.951
  302.854
  302.752
  302.649
  302.547
  302.451
  302.415
  302.486
  302.554
  302.587
  302.597
  302.601
  302.602
  302.604
  302.604
  302.604
  302.602
  302.6
  302.596
  302.593
  302.592
  302.595
  302.602
  302.617
  302.643
  302.68
  302.726
  302.771
  302.798
  302.862
  298.181
  300.804
  302.04
  302.485
  302.655
  302.716
  302.721
  302.708
  302.674
  302.628
  302.572
  302.512
  302.448
  302.384
  302.395
  302.508
  302.575
  302.601
  302.61
  302.614
  302.617
  302.62
  302.623
  302.625
  302.628
  302.63
  302.633
  302.637
  302.642
  302.647
  302.656
  302.671
  302.692
  302.72
  302.752
  302.778
  302.791
  302.803
  298.521
  300.747
  301.589
  302.021
  302.236
  302.334
  302.37
  302.382
  302.384
  302.378
  302.367
  302.351
  302.33
  302.31
  302.394
  302.567
  302.602
  302.618
  302.626
  302.63
  302.633
  302.636
  302.64
  302.644
  302.647
  302.651
  302.655
  302.66
  302.665
  302.67
  302.678
  302.689
  302.704
  302.724
  302.745
  302.765
  302.756
  302.784
  299.712
  299.66
  299.657
  301.035
  301.573
  301.965
  302.08
  302.139
  302.169
  302.183
  302.196
  302.208
  302.218
  302.228
  302.238
  302.255
  302.446
  302.631
  302.646
  302.652
  302.656
  302.659
  302.662
  302.665
  302.667
  302.669
  302.672
  302.674
  302.676
  302.678
  302.681
  302.684
  302.688
  302.694
  302.702
  302.718
  302.73
  302.736
  302.736
  302.773
)
;

boundaryField
{
  floor
  {
    type wallHeatTransfer;
    Tinf uniform 305.2;
    alphaWall uniform 0.24;
    value nonuniform List<scalar> 29
(
  302.837
  302.947
  302.963
  302.978
  302.99
  303
  303.01
  303.02
  303.03
  303.04
  303.05
  303.059
  303.068
  303.078
  303.087
  303.097
  303.108
  303.122
  303.133
  303.173
  303.173
  303.078
  303.02
  302.983
  302.837
  302.947
  302.896
  302.865
  302.805
)
;
  }
  ceiling
  {
    type wallHeatTransfer;
    Tinf uniform 303.2;
    alphaWall uniform 0.24;
    value nonuniform List<scalar> 43
(
  299.933
  299.876
  299.866
  301.157
  301.67
  302.045
  302.157
  302.216
  302.249
  302.266
  302.283
  302.298
  302.312
  302.327
  302.342
  302.365
  302.548
  302.716
  302.727
  302.732
  302.736
  302.739
  302.74
  302.742
  302.742
  302.743
  302.743
  302.743
  302.744
  302.743
  302.743
  302.744
  302.745
  302.748
  302.753
  302.764
  302.774
  302.78
  302.783
  302.818
  304.524
  304.219
  298.788
)
;
  }
  sWall
  {
    type wallHeatTransfer;
    Tinf uniform 315.2;
    alphaWall uniform 0.36;
    value uniform 301.144;
  }
  nWall
  {
    type wallHeatTransfer;
    Tinf uniform 307.2;
    alphaWall uniform 0.36;
    value nonuniform List<scalar> 6
(
  303.396
  303.343
  303.273
  303.426
  303.404
  303.443
)
;
  }
  sideWalls
  {
    type empty;
  }
  glass1
  {
    type wallHeatTransfer;
    Tinf uniform 315.2;
    alphaWall uniform 4.3;
    value nonuniform List<scalar> 9
(
  312.114
  311.353
  310.827
  310.389
  310.022
  309.706
  309.413
  309.438
  309.636
)
;
  }
  glass2
  {
    type wallHeatTransfer;
    Tinf uniform 307.2;
    alphaWall uniform 4.3;
    value nonuniform List<scalar> 2
(
  305.439
  305.571
)
;
  }
  sun
  {
    type wallHeatTransfer;
    Tinf uniform 305.2;
    alphaWall uniform 0.24;
    value nonuniform List<scalar> 14
(
  303.188
  302.913
  302.907
  302.898
  302.89
  302.885
  302.879
  302.875
  302.871
  302.866
  302.861
  302.856
  302.85
  302.843
)
;
  }
  heatsource1
  {
    type fixedGradient;
    gradient uniform 0;
  }
  heatsource2
  {
    type fixedGradient;
    gradient uniform 0;
  }
  Table_master
  {
    type zeroGradient;
  }
  Table_slave
  {
    type zeroGradient;
  }
  inlet
  {
    type fixedValue;
    value uniform 293.15;
  }
  outlet
  {
    type zeroGradient;
  }
} 	// ************************************************************************* //

