/*--------------------------------*- C++ -*----------------------------------*\
  =========                 |
  \\      /  F ield         | OpenFOAM: The Open Source CFD Toolbox
   \\    /   O peration     | Website:  https://openfoam.org
    \\  /    A nd           | Version:  6
     \\/     M anipulation  |
\*---------------------------------------------------------------------------*/
FoamFile
{
    version     2.0;
    format      ascii;
    class       surfaceScalarField;
    location    "900";
    object      phi;
}
// * * * * * * * * * * * * * * * * * * * * * * * * * * * * * * * * * * * * * //

dimensions      [1 0 -1 0 0 0 0];

internalField   nonuniform List<scalar> 
852
(
-0.00295886
0.00301624
-0.00399821
0.00103935
-0.00479801
0.000799795
-0.0054209
0.000622896
-0.00583334
0.000412441
-0.00600711
0.000173775
-0.00591395
-9.31592e-05
-0.00553195
-0.000382001
-0.0048773
-0.000654649
-0.00401546
-0.000861834
-0.00304671
-0.000968751
-0.0020829
-0.000963812
-0.00122614
-0.000856751
-0.000538061
-0.000688081
-0.000536385
-0.000784311
0.000787321
-0.000542783
-0.000241526
4.02858e-05
-0.000583067
0.000534925
-0.000494637
0.000878497
-0.000343571
0.00110291
-0.000224416
0.00122872
-0.000125805
0.00129001
-6.12904e-05
0.00132419
-3.41773e-05
0.00134544
-2.12433e-05
0.00135776
-1.23188e-05
0.00136276
-4.99892e-06
0.0013593
3.46148e-06
0.00134038
1.89199e-05
0.00128596
5.44158e-05
0.00116233
0.000123634
0.00095843
0.000203903
0.000709753
0.000248679
0.000713795
-0.00212009
0.00529096
-0.00314043
0.00205969
-0.00396943
0.0016288
-0.00458886
0.00124232
-0.00499985
0.000823441
-0.00518318
0.0003571
-0.0051073
-0.000169031
-0.00475462
-0.00073468
-0.00415394
-0.00125533
-0.00338135
-0.00163442
-0.00253525
-0.00181485
-0.00171036
-0.0017887
-0.000987114
-0.00157999
-0.000439245
-0.00123595
-0.000172466
-0.000803163
0.000115981
-0.000288496
0.000115932
0.000238424
0.00055767
0.000631707
-0.000634808
0.000893833
-0.000845191
0.0011128
-0.000713604
0.00128733
-0.000518102
0.00140027
-0.000337356
0.00142065
-0.00014618
0.00142574
-6.63801e-05
0.00143189
-4.03257e-05
0.00143705
-2.64044e-05
0.00144049
-1.57522e-05
0.0014424
-6.90356e-06
0.00144222
3.63644e-06
0.00143699
2.41524e-05
0.00140015
9.12576e-05
0.00124098
0.000282803
0.000962887
0.000482002
0.000614945
0.000596622
0.001339
-0.00149029
0.00701782
-0.00237338
0.00294279
-0.0031144
0.00236982
-0.00365053
0.00177845
-0.00401581
0.00118873
-0.00418586
0.00052715
-0.00410631
-0.000248583
-0.00375164
-0.00108934
-0.00317653
-0.00183044
-0.00247482
-0.00233613
-0.00174163
-0.00254804
-0.00104951
-0.00248082
-0.000450362
-0.00217914
2.14268e-05
-0.00170774
0.000331718
-0.00111345
0.000471458
-0.000428234
0.000587391
0.00148291
-0.00091561
0.00169957
-0.00085147
0.00165066
-0.000796279
0.00163331
-0.000696257
0.0016533
-0.000538082
0.0016917
-0.000375763
0.00154568
0.00147945
0.00143928
0.00141303
0.00139744
0.00139069
0.00139448
0.00141879
0.0015102
0.00124887
0.000544128
0.000927311
0.000803566
0.000523977
0.000999958
0.00187848
-0.00104366
0.00836781
-0.00174618
0.00364531
-0.0022446
0.00286824
-0.00260413
0.00213798
-0.00285611
0.0014407
-0.00296361
0.000634651
-0.00282956
-0.000382628
-0.0024379
-0.001481
-0.0018905
-0.00237784
-0.00128996
-0.00293668
-0.000711807
-0.00312619
-0.00019564
-0.00299699
0.000242749
-0.00261752
0.000603923
-0.00206891
0.0009248
-0.00143433
0.00128588
-0.000789314
0.00212535
-0.000252074
0.00247058
-0.000336797
0.00212663
-0.000571658
0.00199334
-0.000718174
0.00186421
-0.000667154
0.00174588
-0.000577926
0.00166829
-0.000460485
0.00160437
-0.000311849
0.00173467
-0.00013045
0.00181192
-7.73971e-05
0.00187353
-6.17698e-05
0.00192229
-4.89042e-05
0.00194516
-2.30294e-05
0.00192119
2.38255e-05
0.00182487
9.61669e-05
0.0016225
0.000202213
0.00125991
0.000362437
0.00110371
0.000700333
0.000798331
0.00110895
0.000334604
0.00146369
0.00223327
-0.000729267
0.00946265
-0.00126335
0.00417939
-0.00138614
0.00299103
-0.0014802
0.00223205
-0.00154284
0.00150334
-0.0015044
0.000596215
-0.00122983
-0.000657204
-0.000788746
-0.00192208
-0.000312935
-0.00285364
0.000118849
-0.00336846
0.000472268
-0.0034796
0.00074258
-0.0032673
0.000951512
-0.00282645
0.00112854
-0.00224593
0.00130741
-0.0016132
0.00153547
-0.00101737
0.00185599
-0.000572594
0.0019588
-0.000439605
0.00187891
-0.000491766
0.00170413
-0.000543388
0.00154516
-0.000508187
0.00140673
-0.000439495
0.00130244
-0.000356196
0.00124836
-0.000257766
0.00128151
-0.000163596
0.00132593
-0.000121816
0.00137588
-0.000111718
0.00142922
-0.00010225
0.00147688
-7.06816e-05
0.00149943
1.27704e-06
0.00147487
0.00012072
0.00138968
0.000287407
0.0012439
0.000508221
0.00110673
0.000837503
0.000950293
0.00126538
0.000596553
0.00181743
0.000492852
0.00233697
-0.000987435
0.00148008
-0.00145058
0.000462938
-0.00140207
-0.000631402
0.0105095
-0.000998341
0.00454634
-0.000604728
0.00259742
-0.000312275
0.0019396
-9.85215e-05
0.00128959
0.000225504
0.000272192
0.000706484
-0.00113818
0.00114418
-0.00235978
0.00145676
-0.00316622
0.00163037
-0.00354208
0.00169068
-0.00353991
0.00166992
-0.00324654
0.00160069
-0.00275722
0.00152044
-0.00216568
0.00146227
-0.00155503
0.00145093
-0.00100603
0.00147975
-0.000601421
0.001447
-0.000406853
0.00132285
-0.000367611
0.00114448
-0.000365021
0.000978943
-0.000342645
0.000844644
-0.000305195
0.000749852
-0.000261404
0.000705626
-0.000213539
0.000716184
-0.000174154
0.000757625
-0.000163256
0.000816724
-0.000170816
0.000888509
-0.000174034
0.000968299
-0.000150471
0.00104697
-7.7388e-05
0.00110613
6.15508e-05
0.00113602
0.00025752
0.00114561
0.000498634
0.0011785
0.000804616
0.00128102
0.00116287
0.00146731
0.00163114
0.00191107
0.00189321
0.00216603
0.00122512
0.00177903
0.000849939
0.000435237
-0.000717719
0.0116874
-0.000604022
0.00443264
0.000471865
0.00152154
0.00114899
0.00126248
0.00172302
0.000715557
0.00236882
-0.000373606
0.00292239
-0.00169175
0.0032277
-0.00266508
0.003279
-0.00321751
0.00312219
-0.00338527
0.00282146
-0.00323917
0.00244088
-0.00286595
0.00203541
-0.00235174
0.00165336
-0.00178364
0.00132746
-0.00122912
0.00107757
-0.000756146
0.000900604
-0.000424452
0.000749945
-0.000256193
0.000590086
-0.000207751
0.000428236
-0.00020317
0.000287066
-0.000201474
0.000177928
-0.000196056
0.000105626
-0.000189101
7.49491e-05
-0.000182861
8.48462e-05
-0.00018405
0.000122161
-0.00020057
0.000176594
-0.000225249
0.000246351
-0.00024379
0.000335735
-0.000239854
0.000451301
-0.000192953
0.00058765
-7.47977e-05
0.000729366
0.000115805
0.000881809
0.000346192
0.00108463
0.000601794
0.00138574
0.000861761
0.00185042
0.00116646
0.00252432
0.0012193
0.00304585
0.000703594
0.00306479
0.000831006
0.00356322
0.0026039
0.00959755
0.00328134
0.0037552
0.00344482
0.00135805
0.0038967
0.000810603
0.00458764
2.4624e-05
0.00527996
-0.00106593
0.00556175
-0.00197354
0.00543657
-0.0025399
0.00499239
-0.00277332
0.00433407
-0.00272696
0.00356409
-0.00246919
0.00276885
-0.00207071
0.0020089
-0.0015918
0.00133919
-0.00111392
0.000786631
-0.000676562
0.000372979
-0.000342493
9.69941e-05
-0.000148466
-8.70145e-05
-7.21834e-05
-0.000228379
-6.63861e-05
-0.000347922
-8.36252e-05
-0.000447081
-0.000102314
-0.000523568
-0.000119568
-0.000576021
-0.000136648
-0.000603837
-0.000155044
-0.00061002
-0.000177866
-0.000603359
-0.00020723
-0.000590021
-0.000238586
-0.000569844
-0.000263966
-0.000535605
-0.000274092
-0.00047022
-0.000258338
-0.000342171
-0.000202846
-0.000146545
-7.98207e-05
9.42681e-05
0.000105379
0.000387274
0.000308789
0.000750244
0.000498792
0.00122815
0.000688554
0.00173168
0.000715772
0.00187056
0.000564721
0.00092816
0.00177341
0.00475276
0.0101619
0.0139099
0.0122336
0.00303433
0.0113319
0.00171232
0.0105967
0.000759849
0.0097044
-0.00017363
0.00855527
-0.000824416
0.00725666
-0.00124128
0.00590293
-0.00141958
0.00456321
-0.00138724
0.00330067
-0.00120664
0.00216534
-0.000935378
0.00116865
-0.00059511
0.000351875
-0.00029714
-0.000251118
-7.35685e-05
-0.000627255
3.3644e-05
-0.000831189
5.54695e-05
-0.000946522
4.31503e-05
-0.00103006
1.71569e-05
-0.00110378
-9.9122e-06
-0.00117142
-3.46734e-05
-0.00123239
-5.85959e-05
-0.00128642
-8.26194e-05
-0.00133493
-0.000106529
-0.00138223
-0.000130564
-0.00143565
-0.000153811
-0.00150249
-0.000171747
-0.00158969
-0.000176767
-0.00170534
-0.00015844
-0.00185991
-0.000103769
-0.00206279
3.37741e-08
-0.00230483
0.000162222
-0.00259522
0.000395776
-0.00300444
0.00071801
-0.0036364
0.00113075
-0.00456388
0.00161604
-0.00591358
0.00206548
-0.00762394
0.00227508
-0.00744566
0.00159512
-0.00240357
0.00510376
0.00455908
0.00409753
0.00271855
0.00449629
0.000361093
0.00453516
-0.000212488
0.0041261
-0.000415358
0.00344052
-0.000555703
0.00259189
-0.000570956
0.00167271
-0.000468051
0.000756726
-0.000290663
-0.000101571
-7.70809e-05
-0.000797817
0.000101136
-0.00125338
0.000158422
-0.00149884
0.000171889
-0.00161831
0.000153118
-0.00168416
0.000121319
-0.00173026
8.92542e-05
-0.00177282
5.9716e-05
-0.00181724
3.4506e-05
-0.00186559
1.36803e-05
-0.00191983
-4.35198e-06
-0.00198041
-2.2044e-05
-0.00204772
-3.9214e-05
-0.00212392
-5.43612e-05
-0.00221128
-6.64547e-05
-0.002311
-7.20294e-05
-0.00242242
-6.53444e-05
-0.00254193
-3.89273e-05
-0.00266213
1.64347e-05
-0.00277119
0.000109094
-0.00286386
0.000254891
-0.00294536
0.00047728
-0.00301742
0.000790064
-0.0030757
0.00118903
-0.00308061
0.00162095
-0.00296211
0.00194698
-0.002268
0.00158097
-0.000577162
-9.57119e-05
-0.00290241
-0.000441899
0.00505752
0.000853962
0.00142269
0.000819219
0.000395838
0.000546086
6.0646e-05
0.000167098
-3.63699e-05
-0.000356102
-3.25052e-05
-0.000944711
1.76529e-05
-0.00149358
8.08206e-05
-0.00192264
0.000138395
-0.00218208
0.000182361
-0.00228364
0.000202696
-0.00231568
0.000190461
-0.00230969
0.0001659
-0.00229469
0.000138123
-0.0022865
0.000113124
-0.00228934
9.20985e-05
-0.00230323
7.3606e-05
-0.00232567
5.69445e-05
-0.00235376
4.17733e-05
-0.00238601
2.78989e-05
-0.0024235
1.54401e-05
-0.0024663
3.59371e-06
-0.002514
-6.66444e-06
-0.00256592
-1.45368e-05
-0.00261948
-1.84599e-05
-0.00266922
-1.56107e-05
-0.00270596
-2.18698e-06
-0.00271868
2.91562e-05
-0.0026964
8.68184e-05
-0.00261908
0.000177568
-0.00245628
0.000314479
-0.00217967
0.000513459
-0.0017688
0.000778162
-0.00118046
0.00103261
-0.00011456
0.000881074
0.00176933
-0.000302926
0.00337791
-0.00170429
0.000561113
-0.00794387
-0.010798
-0.00569638
-0.00425076
-0.00384076
-0.00377082
-0.00380099
-0.00382957
-0.00380971
-0.00372796
-0.00358972
-0.00340844
-0.00320762
-0.00301972
-0.00285695
-0.00272241
-0.00261322
-0.00252536
-0.00245621
-0.00240387
-0.00236681
-0.00234367
-0.002333
-0.00233416
-0.00234552
-0.00236467
-0.00238766
-0.00240768
-0.00241416
-0.00238915
-0.00230633
-0.0021326
-0.00182181
-0.00131192
-0.000537202
0.000492021
0.00136958
0.00106267
-0.000646954
)
;

boundaryField
{
    floor
    {
        type            calculated;
        value           nonuniform List<scalar> 
29
(
0
0
0
0
0
0
0
0
0
0
0
0
0
0
0
0
0
0
0
0
-4.04048e-06
-1.02617e-05
-1.54993e-05
-2.01805e-05
-1.67456e-06
-3.00829e-06
-8.77149e-06
-9.62582e-06
-8.43594e-06
)
;
    }
    ceiling
    {
        type            calculated;
        value           nonuniform List<scalar> 
43
(
-4.66724e-05
-4.53961e-05
-4.41252e-05
-2.2937e-05
-1.41595e-05
-9.29603e-06
-6.20189e-06
-3.92057e-06
-2.21441e-06
-9.21759e-07
1.52178e-07
1.07567e-06
1.87888e-06
2.56528e-06
3.12803e-06
3.57973e-06
3.94288e-06
4.23295e-06
4.45557e-06
4.61326e-06
4.71202e-06
4.76127e-06
4.77051e-06
4.74702e-06
4.6946e-06
4.6199e-06
4.52673e-06
4.41658e-06
4.29017e-06
4.14668e-06
3.99508e-06
3.84256e-06
3.69495e-06
3.55987e-06
3.44993e-06
3.39016e-06
3.51288e-06
3.98636e-06
5.34099e-06
6.30791e-06
1.01959e-05
7.15963e-06
-5.654e-05
)
;
    }
    sWall
    {
        type            calculated;
        value           uniform -0.000271622;
    }
    nWall
    {
        type            calculated;
        value           nonuniform List<scalar> 6(-4.8713e-05 -5.82673e-05 -6.31935e-05 -7.83131e-05 -8.56174e-05 -9.21482e-05);
    }
    sideWalls
    {
        type            empty;
        value           nonuniform 0();
    }
    glass1
    {
        type            calculated;
        value           nonuniform List<scalar> 9(-5.73797e-05 -0.000154623 -0.000236569 -0.000306334 -0.000365563 -0.000415481 -0.0004601 -0.000514092 -0.00057452);
    }
    glass2
    {
        type            calculated;
        value           nonuniform List<scalar> 2(-0.000261381 -0.00028933);
    }
    sun
    {
        type            calculated;
        value           uniform 0;
    }
    heatsource1
    {
        type            calculated;
        value           nonuniform List<scalar> 3(2.04221e-07 2.04153e-07 2.0417e-07);
    }
    heatsource2
    {
        type            calculated;
        value           nonuniform List<scalar> 4(5.11973e-08 5.12823e-08 0 0);
    }
    Table_master
    {
        type            calculated;
        value           nonuniform List<scalar> 9(-1.5317e-07 -1.5326e-07 -1.53292e-07 -1.53314e-07 -1.5333e-07 -1.53341e-07 -1.53346e-07 -1.53342e-07 -1.53314e-07);
    }
    Table_slave
    {
        type            calculated;
        value           nonuniform List<scalar> 9(1.53052e-07 1.53073e-07 1.53054e-07 1.53038e-07 1.53031e-07 1.53034e-07 1.53048e-07 1.53088e-07 1.53165e-07);
    }
    inlet
    {
        type            calculated;
        value           uniform -0.0066285;
    }
    outlet
    {
        type            calculated;
        value           nonuniform List<scalar> 2(0.00826217 0.00289956);
    }
}


// ************************************************************************* //
