// -*- C++ -*-
// File generated by PyFoam - sorry for the ugliness

FoamFile
{
 version 2.0;
 format ascii;
 class volScalarField;
 location "300";
 object T;
}

dimensions [ 0 0 0 1 0 0 0 ];

internalField nonuniform List<scalar> 459
(
  307.828
  307.716
  307.74
  307.763
  307.784
  307.795
  307.794
  307.783
  307.771
  307.763
  307.761
  307.765
  307.774
  307.784
  307.79
  305.149
  305.02
  304.944
  304.911
  304.931
  305.004
  305.161
  305.203
  305.182
  305.145
  305.107
  305.079
  305.068
  305.053
  305.02
  305.013
  305.008
  305.03
  305.096
  307.997
  307.908
  307.973
  308.025
  308.061
  308.082
  308.081
  308.069
  308.051
  308.035
  308.023
  308.017
  308.012
  308.003
  307.98
  307.934
  307.469
  305.731
  305.621
  305.559
  305.528
  305.483
  305.5
  305.589
  305.606
  305.584
  305.555
  305.527
  305.502
  305.491
  305.532
  305.618
  305.71
  305.678
  305.681
  305.964
  308.186
  308.09
  308.175
  308.243
  308.283
  308.309
  308.304
  308.294
  308.281
  308.266
  308.253
  308.244
  308.234
  308.212
  308.167
  308.098
  308.017
  306.576
  306.552
  306.527
  306.508
  306.488
  306.411
  305.824
  305.976
  306.132
  306.256
  306.362
  306.462
  306.569
  306.697
  306.89
  307.18
  307.095
  306.952
  307.024
  308.984
  308.785
  308.715
  308.657
  308.619
  308.537
  308.499
  308.497
  308.496
  308.49
  308.486
  308.484
  308.48
  308.459
  308.404
  308.294
  308.112
  307.893
  307.744
  307.934
  308.099
  308.252
  308.388
  308.508
  308.612
  308.642
  308.666
  308.685
  308.701
  308.712
  308.717
  308.712
  308.686
  308.615
  308.643
  308.656
  308.619
  313.392
  311.401
  310.366
  309.692
  309.241
  308.964
  308.753
  308.689
  308.702
  308.715
  308.727
  308.746
  308.769
  308.788
  308.79
  308.766
  308.716
  308.659
  308.628
  308.66
  308.716
  308.781
  308.842
  308.893
  308.934
  308.965
  308.995
  309.024
  309.053
  309.084
  309.117
  309.152
  309.189
  309.228
  309.293
  309.366
  309.453
  309.545
  309.603
  309.671
  313.823
  313.068
  311.766
  310.663
  309.84
  309.317
  309.017
  308.885
  308.918
  308.959
  308.993
  309.032
  309.078
  309.122
  309.154
  309.164
  309.151
  309.127
  309.112
  309.116
  309.132
  309.154
  309.181
  309.208
  309.233
  309.256
  309.279
  309.304
  309.33
  309.359
  309.392
  309.429
  309.469
  309.512
  309.558
  309.604
  309.649
  309.696
  309.737
  309.801
  313.905
  313.684
  312.622
  311.361
  310.245
  309.534
  309.189
  309.117
  309.183
  309.273
  309.344
  309.412
  309.476
  309.531
  309.573
  309.602
  309.608
  309.598
  309.584
  309.574
  309.569
  309.569
  309.573
  309.579
  309.586
  309.594
  309.603
  309.614
  309.627
  309.643
  309.662
  309.686
  309.713
  309.743
  309.773
  309.801
  309.829
  309.854
  309.872
  309.902
  313.935
  313.852
  313.035
  311.699
  310.271
  309.583
  309.346
  309.435
  309.633
  309.806
  309.918
  309.988
  310.047
  310.1
  310.145
  310.165
  310.168
  310.158
  310.139
  310.116
  310.094
  310.073
  310.055
  310.039
  310.025
  310.011
  309.998
  309.988
  309.979
  309.974
  309.973
  309.976
  309.984
  309.995
  310.009
  310.024
  310.036
  310.035
  310.012
  309.998
  313.967
  313.99
  314.021
  311.479
  310.217
  309.755
  309.798
  310.181
  310.56
  310.779
  310.877
  310.918
  310.938
  310.944
  310.943
  310.932
  310.909
  310.871
  310.826
  310.78
  310.732
  310.685
  310.64
  310.597
  310.555
  310.513
  310.473
  310.435
  310.399
  310.367
  310.339
  310.315
  310.296
  310.281
  310.269
  310.258
  310.24
  310.203
  310.128
  310.065
  318.129
  312.051
  310.711
  310.571
  311.216
  311.73
  312.017
  312.155
  312.201
  312.19
  312.139
  312.062
  311.979
  311.898
  311.815
  311.731
  311.645
  311.557
  311.469
  311.385
  311.305
  311.226
  311.15
  311.076
  311.004
  310.934
  310.867
  310.803
  310.743
  310.687
  310.635
  310.586
  310.54
  310.492
  310.434
  310.349
  310.199
  309.989
  317.229
  314.109
  313.347
  313.292
  313.43
  313.545
  313.591
  313.577
  313.513
  313.414
  313.292
  313.161
  313.021
  312.879
  312.738
  312.601
  312.467
  312.338
  312.212
  312.089
  311.969
  311.852
  311.74
  311.631
  311.526
  311.424
  311.325
  311.23
  311.137
  311.049
  310.963
  310.879
  310.797
  310.711
  310.614
  310.493
  310.324
  310.085
  316.729
  316.674
  316.829
  316.559
  316.247
  316.019
  315.824
  315.645
  315.47
  315.294
  315.11
  314.919
  314.718
  314.507
  314.291
  314.078
  313.872
  313.673
  313.483
  313.3
  313.124
  312.954
  312.79
  312.631
  312.477
  312.326
  312.179
  312.036
  311.896
  311.759
  311.625
  311.493
  311.362
  311.233
  311.103
  310.969
  310.826
  310.658
  310.43
  310.113
)
;

boundaryField
{
  floor
  {
    type wallHeatTransfer;
    Tinf uniform 305.2;
    alphaWall uniform 0.24;
    value nonuniform List<scalar> 29
(
  307.388
  305.163
  305.071
  305.021
  305.004
  305.022
  305.072
  305.174
  305.202
  305.188
  305.162
  305.135
  305.113
  305.103
  305.092
  305.068
  305.062
  305.057
  305.071
  305.124
  305.124
  305.82
  306.777
  308.239
  307.388
  305.163
  305.62
  306.372
  307.562
)
;
  }
  ceiling
  {
    type wallHeatTransfer;
    Tinf uniform 303.2;
    alphaWall uniform 0.24;
    value nonuniform List<scalar> 43
(
  314.938
  315.452
  316.346
  316.069
  315.733
  315.473
  315.244
  315.031
  314.825
  314.623
  314.424
  314.227
  314.033
  313.836
  313.638
  313.442
  313.25
  313.064
  312.884
  312.71
  312.542
  312.38
  312.223
  312.071
  311.923
  311.779
  311.638
  311.501
  311.366
  311.234
  311.105
  310.977
  310.852
  310.727
  310.601
  310.472
  310.333
  310.172
  309.937
  309.592
  313.643
  313.728
  316.931
)
;
  }
  sWall
  {
    type wallHeatTransfer;
    Tinf uniform 315.2;
    alphaWall uniform 0.36;
    value uniform 316.442;
  }
  nWall
  {
    type wallHeatTransfer;
    Tinf uniform 307.2;
    alphaWall uniform 0.36;
    value nonuniform List<scalar> 6
(
  309.377
  309.542
  309.667
  309.698
  309.806
  309.795
)
;
  }
  sideWalls
  {
    type empty;
  }
  glass1
  {
    type wallHeatTransfer;
    Tinf uniform 315.2;
    alphaWall uniform 4.3;
    value nonuniform List<scalar> 9
(
  313.38
  312.869
  312.656
  312.79
  314.314
  314.468
  314.465
  314.438
  314.408
)
;
  }
  glass2
  {
    type wallHeatTransfer;
    Tinf uniform 307.2;
    alphaWall uniform 4.3;
    value nonuniform List<scalar> 2
(
  308.599
  308.62
)
;
  }
  sun
  {
    type wallHeatTransfer;
    Tinf uniform 305.2;
    alphaWall uniform 0.24;
    value nonuniform List<scalar> 14
(
  307.45
  307.368
  307.377
  307.397
  307.415
  307.422
  307.414
  307.396
  307.377
  307.363
  307.358
  307.361
  307.37
  307.381
)
;
  }
  heatsource1
  {
    type fixedGradient;
    gradient uniform 0;
  }
  heatsource2
  {
    type fixedGradient;
    gradient uniform 0;
  }
  Table_master
  {
    type zeroGradient;
  }
  Table_slave
  {
    type zeroGradient;
  }
  inlet
  {
    type fixedValue;
    value uniform 293.15;
  }
  outlet
  {
    type zeroGradient;
  }
} 	// ************************************************************************* //

