/*--------------------------------*- C++ -*----------------------------------*\
  =========                 |
  \\      /  F ield         | OpenFOAM: The Open Source CFD Toolbox
   \\    /   O peration     | Website:  https://openfoam.org
    \\  /    A nd           | Version:  6
     \\/     M anipulation  |
\*---------------------------------------------------------------------------*/
FoamFile
{
    version     2.0;
    format      ascii;
    class       surfaceScalarField;
    location    "800";
    object      phi;
}
// * * * * * * * * * * * * * * * * * * * * * * * * * * * * * * * * * * * * * //

dimensions      [1 0 -1 0 0 0 0];

internalField   nonuniform List<scalar> 
852
(
-0.00296315
0.00302056
-0.00400742
0.00104427
-0.00480852
0.000801107
-0.00542955
0.00062103
-0.00583645
0.000406911
-0.00600043
0.000163976
-0.00589288
-0.00010754
-0.00549307
-0.000399811
-0.00482046
-0.000672604
-0.00394429
-0.000876165
-0.0029679
-0.000976392
-0.00200475
-0.000963143
-0.00115897
-0.000845776
-0.000495312
-0.00066366
-0.000493617
-0.000792462
0.000795479
-0.000557414
-0.000235046
2.48356e-05
-0.000582247
0.00052415
-0.000499312
0.000873377
-0.000349225
0.00110292
-0.000229537
0.00123198
-0.000129066
0.00129476
-6.2771e-05
0.00132977
-3.50146e-05
0.00135164
-2.18695e-05
0.00136445
-1.28081e-05
0.00136984
-5.38882e-06
0.00136669
3.15639e-06
0.00134798
1.87112e-05
0.00129363
5.43535e-05
0.00116979
0.000123841
0.000965242
0.000204545
0.000714025
0.000251218
0.000718069
-0.00212374
0.005299
-0.00314791
0.00206845
-0.00397827
0.00163147
-0.00459645
0.00123921
-0.0050027
0.000813167
-0.00517687
0.00033815
-0.00508717
-0.000197236
-0.0047178
-0.000769177
-0.00410145
-0.00128895
-0.00331755
-0.00166006
-0.00246656
-0.00182738
-0.00164302
-0.00178668
-0.000926965
-0.00156183
-0.000388496
-0.00120213
-0.000117996
-0.000764115
0.000137327
-0.000255371
0.000137279
0.00022259
0.000581703
0.000615292
-0.000627746
0.000882212
-0.000849166
0.00110475
-0.000721852
0.00128312
-0.000527592
0.00139958
-0.000345992
0.00142099
-0.000150479
0.00142626
-6.8041e-05
0.00143261
-4.13607e-05
0.00143794
-2.71963e-05
0.00144148
-1.63471e-05
0.00144346
-7.36528e-06
0.00144333
3.28096e-06
0.00143813
2.39181e-05
0.00140127
9.12071e-05
0.00124187
0.000283251
0.000963741
0.000482671
0.000616262
0.000598698
0.00134462
-0.00149288
0.0070286
-0.00237864
0.00295421
-0.00312115
0.00237399
-0.00365681
0.00177487
-0.00401827
0.00117463
-0.00417966
0.000499541
-0.00408562
-0.000291279
-0.0037145
-0.00114029
-0.0031262
-0.00187724
-0.00241676
-0.0023695
-0.0016822
-0.00256194
-0.000992956
-0.00247591
-0.000399834
-0.00215495
6.64812e-05
-0.00166844
0.000370724
-0.00106836
0.000498975
-0.000383619
0.000636256
0.00148253
-0.000891106
0.00169972
-0.000844937
0.00164998
-0.000799427
0.00163255
-0.000704412
0.00165347
-0.00054851
0.00169565
-0.000388176
0.00154533
0.00147744
0.00143623
0.00140919
0.001393
0.00138579
0.00138922
0.0014133
0.00150466
0.00124274
0.000545171
0.000921781
0.000803629
0.000521685
0.000998794
0.00188185
-0.00104505
0.00838022
-0.00174874
0.00365791
-0.00224858
0.00287383
-0.00260819
0.00213449
-0.00285716
0.0014236
-0.00295541
0.000597795
-0.00280461
-0.000442071
-0.00239767
-0.00154723
-0.00184155
-0.00243335
-0.00123815
-0.00297289
-0.000662444
-0.00313765
-0.000150828
-0.00298753
0.000282262
-0.00258803
0.000640336
-0.00202651
0.000957865
-0.00138588
0.00131538
-0.000741132
0.00216152
-0.000209885
0.00248323
-0.000313222
0.00214546
-0.000553339
0.00200944
-0.000708916
0.00187631
-0.000666289
0.0017541
-0.000582205
0.00167271
-0.00046712
0.00160297
-0.000318427
0.00173558
-0.000132766
0.00181283
-7.74055e-05
0.00187372
-6.10396e-05
0.00192137
-4.78058e-05
0.00194282
-2.16048e-05
0.0019172
2.54716e-05
0.00181908
9.79634e-05
0.00161478
0.000204144
0.00125001
0.000364624
0.00109331
0.000701868
0.000788284
0.00110865
0.000327054
0.00146003
0.00222915
-0.000729708
0.00947584
-0.00126351
0.00419172
-0.00138689
0.00299721
-0.00148086
0.00222846
-0.00154143
0.00148417
-0.00148936
0.000545728
-0.00119589
-0.000735532
-0.000744513
-0.00199861
-0.000266651
-0.00291121
0.000161435
-0.00340097
0.000508819
-0.00348503
0.000772711
-0.00325141
0.00097795
-0.00279327
0.00115307
-0.00220163
0.00133114
-0.00156395
0.00155951
-0.000969496
0.00188142
-0.000531799
0.00197889
-0.000410691
0.00189833
-0.000472778
0.00172167
-0.000532256
0.00155917
-0.000503783
0.00141652
-0.000439549
0.0013077
-0.000358308
0.00124909
-0.000259815
0.00127981
-0.000163489
0.00132232
-0.000119908
0.00137036
-0.000109083
0.00142199
-9.94329e-05
0.00146815
-6.77716e-05
0.00148947
4.14943e-06
0.00146402
0.00012342
0.00137817
0.000289995
0.00123217
0.000510614
0.00109505
0.00083899
0.000939163
0.00126454
0.000585591
0.0018136
0.000482964
0.00233178
-0.000989297
0.00147206
-0.00145091
0.000461411
-0.00140239
-0.000631186
0.0105229
-0.000996384
0.00455692
-0.000601288
0.00260211
-0.000305995
0.00193317
-8.85713e-05
0.00126675
0.000255623
0.000201536
0.000752399
-0.0012323
0.00118981
-0.00243602
0.00149507
-0.00321646
0.00165926
-0.00356516
0.00171176
-0.00353752
0.00168385
-0.0032235
0.00161018
-0.0027196
0.00152828
-0.00211972
0.00147051
-0.00150618
0.00146112
-0.000960102
0.00149239
-0.000563075
0.0014604
-0.000378695
0.00133619
-0.000348569
0.00115692
-0.000352977
0.000988993
-0.00033586
0.000851136
-0.000301692
0.000752112
-0.000259285
0.000703587
-0.00021129
0.000710801
-0.000170703
0.000749812
-0.000158921
0.000807112
-0.000166383
0.000877683
-0.000170005
0.000956874
-0.000146964
0.00103523
-7.42069e-05
0.00109431
6.43359e-05
0.0011246
0.000259705
0.00113497
0.000500242
0.00116878
0.000805175
0.00127242
0.00116091
0.00145969
0.00162632
0.00190625
0.00188522
0.00216336
0.00121495
0.00177869
0.000846077
0.000434565
-0.000715266
0.0116988
-0.000598386
0.00444004
0.000484275
0.00151946
0.00117358
0.00124387
0.00177476
0.000665567
0.00243775
-0.000461447
0.00297957
-0.00177413
0.00326963
-0.00272607
0.00330518
-0.003252
0.00313385
-0.00339382
0.00282158
-0.00322525
0.00243243
-0.00283435
0.00202237
-0.00230954
0.00163967
-0.00173702
0.0013157
-0.0011822
0.00107025
-0.000714653
0.000898711
-0.000391536
0.000752412
-0.000232396
0.000595103
-0.00019126
0.000433913
-0.000191787
0.000291448
-0.000193395
0.000179495
-0.000189738
0.00010361
-0.0001834
6.93862e-05
-0.000177067
7.65707e-05
-0.000177888
0.000112117
-0.000194468
0.000165528
-0.000219796
0.000234863
-0.000239341
0.000324374
-0.000236476
0.000440643
-0.000190478
0.000577909
-7.29311e-05
0.000720713
0.000116899
0.000874717
0.000346237
0.00107914
0.00060075
0.00138177
0.000858272
0.00184797
0.00116013
0.00252395
0.00120924
0.00304721
0.000691689
0.00306734
0.000825941
0.003565
0.0026128
0.00960076
0.00329492
0.00375793
0.00346924
0.00134514
0.00394935
0.000763754
0.00466621
-5.12881e-05
0.00534733
-0.00114257
0.00560712
-0.00203391
0.005458
-0.00257694
0.00499209
-0.00278608
0.00431641
-0.00271813
0.0035342
-0.00244303
0.00273074
-0.00203089
0.00196823
-0.00154703
0.00130102
-0.0010698
0.00075353
-0.000634712
0.000349057
-0.000310179
8.28956e-05
-0.000125375
-9.35826e-05
-5.59176e-05
-0.000230676
-5.41661e-05
-0.000348726
-7.37377e-05
-0.000448419
-9.37028e-05
-0.000526694
-0.000111464
-0.00058135
-0.000128744
-0.000611103
-0.000147315
-0.000618531
-0.000170462
-0.000612489
-0.000200511
-0.000599347
-0.00023294
-0.000579076
-0.000259614
-0.000544474
-0.000271079
-0.000478408
-0.000256545
-0.000349367
-0.000201974
-0.000152512
-7.9957e-05
8.98863e-05
0.000103837
0.000384483
0.000306152
0.00074797
0.000494784
0.00122472
0.000683379
0.00172458
0.000709377
0.00185851
0.000557754
0.000916729
0.00176773
0.00474318
0.0101659
0.0139167
0.0122524
0.00300946
0.0113622
0.00165399
0.0106204
0.000690489
0.00970625
-0.000228389
0.00853657
-0.000864227
0.00721925
-0.00125961
0.00584989
-0.00141671
0.00449942
-0.00136766
0.00323193
-0.00117554
0.00209348
-0.000892437
0.0011006
-0.000554154
0.000292188
-0.000261387
-0.000297584
-4.49412e-05
-0.000658419
5.06545e-05
-0.000850998
6.72035e-05
-0.000959326
5.24102e-05
-0.00103853
2.50373e-05
-0.00110985
-2.41581e-06
-0.00117671
-2.68441e-05
-0.00123782
-5.03616e-05
-0.00129222
-7.43405e-05
-0.00134092
-9.86148e-05
-0.00138809
-0.000123299
-0.00144131
-0.000147295
-0.00150806
-0.000166187
-0.00159542
-0.00017226
-0.00171152
-0.000154979
-0.00186675
-0.000101318
-0.00207023
1.50583e-06
-0.00231307
0.000162879
-0.00260505
0.000395822
-0.00301629
0.000717389
-0.00365047
0.00112897
-0.0045796
0.0016125
-0.00592983
0.00205961
-0.00763836
0.00226628
-0.00745255
0.00158192
-0.00242
0.00509907
0.00454285
0.00407186
0.00268122
0.00445031
0.000312056
0.00447746
-0.000255523
0.00405545
-0.000442208
0.00335422
-0.000558376
0.00249541
-0.000557902
0.00157219
-0.000444444
0.000656109
-0.000259457
-0.000193252
-4.30798e-05
-0.000868995
0.000121586
-0.00130196
0.000171577
-0.00152816
0.000181262
-0.00163718
0.000159665
-0.0016979
0.000127925
-0.00174132
9.58349e-05
-0.0017825
6.6215e-05
-0.00182588
4.09614e-05
-0.00187262
1.98906e-05
-0.00192499
2.00571e-06
-0.00198377
-1.55546e-05
-0.00204935
-3.30407e-05
-0.00212367
-4.89825e-05
-0.00220934
-6.16243e-05
-0.00230754
-6.79885e-05
-0.00241762
-6.21836e-05
-0.00253598
-3.66234e-05
-0.00265527
1.79723e-05
-0.00276381
0.000110043
-0.00285641
0.000255484
-0.00293813
0.000477533
-0.00301056
0.000789826
-0.00306903
0.00118743
-0.00307286
0.00161634
-0.00295199
0.00193873
-0.0022471
0.00156139
-0.000559325
-0.000105858
-0.00290108
-0.000438614
0.00503838
0.000842586
0.00140003
0.000778545
0.000376106
0.000476828
4.61967e-05
6.95997e-05
-3.49824e-05
-0.00047028
-1.8504e-05
-0.0010581
2.99134e-05
-0.00159362
9.10743e-05
-0.00200101
0.000147924
-0.00223424
0.000190152
-0.0023195
0.00020684
-0.00234155
0.000193626
-0.00232881
0.00016853
-0.00230984
0.000140691
-0.00229834
0.000116417
-0.00229848
9.5977e-05
-0.00231012
7.78519e-05
-0.00233052
6.13625e-05
-0.00235681
4.61813e-05
-0.0023868
3.19876e-05
-0.00242158
1.92238e-05
-0.00246169
7.06762e-06
-0.0025068
-3.86772e-06
-0.00255615
-1.22804e-05
-0.00260742
-1.67148e-05
-0.00265524
-1.43665e-05
-0.00269045
-1.41283e-06
-0.00270214
2.96576e-05
-0.00267915
8.70525e-05
-0.00260129
0.000177622
-0.00243822
0.000314459
-0.0021619
0.000513511
-0.00175221
0.00077773
-0.001165
0.00102913
-9.63692e-05
0.000870105
0.00178009
-0.000315072
0.00337691
-0.00170268
0.000561377
-0.00794141
-0.0108034
-0.0057209
-0.00429807
-0.00390805
-0.0038528
-0.00388177
-0.00389652
-0.00386451
-0.00377261
-0.00362492
-0.00343592
-0.00323103
-0.00304003
-0.00287469
-0.00273763
-0.00262521
-0.00253353
-0.0024602
-0.00240352
-0.00236213
-0.00233497
-0.00232059
-0.00231834
-0.00232696
-0.00234391
-0.0023652
-0.00238402
-0.00238975
-0.00236426
-0.00228122
-0.00210745
-0.00179669
-0.00128673
-0.00051244
0.000513311
0.00137992
0.00106087
-0.000647161
)
;

boundaryField
{
    floor
    {
        type            calculated;
        value           nonuniform List<scalar> 
29
(
0
0
0
0
0
0
0
0
0
0
0
0
0
0
0
0
0
0
0
0
-4.04291e-06
-1.02891e-05
-1.55455e-05
-2.02442e-05
-1.69254e-06
-3.01586e-06
-8.81206e-06
-9.71664e-06
-8.48041e-06
)
;
    }
    ceiling
    {
        type            calculated;
        value           nonuniform List<scalar> 
43
(
-4.6704e-05
-4.54312e-05
-4.41644e-05
-2.28048e-05
-1.39185e-05
-9.05576e-06
-6.01303e-06
-3.75878e-06
-2.10342e-06
-8.25424e-07
2.36879e-07
1.15077e-06
1.94433e-06
2.62427e-06
3.18295e-06
3.63376e-06
3.99893e-06
4.29314e-06
4.52067e-06
4.68241e-06
4.78313e-06
4.83195e-06
4.8385e-06
4.81089e-06
4.75351e-06
4.67156e-06
4.57074e-06
4.45276e-06
4.31845e-06
4.16706e-06
4.00812e-06
3.84868e-06
3.69472e-06
3.55396e-06
3.43929e-06
3.3763e-06
3.49947e-06
3.97736e-06
5.34749e-06
6.31822e-06
1.01053e-05
7.08317e-06
-5.69113e-05
)
;
    }
    sWall
    {
        type            calculated;
        value           uniform -0.000271883;
    }
    nWall
    {
        type            calculated;
        value           nonuniform List<scalar> 6(-4.87227e-05 -5.82669e-05 -6.30963e-05 -7.82456e-05 -8.55476e-05 -9.21042e-05);
    }
    sideWalls
    {
        type            empty;
        value           nonuniform 0();
    }
    glass1
    {
        type            calculated;
        value           nonuniform List<scalar> 9(-5.7401e-05 -0.0001547 -0.00023672 -0.000306577 -0.000365904 -0.000415914 -0.000460635 -0.000514721 -0.000575234);
    }
    glass2
    {
        type            calculated;
        value           nonuniform List<scalar> 2(-0.000261448 -0.000289372);
    }
    sun
    {
        type            calculated;
        value           uniform 0;
    }
    heatsource1
    {
        type            calculated;
        value           nonuniform List<scalar> 3(2.0423e-07 2.04158e-07 2.04176e-07);
    }
    heatsource2
    {
        type            calculated;
        value           nonuniform List<scalar> 4(5.1205e-08 5.12847e-08 0 0);
    }
    Table_master
    {
        type            calculated;
        value           nonuniform List<scalar> 9(-1.53177e-07 -1.53269e-07 -1.53302e-07 -1.53324e-07 -1.5334e-07 -1.53351e-07 -1.53357e-07 -1.53353e-07 -1.53325e-07);
    }
    Table_slave
    {
        type            calculated;
        value           nonuniform List<scalar> 9(1.53056e-07 1.53078e-07 1.53059e-07 1.53043e-07 1.53036e-07 1.53039e-07 1.53053e-07 1.53093e-07 1.53171e-07);
    }
    inlet
    {
        type            calculated;
        value           uniform -0.00663245;
    }
    outlet
    {
        type            calculated;
        value           nonuniform List<scalar> 2(0.00826 0.00290747);
    }
}


// ************************************************************************* //
