/*--------------------------------*- C++ -*----------------------------------*\
  =========                 |
  \\      /  F ield         | OpenFOAM: The Open Source CFD Toolbox
   \\    /   O peration     | Website:  https://openfoam.org
    \\  /    A nd           | Version:  6
     \\/     M anipulation  |
\*---------------------------------------------------------------------------*/
FoamFile
{
    version     2.0;
    format      ascii;
    class       volScalarField;
    location    "1100";
    object      epsilon;
}
// * * * * * * * * * * * * * * * * * * * * * * * * * * * * * * * * * * * * * //

dimensions      [0 2 -3 0 0 0 0];

internalField   nonuniform List<scalar> 
459
(
0.000502056
0.000660305
0.000708173
0.000819202
0.000933999
0.00105527
0.00119215
0.00130898
0.00137849
0.00137726
0.00129395
0.00113083
0.000896269
0.000568768
0.000272459
4.25507e-05
7.03754e-05
0.000106284
0.000121717
0.000117378
0.000105958
8.69661e-05
6.95609e-05
5.59567e-05
4.56026e-05
3.76751e-05
3.15332e-05
2.66914e-05
2.28457e-05
1.96877e-05
1.69695e-05
1.44707e-05
1.2731e-05
9.59606e-06
0.0012182
0.00170614
0.000618378
0.000605515
0.000642048
0.000706994
0.000805918
0.000913035
0.000992311
0.00101277
0.000963656
0.000853446
0.000705682
0.000531447
0.000407664
0.000559166
0.00020357
4.28427e-05
9.40675e-05
0.000118519
0.000119197
0.000109667
9.82119e-05
9.48049e-05
7.62131e-05
5.92445e-05
4.60214e-05
3.60539e-05
2.85804e-05
2.29317e-05
1.86697e-05
1.54953e-05
1.34703e-05
1.24946e-05
2.63852e-05
1.91903e-05
0.00216043
0.00400495
0.000740846
0.00058002
0.000623937
0.000725667
0.000872457
0.00102315
0.00112469
0.00114874
0.00109607
0.00097863
0.000825839
0.000662683
0.000533748
0.000473121
0.000610212
0.000206584
0.000195679
0.000175897
0.000154504
0.000133405
0.000121604
0.000241697
0.000160576
0.000110361
7.86482e-05
5.80007e-05
4.41253e-05
3.4528e-05
2.78113e-05
2.31852e-05
1.74386e-05
1.45633e-05
4.83838e-05
2.90897e-05
0.00341863
0.00815094
0.00112637
0.000592792
0.000629921
0.000781698
0.00101415
0.00121361
0.00131949
0.00132772
0.001256
0.00111165
0.000935976
0.000761935
0.000619309
0.000532553
0.000518868
0.000927579
0.000560369
0.000364101
0.000261736
0.000201733
0.000162761
0.000146491
0.000355476
0.00026366
0.00020763
0.000169739
0.000141065
0.000118454
9.89655e-05
8.10328e-05
6.34192e-05
3.60619e-05
2.29067e-05
8.25034e-05
3.91633e-05
0.00512035
0.0144447
0.00216101
0.000703823
0.000678789
0.000933341
0.00132421
0.00154385
0.00161443
0.0015795
0.00146425
0.00128119
0.00105784
0.000830465
0.000636561
0.000498377
0.000423885
0.00040191
0.000345724
0.000291497
0.00024567
0.000206118
0.000171757
0.000145409
0.000139957
0.000127811
0.000115729
0.000103965
9.22544e-05
8.07976e-05
6.96109e-05
5.9068e-05
4.93875e-05
3.76199e-05
2.80205e-05
5.96288e-05
4.47812e-05
7.33209e-05
0.00012862
0.000183316
0.00746978
0.0215004
0.00481361
0.00131025
0.00102745
0.00158268
0.00198179
0.00208804
0.00205301
0.00194115
0.00175948
0.00150821
0.00121006
0.00090897
0.000654824
0.000476184
0.00037525
0.000331104
0.000304501
0.000276203
0.000242482
0.000206633
0.000172602
0.000144444
0.00012658
0.000115701
0.000107807
0.000100183
9.1708e-05
8.17589e-05
7.05701e-05
5.9451e-05
4.94506e-05
4.0529e-05
3.51772e-05
4.58778e-05
4.82092e-05
5.79249e-05
0.000238292
0.00021139
0.0101856
0.0257774
0.00988527
0.00414248
0.00310941
0.00330478
0.00317807
0.0029395
0.00269087
0.0024382
0.00214564
0.00179008
0.00139008
0.000996797
0.000676789
0.000464607
0.000354646
0.000310458
0.00028683
0.000259816
0.000226319
0.000191327
0.000159792
0.000135405
0.000120511
0.000113408
0.000110026
0.000107789
0.000105585
0.000102318
9.50487e-05
8.54117e-05
7.58799e-05
6.78787e-05
6.60176e-05
7.44297e-05
9.31107e-05
0.000141251
0.000335825
0.000323992
0.0108113
0.0279632
0.0155247
0.0103646
0.00788368
0.00604068
0.00481268
0.0040193
0.00348366
0.00305265
0.00260803
0.00210182
0.00156005
0.00104348
0.000652685
0.000420371
0.000313874
0.000274681
0.000249762
0.000221565
0.000190271
0.000161195
0.000137917
0.000122296
0.000114614
0.000113304
0.000116284
0.00012271
0.000132752
0.000146657
0.000163884
0.000178916
0.000193321
0.000219927
0.00026949
0.000397831
0.000685887
0.00125071
0.00416086
0.00109006
0.0100256
0.0168464
0.0134662
0.0102598
0.00797121
0.00644631
0.00544253
0.00476981
0.00424811
0.00371409
0.00306104
0.00230974
0.00155962
0.000863836
0.000476001
0.000317998
0.000252106
0.000219534
0.000194685
0.000170465
0.00014782
0.000128808
0.000115032
0.000107246
0.000105288
0.000108468
0.000116411
0.000129671
0.000149653
0.00017847
0.000219014
0.00027549
0.00035428
0.000467774
0.00063204
0.000854541
0.00111714
0.00136682
0.0015649
0.000860794
0.00450736
0.00611858
0.00675182
0.00642134
0.00593221
0.00537809
0.00464649
0.00370073
0.00247582
0.00141289
0.000796575
0.00046147
0.000298384
0.00022313
0.000185429
0.000161376
0.000141555
0.000124026
0.000109496
9.86852e-05
9.18299e-05
8.86592e-05
8.8839e-05
9.22608e-05
9.92455e-05
0.000110601
0.000127746
0.000152764
0.000188748
0.000240235
0.000312836
0.000414006
0.000550298
0.000718434
0.00089537
0.00104222
0.000969239
0.000433915
0.00306954
0.00669739
0.00686701
0.00551051
0.00453621
0.00359231
0.00258497
0.00171495
0.00106964
0.000646207
0.000402528
0.000273853
0.000208849
0.000175253
0.000156008
0.00014306
0.000133132
0.000125233
0.000119174
0.00011489
0.000112295
0.000111262
0.000111755
0.000113925
0.000118219
0.000125511
0.000137097
0.00015481
0.000181193
0.000219682
0.000274716
0.000350868
0.000449364
0.000562834
0.00066658
0.000778211
0.000447171
0.000462491
0.00202473
0.00236307
0.00262787
0.00298581
0.00236579
0.00201659
0.00180662
0.00153877
0.00121338
0.000906608
0.000659254
0.00048143
0.000365782
0.000294059
0.000247399
0.000213668
0.000186549
0.000163288
0.000143308
0.000126948
0.000114461
0.000105667
0.000100108
9.73343e-05
9.71149e-05
9.95154e-05
0.000104872
0.000113698
0.000126726
0.000144847
0.000169083
0.000200856
0.000242075
0.000295026
0.000361196
0.00044227
0.000447095
0.000318881
0.00027568
0.000468559
)
;

boundaryField
{
    floor
    {
        Cmu             0.09;
        kappa           0.41;
        E               9.8;
        type            epsilonWallFunction;
        value           nonuniform List<scalar> 
29
(
0.000272459
4.25507e-05
7.03754e-05
0.000106284
0.000121717
0.000117378
0.000105958
8.69661e-05
6.95609e-05
5.59567e-05
4.56026e-05
3.76751e-05
3.15332e-05
2.66914e-05
2.28457e-05
1.96877e-05
1.69695e-05
1.44707e-05
1.2731e-05
9.59606e-06
9.59606e-06
1.91903e-05
2.90897e-05
3.91633e-05
0.000272459
4.25507e-05
4.28427e-05
0.000206584
0.000927579
)
;
    }
    ceiling
    {
        Cmu             0.09;
        kappa           0.41;
        E               9.8;
        type            epsilonWallFunction;
        value           nonuniform List<scalar> 
43
(
0.00202473
0.00236307
0.00262787
0.00298581
0.00236579
0.00201659
0.00180662
0.00153877
0.00121338
0.000906608
0.000659254
0.00048143
0.000365782
0.000294059
0.000247399
0.000213668
0.000186549
0.000163288
0.000143308
0.000126948
0.000114461
0.000105667
0.000100108
9.73343e-05
9.71149e-05
9.95154e-05
0.000104872
0.000113698
0.000126726
0.000144847
0.000169083
0.000200856
0.000242075
0.000295026
0.000361196
0.00044227
0.000447095
0.000318881
0.00027568
0.000468559
0.0100256
0.0168464
0.00306954
)
;
    }
    sWall
    {
        Cmu             0.09;
        kappa           0.41;
        E               9.8;
        type            epsilonWallFunction;
        value           uniform 0.00202473;
    }
    nWall
    {
        Cmu             0.09;
        kappa           0.41;
        E               9.8;
        type            epsilonWallFunction;
        value           nonuniform List<scalar> 6(0.000183316 0.00021139 0.000323992 0.000433915 0.000462491 0.000468559);
    }
    sideWalls
    {
        type            empty;
    }
    glass1
    {
        Cmu             0.09;
        kappa           0.41;
        E               9.8;
        type            epsilonWallFunction;
        value           nonuniform List<scalar> 9(0.000502056 0.0012182 0.00216043 0.00341863 0.00512035 0.00746978 0.0101856 0.0108113 0.0100256);
    }
    glass2
    {
        Cmu             0.09;
        kappa           0.41;
        E               9.8;
        type            epsilonWallFunction;
        value           nonuniform List<scalar> 2(0.00109006 0.000860794);
    }
    sun
    {
        Cmu             0.09;
        kappa           0.41;
        E               9.8;
        type            epsilonWallFunction;
        value           nonuniform List<scalar> 
14
(
0.000502056
0.000660305
0.000708173
0.000819202
0.000933999
0.00105527
0.00119215
0.00130898
0.00137849
0.00137726
0.00129395
0.00113083
0.000896269
0.000568768
)
;
    }
    heatsource1
    {
        Cmu             0.09;
        kappa           0.41;
        E               9.8;
        type            epsilonWallFunction;
        value           nonuniform List<scalar> 3(7.33209e-05 0.00012862 0.000183316);
    }
    heatsource2
    {
        Cmu             0.09;
        kappa           0.41;
        E               9.8;
        type            epsilonWallFunction;
        value           nonuniform List<scalar> 4(0.000559166 0.00020357 0.00020357 0.000610212);
    }
    Table_master
    {
        Cmu             0.09;
        kappa           0.41;
        E               9.8;
        type            epsilonWallFunction;
        value           nonuniform List<scalar> 9(0.000241697 0.000160576 0.000110361 7.86482e-05 5.80007e-05 4.41253e-05 3.4528e-05 2.78113e-05 2.31852e-05);
    }
    Table_slave
    {
        Cmu             0.09;
        kappa           0.41;
        E               9.8;
        type            epsilonWallFunction;
        value           nonuniform List<scalar> 9(0.000355476 0.00026366 0.00020763 0.000169739 0.000141065 0.000118454 9.89655e-05 8.10328e-05 6.34192e-05);
    }
    inlet
    {
        type            turbulentMixingLengthDissipationRateInlet;
        mixingLength    0.01;
        phi             phi;
        k               k;
        value           uniform 0.000101881;
    }
    outlet
    {
        type            zeroGradient;
    }
}


// ************************************************************************* //
