// -*- C++ -*-
// File generated by PyFoam - sorry for the ugliness

FoamFile
{
 version 2.0;
 format ascii;
 class volScalarField;
 location "1100";
 object T;
}

dimensions [ 0 0 0 1 0 0 0 ];

internalField nonuniform List<scalar> 459
(
  303.291
  303.031
  303.018
  303.015
  303.012
  303.008
  303.004
  302.997
  302.986
  302.975
  302.966
  302.96
  302.961
  302.969
  302.997
  303.111
  303.09
  303.082
  303.087
  303.095
  303.102
  303.109
  303.115
  303.121
  303.128
  303.134
  303.14
  303.147
  303.153
  303.16
  303.167
  303.175
  303.185
  303.21
  303.464
  303.071
  303.048
  303.051
  303.054
  303.053
  303.049
  303.037
  303.014
  302.988
  302.966
  302.953
  302.95
  302.954
  302.962
  302.96
  302.958
  303.115
  303.067
  303.063
  303.07
  303.081
  303.091
  303.096
  303.1
  303.104
  303.108
  303.112
  303.115
  303.119
  303.124
  303.129
  303.136
  303.146
  303.16
  303.197
  303.646
  303.121
  303.085
  303.097
  303.111
  303.12
  303.12
  303.099
  303.058
  303.01
  302.972
  302.949
  302.944
  302.949
  302.955
  302.958
  302.958
  303.066
  303.05
  303.054
  303.068
  303.087
  303.103
  303.105
  303.106
  303.108
  303.11
  303.113
  303.116
  303.119
  303.122
  303.126
  303.133
  303.141
  303.155
  303.193
  303.832
  303.183
  303.124
  303.145
  303.176
  303.203
  303.212
  303.179
  303.109
  303.033
  302.975
  302.944
  302.939
  302.947
  302.957
  302.964
  302.966
  302.976
  302.994
  303.02
  303.051
  303.084
  303.114
  303.139
  303.16
  303.178
  303.194
  303.208
  303.22
  303.231
  303.241
  303.249
  303.255
  303.218
  303.187
  303.172
  303.196
  304.014
  303.262
  303.167
  303.188
  303.238
  303.29
  303.306
  303.251
  303.147
  303.043
  302.971
  302.936
  302.932
  302.947
  302.966
  302.981
  302.993
  303.011
  303.036
  303.068
  303.103
  303.14
  303.173
  303.202
  303.229
  303.251
  303.27
  303.285
  303.297
  303.304
  303.307
  303.305
  303.297
  303.27
  303.229
  303.197
  303.2
  303.307
  303.361
  303.364
  304.181
  303.363
  303.236
  303.238
  303.293
  303.374
  303.371
  303.282
  303.154
  303.034
  302.953
  302.918
  302.923
  302.951
  302.985
  303.015
  303.041
  303.069
  303.101
  303.138
  303.177
  303.213
  303.246
  303.275
  303.3
  303.32
  303.338
  303.351
  303.36
  303.362
  303.358
  303.35
  303.335
  303.309
  303.27
  303.229
  303.214
  303.256
  303.28
  303.319
  304.334
  303.525
  303.392
  303.377
  303.415
  303.465
  303.405
  303.265
  303.106
  302.976
  302.903
  302.888
  302.916
  302.968
  303.025
  303.074
  303.115
  303.152
  303.189
  303.226
  303.262
  303.295
  303.324
  303.349
  303.369
  303.386
  303.399
  303.408
  303.413
  303.411
  303.402
  303.389
  303.37
  303.344
  303.309
  303.271
  303.248
  303.257
  303.27
  303.301
  304.554
  303.949
  303.796
  303.718
  303.696
  303.579
  303.373
  303.145
  302.958
  302.848
  302.82
  302.855
  302.927
  303.018
  303.101
  303.167
  303.218
  303.256
  303.289
  303.32
  303.349
  303.376
  303.397
  303.415
  303.43
  303.44
  303.448
  303.451
  303.45
  303.446
  303.437
  303.422
  303.404
  303.38
  303.354
  303.327
  303.312
  303.323
  303.341
  303.463
  304.869
  304.582
  304.324
  304.097
  303.816
  303.381
  302.99
  302.734
  302.627
  302.642
  302.74
  302.87
  303.002
  303.138
  303.231
  303.285
  303.321
  303.352
  303.38
  303.405
  303.426
  303.444
  303.458
  303.469
  303.476
  303.48
  303.481
  303.479
  303.475
  303.47
  303.464
  303.46
  303.458
  303.459
  303.468
  303.486
  303.514
  303.544
  303.567
  303.628
  296.655
  298.265
  299.191
  300.144
  300.961
  301.632
  302.158
  302.556
  302.882
  303.097
  303.218
  303.295
  303.346
  303.382
  303.409
  303.433
  303.455
  303.472
  303.487
  303.497
  303.504
  303.508
  303.509
  303.509
  303.507
  303.504
  303.502
  303.499
  303.497
  303.496
  303.496
  303.5
  303.509
  303.524
  303.544
  303.566
  303.59
  303.644
  297.064
  298.733
  299.945
  301.116
  301.944
  302.464
  302.812
  303.045
  303.198
  303.298
  303.362
  303.405
  303.436
  303.46
  303.479
  303.496
  303.509
  303.52
  303.527
  303.531
  303.533
  303.534
  303.533
  303.531
  303.529
  303.526
  303.524
  303.521
  303.519
  303.518
  303.518
  303.521
  303.526
  303.535
  303.547
  303.567
  303.595
  303.622
  299.595
  299.52
  299.515
  301.488
  302.409
  302.819
  303.037
  303.181
  303.285
  303.359
  303.412
  303.449
  303.475
  303.494
  303.509
  303.52
  303.529
  303.535
  303.539
  303.542
  303.543
  303.543
  303.542
  303.541
  303.54
  303.538
  303.537
  303.535
  303.534
  303.533
  303.532
  303.531
  303.531
  303.531
  303.533
  303.539
  303.547
  303.557
  303.62
  303.714
)
;

boundaryField
{
  floor
  {
    type wallHeatTransfer;
    Tinf uniform 305.2;
    alphaWall uniform 0.24;
    value nonuniform List<scalar> 29
(
  303.26
  303.497
  303.438
  303.399
  303.393
  303.403
  303.416
  303.437
  303.459
  303.482
  303.504
  303.525
  303.546
  303.566
  303.585
  303.604
  303.623
  303.645
  303.665
  303.711
  303.711
  303.635
  303.595
  303.573
  303.26
  303.497
  303.499
  303.338
  303.17
)
;
  }
  ceiling
  {
    type wallHeatTransfer;
    Tinf uniform 303.2;
    alphaWall uniform 0.24;
    value nonuniform List<scalar> 43
(
  299.849
  299.77
  299.758
  301.597
  302.463
  302.846
  303.049
  303.182
  303.278
  303.345
  303.391
  303.423
  303.445
  303.46
  303.471
  303.479
  303.486
  303.49
  303.492
  303.493
  303.492
  303.491
  303.49
  303.489
  303.488
  303.487
  303.486
  303.486
  303.486
  303.487
  303.487
  303.488
  303.49
  303.492
  303.496
  303.503
  303.51
  303.516
  303.57
  303.66
  304.792
  304.527
  297.449
)
;
  }
  sWall
  {
    type wallHeatTransfer;
    Tinf uniform 315.2;
    alphaWall uniform 0.36;
    value uniform 301.196;
  }
  nWall
  {
    type wallHeatTransfer;
    Tinf uniform 307.2;
    alphaWall uniform 0.36;
    value nonuniform List<scalar> 6
(
  304.075
  304.015
  303.934
  304.183
  304.156
  304.233
)
;
  }
  sideWalls
  {
    type empty;
  }
  glass1
  {
    type wallHeatTransfer;
    Tinf uniform 315.2;
    alphaWall uniform 4.3;
    value nonuniform List<scalar> 9
(
  311.346
  310.725
  310.336
  310.043
  309.799
  309.576
  309.409
  309.481
  309.708
)
;
  }
  glass2
  {
    type wallHeatTransfer;
    Tinf uniform 307.2;
    alphaWall uniform 4.3;
    value nonuniform List<scalar> 2
(
  305.791
  305.909
)
;
  }
  sun
  {
    type wallHeatTransfer;
    Tinf uniform 305.2;
    alphaWall uniform 0.24;
    value nonuniform List<scalar> 14
(
  303.486
  303.238
  303.223
  303.212
  303.203
  303.193
  303.184
  303.173
  303.161
  303.151
  303.145
  303.146
  303.158
  303.19
)
;
  }
  heatsource1
  {
    type fixedGradient;
    gradient uniform 0;
  }
  heatsource2
  {
    type fixedGradient;
    gradient uniform 0;
  }
  Table_master
  {
    type zeroGradient;
  }
  Table_slave
  {
    type zeroGradient;
  }
  inlet
  {
    type fixedValue;
    value uniform 293.15;
  }
  outlet
  {
    type zeroGradient;
  }
} 	// ************************************************************************* //

