/*--------------------------------*- C++ -*----------------------------------*\
  =========                 |
  \\      /  F ield         | OpenFOAM: The Open Source CFD Toolbox
   \\    /   O peration     | Website:  https://openfoam.org
    \\  /    A nd           | Version:  6
     \\/     M anipulation  |
\*---------------------------------------------------------------------------*/
FoamFile
{
    version     2.0;
    format      ascii;
    class       surfaceScalarField;
    location    "1200";
    object      phi;
}
// * * * * * * * * * * * * * * * * * * * * * * * * * * * * * * * * * * * * * //

dimensions      [1 0 -1 0 0 0 0];

internalField   nonuniform List<scalar> 
852
(
-0.00295416
0.00301171
-0.00398392
0.00102977
-0.00478135
0.00079743
-0.00540687
0.000625531
-0.00582702
0.000420156
-0.00601405
0.00018703
-0.00593993
-7.41141e-05
-0.0055814
-0.00035853
-0.00495066
-0.000630731
-0.00410845
-0.000842212
-0.00315088
-0.000957557
-0.00218782
-0.000963056
-0.00131887
-0.000868951
-0.000600547
-0.000718316
-0.000598859
-0.000770696
0.000773752
-0.000506799
-0.000263893
8.82848e-05
-0.000595079
0.000581994
-0.000493705
0.000921431
-0.000339432
0.00114078
-0.000219348
0.00126222
-0.000121434
0.00132076
-5.85351e-05
0.00135288
-3.21131e-05
0.00137233
-1.94419e-05
0.001383
-1.06723e-05
0.00138641
-3.40297e-06
0.00138126
5.16089e-06
0.00136014
2.11168e-05
0.00130229
5.78572e-05
0.00117296
0.00012934
0.000961539
0.000211423
0.000708738
0.000252807
0.000712837
-0.0021166
0.00528334
-0.00313156
0.00204473
-0.00395971
0.00162558
-0.0045818
0.00124763
-0.00499999
0.000838344
-0.00519592
0.000382972
-0.0051383
-0.000131731
-0.0048074
-0.000689428
-0.00422736
-0.00121077
-0.00347011
-0.00159946
-0.00263095
-0.00179671
-0.00180476
-0.00178924
-0.00107236
-0.00160134
-0.000513412
-0.00127726
-0.000252631
-0.000859636
8.17279e-05
-0.000334406
8.16816e-05
0.000276487
0.000506136
0.000675487
-0.000662888
0.00093378
-0.000853367
0.00115244
-0.000712357
0.00132557
-0.000512559
0.00143623
-0.000330005
0.0014553
-0.000140501
0.00146005
-6.32759e-05
0.00146588
-3.79395e-05
0.0014708
-2.43595e-05
0.00147408
-1.39429e-05
0.00147582
-5.1409e-06
0.0014754
5.58517e-06
0.00146967
2.68529e-05
0.00143109
9.64383e-05
0.00126544
0.000294994
0.000978015
0.000498855
0.000620176
0.00061065
0.00134338
-0.00148864
0.00700907
-0.00236964
0.00292574
-0.00311092
0.00236686
-0.00364964
0.00178636
-0.00402164
0.00121034
-0.00420409
0.000565428
-0.00414368
-0.000192136
-0.00381034
-0.00102277
-0.00325245
-0.00176865
-0.00256123
-0.00229067
-0.00182978
-0.00252816
-0.00113356
-0.00248546
-0.000525411
-0.00220948
-4.60938e-05
-0.00175658
0.000271705
-0.00117743
0.000429927
-0.000492624
0.000511613
0.00149018
-0.000974389
0.00170772
-0.000880426
0.00166344
-0.000809087
0.00165129
-0.000700195
0.00167528
-0.000536551
0.00171317
-0.000367884
0.00157282
0.0015097
0.00147192
0.00144772
0.00143394
0.00142895
0.0014347
0.00146171
0.0015583
0.00128642
0.000566886
0.000953702
0.000831575
0.000535242
0.00102912
0.00189429
-0.00104374
0.00835974
-0.00174735
0.00362935
-0.002247
0.00286652
-0.00260951
0.00214887
-0.00286813
0.00146897
-0.00298976
0.000687071
-0.00287815
-0.000303743
-0.00250648
-0.00139444
-0.00197032
-0.0023048
-0.00137363
-0.00288735
-0.000791661
-0.00311012
-0.000268961
-0.00300816
0.000177428
-0.00265587
0.000545731
-0.00212488
0.000870573
-0.00150227
0.00123773
-0.000859777
0.00206736
-0.00031801
0.00245447
-0.000378556
0.00209349
-0.000613403
0.00196532
-0.000752257
0.00184624
-0.00069
0.00173942
-0.000593372
0.0016744
-0.000471532
0.00162711
-0.000320589
0.00176883
-0.000141871
0.00185966
-9.09777e-05
0.0019345
-7.49841e-05
0.00199425
-5.99029e-05
0.00202417
-3.00708e-05
0.00200171
2.2313e-05
0.00190085
0.000100706
0.001688
0.000212701
0.00130819
0.000379661
0.00114489
0.000730197
0.000827699
0.00114877
0.000350696
0.00150612
0.00226539
-0.000730182
0.00945607
-0.00126769
0.00416686
-0.00139288
0.00299171
-0.00149143
0.00224743
-0.00156054
0.00153808
-0.00154366
0.000670197
-0.00129505
-0.000552349
-0.000868048
-0.00182144
-0.000395075
-0.00277777
4.24523e-05
-0.00332488
0.000405087
-0.00347275
0.000685219
-0.00328829
0.000900277
-0.00287092
0.00108164
-0.00230624
0.00126199
-0.00168261
0.00149
-0.00108779
0.0018088
-0.000636798
0.00192111
-0.000490868
0.0018427
-0.000534987
0.00167156
-0.000581116
0.00152108
-0.000539516
0.0013942
-0.000466481
0.00130393
-0.000381262
0.00126619
-0.000282842
0.00131556
-0.000191235
0.00137562
-0.00015104
0.00144012
-0.000139476
0.00150524
-0.000125027
0.00156001
-8.48368e-05
0.00158336
-1.02503e-06
0.00155308
0.000130982
0.00145737
0.000308423
0.00129768
0.000539348
0.00114744
0.000880442
0.000977527
0.00131869
0.000611356
0.0018723
0.000494715
0.00238203
-0.00100079
0.0014953
-0.0014629
0.000461909
-0.00141406
-0.000632812
0.0105049
-0.00100461
0.00453866
-0.00061494
0.00260205
-0.000332446
0.00196494
-0.000130345
0.00133599
0.000164628
0.000375228
0.000623038
-0.00101075
0.00105982
-0.00225821
0.00138201
-0.00309996
0.00156939
-0.00351225
0.00164109
-0.00354444
0.00163147
-0.00327866
0.00156989
-0.00280934
0.0014936
-0.00222994
0.00143588
-0.00162488
0.00142246
-0.00107436
0.00144839
-0.00066273
0.00141583
-0.000458301
0.00129298
-0.00041214
0.00111746
-0.00040559
0.000958582
-0.000380633
0.000834525
-0.00034242
0.000752865
-0.000299599
0.00072385
-0.000253823
0.000749742
-0.000217123
0.000805619
-0.000206913
0.000877671
-0.000211525
0.00096001
-0.000207363
0.00104641
-0.00017123
0.00112542
-8.00394e-05
0.00117791
7.8496e-05
0.00119769
0.000288651
0.00119443
0.000542611
0.00121311
0.000861765
0.00130017
0.00123162
0.00147163
0.00170084
0.00190802
0.00194565
0.00216664
0.00123668
0.00177814
0.000850414
0.00042273
-0.000724729
0.0116903
-0.000615793
0.00442973
0.000451202
0.00153506
0.00110474
0.0013114
0.00163423
0.000806508
0.00225814
-0.000248682
0.00282488
-0.00157749
0.00314803
-0.00258135
0.00321965
-0.00317157
0.00308319
-0.00337579
0.00279957
-0.00326081
0.00243259
-0.00291168
0.00203561
-0.00241236
0.00165658
-0.0018509
0.00132948
-0.00129779
0.00107433
-0.000819204
0.000890434
-0.00047883
0.000734611
-0.000302474
0.000572322
-0.000249847
0.000411057
-0.000244322
0.000274151
-0.000243723
0.000172509
-0.000240774
0.000109885
-0.000236971
8.99888e-05
-0.000233924
0.00011035
-0.000237481
0.000157246
-0.000253805
0.000220348
-0.000274623
0.00029796
-0.000284972
0.0003942
-0.000267467
0.000514072
-0.000199909
0.000646074
-5.35027e-05
0.00077771
0.000157019
0.000918145
0.000402179
0.00110649
0.000673428
0.0013893
0.000948815
0.00183344
0.0012567
0.0025026
0.0012765
0.00304641
0.000692876
0.00306789
0.00082894
0.00355375
0.00259381
0.00961107
0.00326429
0.00375925
0.00341121
0.00138815
0.00383451
0.000888114
0.0044907
0.000150314
0.00518121
-0.000939182
0.00548193
-0.00187821
0.00538529
-0.00248471
0.00497026
-0.00275654
0.00433716
-0.00274269
0.00358634
-0.00250999
0.0028049
-0.00213023
0.00205156
-0.00165902
0.00138106
-0.0011804
0.00082346
-0.000740184
0.0003983
-0.000394041
0.000109273
-0.0001898
-8.4948e-05
-0.000108249
-0.000232409
-0.000102382
-0.000354488
-0.00012224
-0.000453222
-0.000144985
-0.000527354
-0.000166638
-0.000576734
-0.000187589
-0.000601525
-0.000209129
-0.000605248
-0.000233755
-0.000596587
-0.000262463
-0.000581261
-0.000289946
-0.000558496
-0.000307734
-0.000519942
-0.000306018
-0.000446502
-0.000273346
-0.000306745
-0.000193256
-0.000114815
-3.49086e-05
0.000109416
0.000177952
0.00038539
0.000397457
0.000723535
0.000610674
0.00116417
0.000816071
0.0016351
0.000805576
0.0018199
0.000508079
0.00106412
0.00158472
0.00487897
0.0101759
0.0139281
0.0122149
0.00310134
0.0112684
0.00183463
0.0105294
0.000889333
0.00967048
-8.02865e-05
0.00855355
-0.000761275
0.00728434
-0.00121549
0.00595666
-0.00142886
0.00463665
-0.00142266
0.00338547
-0.00125882
0.00225721
-0.00100196
0.00125922
-0.00066103
0.000433644
-0.000354813
-0.00018514
-0.000121397
-0.000581032
1.85497e-06
-0.000800733
2.99041e-05
-0.000927714
1.87348e-05
-0.00102116
-8.93314e-06
-0.00110282
-4.05752e-05
-0.00117618
-7.16272e-05
-0.00124182
-0.000100986
-0.00130078
-0.000128633
-0.00135481
-0.000155092
-0.00140811
-0.000180455
-0.00146782
-0.000202744
-0.00154121
-0.000216554
-0.00163552
-0.000213425
-0.00175968
-0.000181854
-0.00192523
-0.000107789
-0.00214022
2.17339e-05
-0.00239083
0.000215709
-0.00270176
0.000488882
-0.00316176
0.000857463
-0.00386792
0.00131684
-0.00488369
0.00183184
-0.00632191
0.0022438
-0.00804832
0.00223449
-0.00752673
0.00106314
-0.0023583
0.00511853
0.00460362
0.00414618
0.00280698
0.00457284
0.000462679
0.00462568
-0.000133121
0.00423366
-0.000369253
0.00357039
-0.000552217
0.0027367
-0.000595172
0.00182299
-0.000508952
0.000906371
-0.000342193
3.72786e-05
-0.000132866
-0.00068717
6.34208e-05
-0.00117745
0.000135475
-0.00145202
0.000153173
-0.00158694
0.000136775
-0.00166012
0.000103088
-0.00171088
6.95013e-05
-0.00175809
3.82814e-05
-0.00180978
1.11109e-05
-0.00186883
-1.2569e-05
-0.00193497
-3.48491e-05
-0.00200812
-5.54736e-05
-0.00208911
-7.41028e-05
-0.00217953
-9.00334e-05
-0.00228157
-0.000100697
-0.00239627
-0.000101846
-0.0025223
-8.7398e-05
-0.00265472
-4.94253e-05
-0.00278426
2.17501e-05
-0.00289862
0.000136101
-0.00299553
0.000312622
-0.00308392
0.000577276
-0.00317148
0.000945023
-0.00325666
0.00140203
-0.00329205
0.00186724
-0.00321605
0.0021678
-0.00284661
0.00186506
-0.00157202
-0.000211456
-0.00385455
-0.000435195
0.00509466
0.000865976
0.00150582
0.00088184
0.000446818
0.000657666
9.10555e-05
0.000325867
-3.74527e-05
-0.000171046
-5.53041e-05
-0.00076279
-3.42666e-06
-0.00133538
6.3637e-05
-0.00180084
0.000123269
-0.00210271
0.00016901
-0.00223264
0.000193358
-0.0022798
0.00018263
-0.00228484
0.000158221
-0.00227747
0.000129404
-0.00227638
0.000102006
-0.00228549
7.86119e-05
-0.00230503
5.7828e-05
-0.00233283
3.89135e-05
-0.00236751
2.21105e-05
-0.00240936
7.00445e-06
-0.00245836
-6.46446e-06
-0.00251447
-1.79954e-05
-0.00257715
-2.73478e-05
-0.00264448
-3.33655e-05
-0.00271237
-3.39504e-05
-0.00277384
-2.59274e-05
-0.00281817
-5.09296e-06
-0.00283278
3.63628e-05
-0.00280421
0.000107535
-0.00270888
0.000217295
-0.00251345
0.000381856
-0.00219078
0.000622351
-0.00172755
0.000938802
-0.00110119
0.00124088
-0.00012934
0.00119596
0.00117066
0.000565064
0.00157049
-0.000611278
-0.00220086
0.000172502
-0.0108431
-0.00570443
-0.00417522
-0.00371354
-0.00361244
-0.00364301
-0.00369372
-0.0036943
-0.00362908
-0.00350526
-0.00333657
-0.00314426
-0.0029633
-0.00280725
-0.00268041
-0.00258127
-0.00250575
-0.00245117
-0.00241561
-0.00239689
-0.0023933
-0.00240316
-0.00242452
-0.00245518
-0.0024918
-0.00252893
-0.00255795
-0.00256605
-0.0025326
-0.00242786
-0.00221327
-0.00183401
-0.00121419
-0.000277857
0.000960533
0.0021539
0.0027162
0.00210195
)
;

boundaryField
{
    floor
    {
        type            calculated;
        value           nonuniform List<scalar> 
29
(
0
0
0
0
0
0
0
0
0
0
0
0
0
0
0
0
0
0
0
0
-4.09409e-06
-1.0367e-05
-1.56573e-05
-2.03954e-05
-1.68337e-06
-3.05076e-06
-8.86636e-06
-9.64677e-06
-8.54852e-06
)
;
    }
    ceiling
    {
        type            calculated;
        value           nonuniform List<scalar> 
43
(
-2.37961e-05
-4.3834e-05
-4.39901e-05
-2.33878e-05
-1.48673e-05
-1.00408e-05
-6.88401e-06
-4.59129e-06
-2.84361e-06
-1.57511e-06
-5.46877e-07
3.17742e-07
1.05522e-06
1.67358e-06
2.17408e-06
2.56647e-06
2.86871e-06
3.09443e-06
3.25219e-06
3.35052e-06
3.40065e-06
3.41424e-06
3.39975e-06
3.36521e-06
3.3164e-06
3.25547e-06
3.18382e-06
3.10232e-06
3.01109e-06
2.90898e-06
2.80364e-06
2.70137e-06
2.60714e-06
2.5279e-06
2.47642e-06
2.48929e-06
2.59682e-06
2.76428e-06
2.97496e-06
3.96197e-06
1.01491e-05
7.11062e-06
-5.58366e-05
)
;
    }
    sWall
    {
        type            calculated;
        value           uniform -0.000230407;
    }
    nWall
    {
        type            calculated;
        value           nonuniform List<scalar> 6(-4.90328e-05 -5.8645e-05 -6.31324e-05 -7.57706e-05 -8.32007e-05 -0.000102863);
    }
    sideWalls
    {
        type            empty;
        value           nonuniform 0();
    }
    glass1
    {
        type            calculated;
        value           nonuniform List<scalar> 9(-5.75475e-05 -0.000155018 -0.000237094 -0.000306913 -0.00036615 -0.00041606 -0.000460611 -0.000514584 -0.000575019);
    }
    glass2
    {
        type            calculated;
        value           nonuniform List<scalar> 2(-0.000261086 -0.000289455);
    }
    sun
    {
        type            calculated;
        value           uniform 0;
    }
    heatsource1
    {
        type            calculated;
        value           nonuniform List<scalar> 3(2.04262e-07 2.04197e-07 2.04214e-07);
    }
    heatsource2
    {
        type            calculated;
        value           nonuniform List<scalar> 4(5.11994e-08 5.12934e-08 0 0);
    }
    Table_master
    {
        type            calculated;
        value           nonuniform List<scalar> 9(-1.53188e-07 -1.53275e-07 -1.53307e-07 -1.53328e-07 -1.53344e-07 -1.53355e-07 -1.5336e-07 -1.53356e-07 -1.53327e-07);
    }
    Table_slave
    {
        type            calculated;
        value           nonuniform List<scalar> 9(1.53066e-07 1.53082e-07 1.53059e-07 1.5304e-07 1.53031e-07 1.53035e-07 1.53048e-07 1.5309e-07 1.53172e-07);
    }
    inlet
    {
        type            calculated;
        value           uniform -0.00662081;
    }
    outlet
    {
        type            calculated;
        value           nonuniform List<scalar> 2(8.17026e-05 0.0110594);
    }
}


// ************************************************************************* //
