/*--------------------------------*- C++ -*----------------------------------*\
  =========                 |
  \\      /  F ield         | OpenFOAM: The Open Source CFD Toolbox
   \\    /   O peration     | Website:  https://openfoam.org
    \\  /    A nd           | Version:  6
     \\/     M anipulation  |
\*---------------------------------------------------------------------------*/
FoamFile
{
    version     2.0;
    format      ascii;
    class       volScalarField;
    location    "600";
    object      nut;
}
// * * * * * * * * * * * * * * * * * * * * * * * * * * * * * * * * * * * * * //

dimensions      [0 2 -1 0 0 0 0];

internalField   nonuniform List<scalar> 
459
(
0.00121207
0.00133672
0.001378
0.00145209
0.00152516
0.00160159
0.00166769
0.0017096
0.00171822
0.00168794
0.00160951
0.001445
0.00128885
0.00111377
0.000950491
0.000532723
0.000624595
0.000732017
0.000794307
0.000802172
0.000782873
0.000734364
0.000682267
0.000635247
0.000594237
0.000558565
0.000527446
0.000500035
0.000475763
0.000453693
0.000432637
0.000410903
0.000389576
0.00035269
0.00159769
0.00408013
0.00399389
0.00463896
0.00527377
0.00577688
0.0061958
0.00655382
0.00681808
0.00695994
0.00693323
0.00665007
0.00610097
0.00502389
0.00334277
0.00115867
0.000929394
0.00052359
0.00130144
0.00208498
0.00273986
0.00313979
0.0030973
0.00216886
0.00179044
0.00154625
0.00137041
0.00123733
0.00113308
0.00105009
0.000973389
0.00089243
0.000814577
0.000745617
0.000794977
0.000410309
0.0019126
0.00553269
0.00493202
0.00572854
0.00611451
0.00640685
0.00668767
0.00699597
0.00732966
0.00765388
0.00786978
0.00786512
0.00762326
0.00705367
0.00579464
0.00374931
0.00113266
0.000696386
0.00138102
0.00226425
0.00322388
0.0039146
0.00375836
0.00100391
0.000872112
0.00076589
0.000681046
0.000612959
0.00055783
0.000512807
0.000476684
0.000449754
0.000505644
0.000604863
0.000911892
0.000450256
0.00220953
0.00687636
0.00505765
0.00591223
0.00604899
0.00616396
0.00632677
0.00658547
0.00696097
0.00739958
0.00773439
0.00788762
0.00785124
0.0075997
0.00693884
0.00561189
0.00302848
0.00127361
0.00151147
0.00221996
0.00329172
0.00438623
0.00512691
0.00478832
0.00114219
0.00103362
0.000950536
0.000883003
0.000824527
0.000769868
0.000715605
0.000658972
0.000595394
0.000545934
0.000589885
0.00104193
0.000481702
0.00250912
0.00856886
0.00555602
0.00603218
0.00611142
0.00607748
0.00611374
0.00632345
0.00671962
0.0071787
0.00754773
0.00772705
0.00771787
0.00757138
0.00725841
0.00662653
0.00546129
0.00477794
0.00510928
0.00571911
0.00640141
0.00693831
0.00718903
0.00695499
0.00564948
0.00494754
0.00448256
0.00406911
0.003622
0.00313663
0.00261688
0.00207719
0.00154468
0.00108629
0.000840462
0.0010115
0.000607311
0.000573034
0.000692809
0.000779247
0.00282574
0.010448
0.00735251
0.00661864
0.00657333
0.00628276
0.00614247
0.00628054
0.00668011
0.00717241
0.00755626
0.0077103
0.00765867
0.00753436
0.00745683
0.0074248
0.00732341
0.00750026
0.00805515
0.00852463
0.00880852
0.00886895
0.00870559
0.00830489
0.00761347
0.00694709
0.0063365
0.00572819
0.00510265
0.00444798
0.0037614
0.0030504
0.00234396
0.00170798
0.00128686
0.00111466
0.00084223
0.000737867
0.00106282
0.000815272
0.00310497
0.0117158
0.00987412
0.00818949
0.00729411
0.00653122
0.00621547
0.00635814
0.00682746
0.0073845
0.00778416
0.00790578
0.00783448
0.00783507
0.00814802
0.00862262
0.00906191
0.00954302
0.00999233
0.0101562
0.010067
0.0097684
0.00930764
0.00871852
0.00801976
0.0073245
0.00665635
0.00600856
0.00536425
0.0047279
0.00410263
0.00347886
0.00285704
0.00225943
0.00181254
0.00150823
0.00125796
0.00121366
0.00125805
0.000953082
0.00315624
0.0100796
0.00912052
0.00794592
0.00679532
0.00613367
0.00606504
0.00648834
0.00718069
0.00783941
0.00821752
0.00827564
0.00826163
0.00869546
0.00939597
0.00988731
0.0102557
0.0105492
0.0106804
0.0105366
0.0101412
0.00956068
0.00885432
0.00806748
0.00724852
0.00646898
0.00574724
0.00508128
0.0044991
0.00403
0.00367039
0.00335982
0.00303749
0.00268318
0.00245736
0.00240543
0.00258078
0.00304925
0.00374997
0.0014561
0.00307433
0.00362694
0.00397706
0.00407125
0.00431149
0.00493516
0.0058935
0.00700484
0.00800363
0.00859857
0.00869722
0.00865747
0.0090363
0.00956593
0.00998129
0.0102102
0.0103213
0.0103051
0.0100936
0.00964862
0.00899956
0.00820406
0.00731705
0.00639838
0.00551175
0.00469905
0.00398768
0.00340091
0.00295015
0.00263249
0.00242545
0.00230056
0.00222904
0.0021962
0.00219676
0.00221277
0.00219409
0.00209867
0.00195643
0.00136325
0.00147148
0.00300912
0.0057218
0.00764889
0.00885591
0.00947661
0.00960114
0.00927646
0.00879638
0.00866478
0.00891635
0.00914212
0.00921334
0.00917329
0.00902682
0.0087246
0.00822759
0.00754767
0.00674633
0.00590468
0.00509569
0.00437089
0.00375421
0.00324847
0.00285118
0.00255714
0.00235529
0.00223116
0.00216961
0.00215677
0.00217975
0.00222591
0.00227837
0.00231017
0.00228955
0.00221802
0.0020497
0.00116226
0.00197538
0.00595561
0.00826973
0.00912151
0.00905162
0.00853274
0.0078762
0.00732756
0.00699346
0.00683491
0.00673655
0.006627
0.00651024
0.00636936
0.0061608
0.00584576
0.00542081
0.00492602
0.00442482
0.00397197
0.00359451
0.00329351
0.00305576
0.00286452
0.00270547
0.002569
0.00245176
0.00235708
0.00229281
0.00226679
0.00228123
0.0023273
0.00238362
0.00242989
0.00239741
0.00244516
0.00249961
0.00119076
0.00193255
0.00191543
0.00195017
0.00208498
0.00193509
0.00182211
0.00171486
0.00158716
0.00145458
0.00133642
0.00124418
0.00118067
0.00113883
0.00110977
0.00108636
0.00106319
0.00103665
0.00100542
0.000970753
0.000935574
0.000902842
0.000874352
0.000850516
0.000830886
0.000814884
0.000802383
0.00079401
0.000791085
0.000795304
0.000808278
0.00083118
0.000864699
0.000909166
0.00096426
0.00102842
0.00110218
0.00111546
0.00107193
0.00101602
0.000954195
)
;

boundaryField
{
    floor
    {
        type            nutkWallFunction;
        Cmu             0.09;
        kappa           0.41;
        E               9.8;
        value           nonuniform List<scalar> 
29
(
0.000114885
6.38797e-05
7.54154e-05
8.86472e-05
9.62131e-05
9.7164e-05
9.48312e-05
8.89359e-05
8.25527e-05
7.67413e-05
7.163e-05
6.71492e-05
6.32115e-05
5.97192e-05
5.66071e-05
5.37599e-05
5.10273e-05
4.8189e-05
4.53849e-05
4.04879e-05
4.04878e-05
4.8108e-05
5.33099e-05
5.73638e-05
0.000114885
6.38796e-05
6.27195e-05
8.42748e-05
0.000152452
)
;
    }
    ceiling
    {
        type            nutkWallFunction;
        Cmu             0.09;
        kappa           0.41;
        E               9.8;
        value           nonuniform List<scalar> 
43
(
0.000226018
0.000224063
0.00022785
0.000242627
0.000226346
0.000213963
0.000202124
0.000187918
0.000173035
0.000159646
0.000149103
0.000141794
0.000136955
0.000133582
0.000130857
0.000128154
0.000125048
0.000121381
0.000117296
0.000113133
0.000109242
0.000105843
0.000102989
0.000100631
9.87038e-05
9.7195e-05
9.61822e-05
9.5827e-05
9.63352e-05
9.78998e-05
0.000100656
0.000104675
0.000109979
0.000116511
0.000124063
0.000132681
0.000134225
0.000129154
0.000122606
0.00011532
0.000347849
0.000404925
0.000230438
)
;
    }
    sWall
    {
        type            nutkWallFunction;
        Cmu             0.09;
        kappa           0.41;
        E               9.8;
        value           uniform 0.000226077;
    }
    nWall
    {
        type            nutkWallFunction;
        Cmu             0.09;
        kappa           0.41;
        E               9.8;
        value           nonuniform List<scalar> 6(9.43821e-05 9.87354e-05 0.000115188 0.000139667 0.00014296 0.000115325);
    }
    sideWalls
    {
        type            empty;
    }
    glass1
    {
        type            nutkWallFunction;
        Cmu             0.09;
        kappa           0.41;
        E               9.8;
        value           nonuniform List<scalar> 9(0.000145548 0.000189338 0.000224219 0.000256538 0.000288681 0.000322213 0.000351461 0.000356812 0.000348293);
    }
    glass2
    {
        type            nutkWallFunction;
        Cmu             0.09;
        kappa           0.41;
        E               9.8;
        value           nonuniform List<scalar> 2(0.000173266 0.00016275);
    }
    sun
    {
        type            nutkWallFunction;
        Cmu             0.09;
        kappa           0.41;
        E               9.8;
        value           nonuniform List<scalar> 
14
(
0.000145401
0.000159666
0.000164358
0.000172742
0.000180964
0.000189517
0.000196878
0.000201529
0.000202482
0.000199122
0.000190388
0.000171936
0.0001542
0.000134028
)
;
    }
    heatsource1
    {
        type            nutkWallFunction;
        Cmu             0.09;
        kappa           0.41;
        E               9.8;
        value           nonuniform List<scalar> 3(6.89626e-05 8.38392e-05 9.43821e-05);
    }
    heatsource2
    {
        type            nutkWallFunction;
        Cmu             0.09;
        kappa           0.41;
        E               9.8;
        value           nonuniform List<scalar> 4(0.000139226 0.000112382 0.000112382 0.00013621);
    }
    Table_master
    {
        type            nutkWallFunction;
        Cmu             0.09;
        kappa           0.41;
        E               9.8;
        value           nonuniform List<scalar> 9(0.000121188 0.000105564 9.27713e-05 8.24025e-05 7.39698e-05 6.70588e-05 6.13527e-05 5.67299e-05 5.32552e-05);
    }
    Table_slave
    {
        type            nutkWallFunction;
        Cmu             0.09;
        kappa           0.41;
        E               9.8;
        value           nonuniform List<scalar> 9(0.000137332 0.000124679 0.000114893 0.000106866 9.9857e-05 9.32528e-05 8.66414e-05 7.96771e-05 7.17721e-05);
    }
    inlet
    {
        type            calculated;
        value           uniform 0.000100623;
    }
    outlet
    {
        type            calculated;
        value           nonuniform List<scalar> 2(0.00193255 0.00191543);
    }
}


// ************************************************************************* //
