// -*- C++ -*-
// File generated by PyFoam - sorry for the ugliness

FoamFile
{
 version 2.0;
 format ascii;
 class volVectorField;
 location "600";
 object U;
}

dimensions [ 0 1 -1 0 0 0 0 ];

internalField nonuniform List<vector> 459
(
  (0.0207487 0.089693 0)
  (-0.177376 0.027819 0)
  (-0.207673 0.0150149 0)
  (-0.235933 0.00514571 0)
  (-0.248538 -0.00549249 0)
  (-0.2427 -0.0167819 0)
  (-0.218251 -0.0287093 0)
  (-0.177574 -0.0392812 0)
  (-0.126322 -0.046229 0)
  (-0.0720529 -0.0483096 0)
  (-0.0206307 -0.0441198 0)
  (0.0256653 -0.0278681 0)
  (0.0462605 -0.0131505 0)
  (0.0515797 0.00407117 0)
  (0.0369478 0.0332234 0)
  (-0.0207357 0.0140298 0)
  (-0.0431185 -0.0132157 0)
  (-0.0207029 -0.0273735 0)
  (0.00467138 -0.0279413 0)
  (0.0286779 -0.0214996 0)
  (0.0478615 -0.0151039 0)
  (0.0610578 -0.00876394 0)
  (0.0686507 -0.00530554 0)
  (0.0722433 -0.00394953 0)
  (0.0740241 -0.00337674 0)
  (0.0752112 -0.00300571 0)
  (0.0760683 -0.00269596 0)
  (0.0765198 -0.00235812 0)
  (0.0762849 -0.00177585 0)
  (0.0746937 -0.000521444 0)
  (0.0703331 0.00201895 0)
  (0.0615917 0.0051865 0)
  (0.0492353 0.0093907 0)
  (0.00445943 0.0245233 0)
  (0.188978 0.184828 0)
  (-0.160521 0.0776701 0)
  (-0.167048 0.0541793 0)
  (-0.196986 0.0333811 0)
  (-0.210578 0.00931093 0)
  (-0.206066 -0.017878 0)
  (-0.183686 -0.0454834 0)
  (-0.147169 -0.0678511 0)
  (-0.102832 -0.0802096 0)
  (-0.0574703 -0.0813762 0)
  (-0.0165007 -0.0711191 0)
  (0.018989 -0.0477183 0)
  (0.0410127 -0.0221611 0)
  (0.0561834 0.00560026 0)
  (0.0634848 0.0351537 0)
  (0.0662644 0.0375755 0)
  (0.0453143 0.041222 0)
  (0.0388274 0.0451514 0)
  (0.00663921 -0.0176117 0)
  (0.0259931 -0.0390767 0)
  (0.0399824 -0.0389195 0)
  (0.0531254 -0.0317123 0)
  (0.0641 -0.022387 0)
  (0.069521 -0.010252 0)
  (0.0709694 -0.00299608 0)
  (0.0710482 -0.000177273 0)
  (0.0712447 0.000900698 0)
  (0.0715935 0.00148409 0)
  (0.0718619 0.00191675 0)
  (0.0719987 0.00247783 0)
  (0.0719296 0.00358471 0)
  (0.0710862 0.00620434 0)
  (0.0668817 0.0130685 0)
  (0.056512 0.0196791 0)
  (0.046067 0.0266909 0)
  (-0.0299662 0.0511773 0)
  (0.343557 0.276158 0)
  (-0.170053 0.121612 0)
  (-0.126457 0.0867814 0)
  (-0.156165 0.0514935 0)
  (-0.169013 0.0116616 0)
  (-0.163193 -0.0324128 0)
  (-0.140033 -0.0755972 0)
  (-0.105801 -0.108031 0)
  (-0.0678148 -0.122976 0)
  (-0.0311593 -0.120648 0)
  (0.000783414 -0.102477 0)
  (0.0264772 -0.0727516 0)
  (0.0456722 -0.0399384 0)
  (0.0597808 -0.00672683 0)
  (0.068474 0.024181 0)
  (0.0680694 0.0431096 0)
  (0.0582814 0.0770034 0)
  (0.102723 -0.00116497 0)
  (0.0733126 -0.0335976 0)
  (0.0709626 -0.0467061 0)
  (0.0738775 -0.046566 0)
  (0.0769838 -0.0395479 0)
  (0.0806439 -0.0316595 0)
  (0.0800626 -0.0241226 0)
  (0.0718114 -0.0158427 0)
  (0.0654887 -0.0113599 0)
  (0.0626207 -0.00883921 0)
  (0.0613163 -0.00722678 0)
  (0.0604478 -0.00612309 0)
  (0.0599032 -0.00523117 0)
  (0.0603227 -0.00398381 0)
  (0.0631601 -0.000115 0)
  (0.0610711 0.0182809 0)
  (0.0481008 0.031593 0)
  (0.0454864 0.043176 0)
  (-0.0642036 0.0774312 0)
  (0.484727 0.349521 0)
  (-0.197482 0.159818 0)
  (-0.0840409 0.115871 0)
  (-0.112548 0.0686442 0)
  (-0.121454 0.0144438 0)
  (-0.108581 -0.0471549 0)
  (-0.0823588 -0.105059 0)
  (-0.0510972 -0.144453 0)
  (-0.0216912 -0.158931 0)
  (0.00490897 -0.151662 0)
  (0.025812 -0.127545 0)
  (0.0426393 -0.0933008 0)
  (0.0562328 -0.0554331 0)
  (0.0673155 -0.0182317 0)
  (0.0775498 0.015795 0)
  (0.0893549 0.043396 0)
  (0.107029 0.0759563 0)
  (0.137181 0.0688383 0)
  (0.128911 0.00952127 0)
  (0.113631 -0.0240564 0)
  (0.102901 -0.0386575 0)
  (0.0942733 -0.0412498 0)
  (0.086821 -0.0365027 0)
  (0.080587 -0.0274921 0)
  (0.0800895 -0.0159389 0)
  (0.0862647 -0.0100739 0)
  (0.0901426 -0.00676733 0)
  (0.0904006 -0.00458844 0)
  (0.0883636 -0.00274061 0)
  (0.0845856 -0.000881068 0)
  (0.0785666 0.00129938 0)
  (0.0691426 0.00427197 0)
  (0.0526021 0.00887198 0)
  (0.0407668 0.0296993 0)
  (0.0313588 0.0457611 0)
  (0.0456471 0.0599092 0)
  (-0.101305 0.0982893 0)
  (0.609268 0.405802 0)
  (-0.234567 0.189842 0)
  (-0.0419361 0.133906 0)
  (-0.0664231 0.0795613 0)
  (-0.0665615 0.01345 0)
  (-0.0371171 -0.0670377 0)
  (-0.00886111 -0.133751 0)
  (0.0160546 -0.173325 0)
  (0.0333116 -0.182172 0)
  (0.0460604 -0.169876 0)
  (0.0548638 -0.142056 0)
  (0.0611174 -0.104826 0)
  (0.0659647 -0.0647293 0)
  (0.0707082 -0.0267897 0)
  (0.0774048 0.00593127 0)
  (0.087046 0.0299651 0)
  (0.102664 0.0409578 0)
  (0.114509 0.0144089 0)
  (0.113191 -0.0121185 0)
  (0.105587 -0.0257471 0)
  (0.0950671 -0.0315723 0)
  (0.0839465 -0.0319895 0)
  (0.0737131 -0.0279475 0)
  (0.065503 -0.0201938 0)
  (0.0613446 -0.00892883 0)
  (0.0608303 -0.00221652 0)
  (0.0603073 0.00104548 0)
  (0.0589419 0.00308387 0)
  (0.0573469 0.00508882 0)
  (0.0554295 0.00764863 0)
  (0.0526874 0.0112255 0)
  (0.0485856 0.0163425 0)
  (0.0419945 0.0237077 0)
  (0.0353775 0.0379815 0)
  (0.0276294 0.0543858 0)
  (0.0531978 0.0733495 0)
  (-0.0250346 0.10655 0)
  (0.0450705 0.0310524 0)
  (-0.0601811 -0.0333649 0)
  (-0.266709 -0.0554357 0)
  (0.704071 0.451314 0)
  (-0.273657 0.208193 0)
  (-0.00671265 0.131274 0)
  (-0.0146569 0.0789884 0)
  (0.0153216 -0.00789727 0)
  (0.0521099 -0.0967697 0)
  (0.0761053 -0.157392 0)
  (0.0888019 -0.187584 0)
  (0.0922501 -0.190907 0)
  (0.0895391 -0.173914 0)
  (0.0832228 -0.143094 0)
  (0.0755691 -0.104449 0)
  (0.0685771 -0.0643283 0)
  (0.0638668 -0.028008 0)
  (0.0628592 0.00104204 0)
  (0.0663475 0.020033 0)
  (0.0752402 0.0253994 0)
  (0.081886 0.0124035 0)
  (0.0814071 -0.00222546 0)
  (0.0749761 -0.0131244 0)
  (0.0653182 -0.0192089 0)
  (0.0548901 -0.020671 0)
  (0.0450925 -0.0182487 0)
  (0.0370178 -0.012844 0)
  (0.0318093 -0.00576562 0)
  (0.0294717 -0.00112641 0)
  (0.0284507 0.00120489 0)
  (0.0283465 0.0026872 0)
  (0.0288858 0.00446412 0)
  (0.0298749 0.0072798 0)
  (0.0310253 0.0116719 0)
  (0.0321797 0.0180992 0)
  (0.0330062 0.0268784 0)
  (0.0346437 0.0389908 0)
  (0.0350753 0.0538584 0)
  (0.0616624 0.0744557 0)
  (0.043181 0.0945962 0)
  (0.0882978 0.0642155 0)
  (0.112842 0.0425102 0)
  (-0.128344 -0.0068161 0)
  (0.771248 0.492018 0)
  (-0.293305 0.189972 0)
  (0.0312614 0.0729735 0)
  (0.0622134 0.0298217 0)
  (0.120071 -0.0551792 0)
  (0.154002 -0.127793 0)
  (0.167895 -0.172638 0)
  (0.165126 -0.189569 0)
  (0.149925 -0.183315 0)
  (0.127284 -0.16049 0)
  (0.102045 -0.127542 0)
  (0.0776387 -0.089353 0)
  (0.0569641 -0.0515312 0)
  (0.0416962 -0.0190194 0)
  (0.0324767 0.00466873 0)
  (0.0317744 0.0175437 0)
  (0.0364634 0.0199892 0)
  (0.0400892 0.0122671 0)
  (0.0390133 0.0020927 0)
  (0.0343611 -0.00602794 0)
  (0.0266632 -0.0105281 0)
  (0.0179371 -0.0115903 0)
  (0.00954187 -0.00993595 0)
  (0.00260639 -0.00644178 0)
  (-0.00187885 -0.00232875 0)
  (-0.00370832 0.000160922 0)
  (-0.00359239 0.00108009 0)
  (-0.00215135 0.00147557 0)
  (0.00046126 0.00239946 0)
  (0.00420108 0.00460664 0)
  (0.00900224 0.00853325 0)
  (0.0149434 0.0144315 0)
  (0.021949 0.0224251 0)
  (0.0309625 0.0323638 0)
  (0.0401352 0.0436446 0)
  (0.064339 0.0597736 0)
  (0.0785592 0.0680382 0)
  (0.113146 0.0454818 0)
  (0.153746 0.0391128 0)
  (-0.0339933 0.0887705 0)
  (0.881295 0.486094 0)
  (-0.0390682 0.165229 0)
  (0.125756 -0.0169823 0)
  (0.229966 -0.0865712 0)
  (0.272785 -0.126514 0)
  (0.280115 -0.156574 0)
  (0.265601 -0.171723 0)
  (0.234257 -0.169783 0)
  (0.191506 -0.152871 0)
  (0.14367 -0.12551 0)
  (0.0971519 -0.0929254 0)
  (0.0555379 -0.0581987 0)
  (0.0229727 -0.0260749 0)
  (0.000222921 -0.00121922 0)
  (-0.00947553 0.0119322 0)
  (-0.00987139 0.0170586 0)
  (-0.00675001 0.016803 0)
  (-0.00445755 0.011513 0)
  (-0.00549916 0.00474404 0)
  (-0.00927058 -0.000589111 0)
  (-0.0150129 -0.00343425 0)
  (-0.0217187 -0.00406961 0)
  (-0.0280265 -0.00319412 0)
  (-0.0330343 -0.00157028 0)
  (-0.0361268 -0.000117664 0)
  (-0.0371698 0.000259744 0)
  (-0.036802 -0.000335858 0)
  (-0.0355644 -0.0013612 0)
  (-0.0332354 -0.00219724 0)
  (-0.0294072 -0.00221996 0)
  (-0.0235355 -0.000924144 0)
  (-0.0156982 0.00183954 0)
  (-0.00666838 0.00581945 0)
  (0.00609079 0.0105986 0)
  (0.0183127 0.0147348 0)
  (0.0376602 0.0209804 0)
  (0.0553137 0.0158928 0)
  (0.0729226 -0.00801691 0)
  (0.130801 0.0406094 0)
  (-0.418291 0.201968 0)
  (1.03546 0.428018 0)
  (0.497093 0.281112 0)
  (0.508849 0.16876 0)
  (0.527436 0.0646319 0)
  (0.48028 -0.0168893 0)
  (0.409194 -0.0723529 0)
  (0.333458 -0.0999518 0)
  (0.256302 -0.103925 0)
  (0.180111 -0.09078 0)
  (0.108378 -0.0674842 0)
  (0.046534 -0.0403263 0)
  (-0.00633451 -0.0122012 0)
  (-0.0371906 0.00501699 0)
  (-0.0495186 0.0121878 0)
  (-0.0527198 0.0150264 0)
  (-0.0517481 0.0156616 0)
  (-0.0493274 0.0144158 0)
  (-0.0478618 0.0112036 0)
  (-0.0486841 0.00731809 0)
  (-0.0515977 0.00409398 0)
  (-0.0557282 0.00214112 0)
  (-0.0601847 0.00128907 0)
  (-0.0643634 0.00109068 0)
  (-0.0677228 0.00104252 0)
  (-0.070084 0.000673538 0)
  (-0.0719023 -0.00027441 0)
  (-0.0737229 -0.00157517 0)
  (-0.0760472 -0.00275826 0)
  (-0.079455 -0.00324513 0)
  (-0.0843493 -0.0023645 0)
  (-0.0909879 0.000523882 0)
  (-0.0993867 0.00587026 0)
  (-0.110405 0.0139757 0)
  (-0.126572 0.0252609 0)
  (-0.150895 0.0397028 0)
  (-0.185227 0.0560063 0)
  (-0.232704 0.0700952 0)
  (-0.286963 0.0785443 0)
  (-0.351064 0.0814568 0)
  (-0.598475 0.0800639 0)
  (-0.0734528 0.0438058 0)
  (0.103727 -0.0270467 0)
  (0.170955 -0.0778222 0)
  (0.143695 -0.0782392 0)
  (0.10401 -0.0625577 0)
  (0.0586758 -0.0426429 0)
  (0.00821149 -0.0192464 0)
  (-0.0421433 0.0018034 0)
  (-0.0727318 0.0125036 0)
  (-0.0884024 0.0167896 0)
  (-0.0936339 0.0170969 0)
  (-0.094341 0.0165222 0)
  (-0.0928472 0.0160593 0)
  (-0.0903989 0.0156702 0)
  (-0.0879761 0.0150184 0)
  (-0.0865964 0.0138585 0)
  (-0.0867927 0.0125799 0)
  (-0.0883742 0.0117231 0)
  (-0.0907487 0.0115917 0)
  (-0.0932992 0.0121187 0)
  (-0.0956111 0.0130101 0)
  (-0.097511 0.0139205 0)
  (-0.099086 0.0145571 0)
  (-0.100623 0.0147362 0)
  (-0.1024 0.0144618 0)
  (-0.104572 0.0139139 0)
  (-0.107173 0.0134709 0)
  (-0.110131 0.0137541 0)
  (-0.113311 0.0156311 0)
  (-0.116522 0.0201332 0)
  (-0.119592 0.0282689 0)
  (-0.122526 0.040635 0)
  (-0.125545 0.0566509 0)
  (-0.128577 0.07329 0)
  (-0.12849 0.0822356 0)
  (-0.107051 0.0652685 0)
  (-0.0376554 -0.0171777 0)
  (-0.261505 -0.198013 0)
  (0.0722889 0.192745 0)
  (0.0333064 0.0378426 0)
  (-0.00128353 -0.0238142 0)
  (-0.0468457 -0.024135 0)
  (-0.0867908 -0.013008 0)
  (-0.117056 -0.0046481 0)
  (-0.135598 0.000957706 0)
  (-0.141924 0.00245689 0)
  (-0.1428 0.000997897 0)
  (-0.140097 -0.00121351 0)
  (-0.1357 -0.00394188 0)
  (-0.131015 -0.00652597 0)
  (-0.12642 -0.00863796 0)
  (-0.122038 -0.0105395 0)
  (-0.118094 -0.01278 0)
  (-0.114948 -0.0158195 0)
  (-0.112832 -0.0196962 0)
  (-0.111678 -0.0241333 0)
  (-0.111204 -0.0287248 0)
  (-0.111076 -0.0331048 0)
  (-0.111048 -0.0370225 0)
  (-0.111015 -0.040316 0)
  (-0.110995 -0.0428347 0)
  (-0.111068 -0.0443496 0)
  (-0.111267 -0.0444871 0)
  (-0.11151 -0.0428012 0)
  (-0.111559 -0.038912 0)
  (-0.110991 -0.0325978 0)
  (-0.10916 -0.0237857 0)
  (-0.105144 -0.0124061 0)
  (-0.097816 0.00175855 0)
  (-0.0861572 0.0188308 0)
  (-0.0696771 0.0376693 0)
  (-0.0487467 0.0537472 0)
  (-0.0266398 0.0608959 0)
  (0.0166204 0.0376066 0)
  (0.141024 -0.0254073 0)
  (-0.195025 -0.100785 0)
  (0.921421 0.0264236 0)
  (-0.478251 -0.476201 0)
  (-0.329569 0.0712878 0)
  (-0.278388 0.00821859 0)
  (-0.239127 0.013659 0)
  (-0.234794 0.0255587 0)
  (-0.232333 0.0343766 0)
  (-0.226937 0.0421967 0)
  (-0.217903 0.0493819 0)
  (-0.206458 0.0552446 0)
  (-0.194705 0.0599117 0)
  (-0.183753 0.0640409 0)
  (-0.174113 0.067981 0)
  (-0.165675 0.072091 0)
  (-0.157964 0.0766263 0)
  (-0.15055 0.0818065 0)
  (-0.143254 0.0878161 0)
  (-0.136153 0.0947109 0)
  (-0.129428 0.10233 0)
  (-0.123214 0.110282 0)
  (-0.117552 0.118035 0)
  (-0.112413 0.125089 0)
  (-0.107734 0.131089 0)
  (-0.10346 0.135819 0)
  (-0.0995644 0.139103 0)
  (-0.0960458 0.140697 0)
  (-0.0928884 0.140271 0)
  (-0.0900055 0.137524 0)
  (-0.0871721 0.132371 0)
  (-0.083909 0.125123 0)
  (-0.0792616 0.116581 0)
  (-0.0715849 0.107997 0)
  (-0.0588029 0.100954 0)
  (-0.0396816 0.097109 0)
  (-0.0149714 0.0973168 0)
  (0.0270499 0.0983206 0)
  (0.0601405 0.0959527 0)
  (0.0932874 0.0884705 0)
  (0.157592 0.0699109 0)
  (-0.257733 0.0355048 0)
)
;

boundaryField
{
  floor
  {
    type noSlip;
  }
  ceiling
  {
    type noSlip;
  }
  sWall
  {
    type noSlip;
  }
  nWall
  {
    type noSlip;
  }
  sideWalls
  {
    type empty;
  }
  glass1
  {
    type noSlip;
  }
  glass2
  {
    type noSlip;
  }
  sun
  {
    type noSlip;
  }
  heatsource1
  {
    type noSlip;
  }
  heatsource2
  {
    type noSlip;
  }
  Table_master
  {
    type noSlip;
  }
  Table_slave
  {
    type noSlip;
  }
  inlet
  {
    type fixedValue;
    value uniform (0.3 0 0);
  }
  outlet
  {
    type zeroGradient;
  }
} 	// ************************************************************************* //

