/*--------------------------------*- C++ -*----------------------------------*\
  =========                 |
  \\      /  F ield         | OpenFOAM: The Open Source CFD Toolbox
   \\    /   O peration     | Website:  https://openfoam.org
    \\  /    A nd           | Version:  6
     \\/     M anipulation  |
\*---------------------------------------------------------------------------*/
FoamFile
{
    version     2.0;
    format      ascii;
    class       volScalarField;
    location    "1200";
    object      alphat;
}
// * * * * * * * * * * * * * * * * * * * * * * * * * * * * * * * * * * * * * //

dimensions      [1 -1 -1 0 0 0 0];

internalField   nonuniform List<scalar> 
459
(
0.00123102
0.0013425
0.00136743
0.00143237
0.00149247
0.00154905
0.00160511
0.00165912
0.00169731
0.00171248
0.00169764
0.00164776
0.00156069
0.00143942
0.001298
0.000535943
0.00063975
0.000721683
0.000727116
0.000705853
0.000675715
0.000634381
0.00059232
0.000554035
0.000520097
0.000490091
0.000463478
0.000439833
0.000418671
0.000399234
0.000380559
0.000361326
0.000349874
0.000320903
0.00167706
0.00396068
0.00374264
0.00433975
0.00492376
0.00551104
0.00602513
0.00642268
0.00679361
0.00710374
0.00731003
0.00736711
0.00722026
0.00673962
0.00537861
0.00131978
0.000806861
0.00056021
0.00116986
0.00163214
0.00198005
0.00218381
0.00219392
0.00174296
0.00150005
0.00132697
0.00119452
0.00108964
0.00100452
0.000931924
0.000864436
0.000799352
0.000741832
0.000690849
0.000823612
0.000429168
0.00204814
0.0053726
0.00455702
0.00568084
0.00619464
0.00656933
0.00686355
0.00712093
0.00742068
0.00774594
0.00805883
0.00829981
0.00841596
0.00832413
0.00776745
0.0059752
0.0013518
0.00105651
0.00152793
0.00197878
0.00241379
0.002736
0.00270393
0.000901781
0.000798776
0.000714993
0.000646886
0.000591144
0.000545114
0.000506827
0.000474999
0.000449054
0.000483994
0.000556174
0.000929899
0.000502447
0.00240491
0.00688365
0.00449441
0.00593001
0.00631892
0.0064134
0.00649229
0.00663914
0.00689104
0.00722813
0.00761727
0.00797318
0.00823975
0.00834663
0.00823131
0.00760119
0.00515415
0.0015834
0.00189584
0.00240942
0.00296578
0.00345726
0.00379488
0.00361848
0.00102035
0.000935151
0.000874655
0.000828766
0.000789502
0.00075244
0.000716675
0.000678798
0.000634458
0.000595009
0.000598905
0.00108136
0.000560238
0.00276867
0.0088584
0.00486057
0.00564874
0.00618429
0.00612933
0.00607902
0.00619163
0.00643026
0.00677354
0.0072041
0.00759648
0.00787151
0.00797719
0.00791363
0.00765482
0.00700602
0.00592414
0.0055465
0.00547108
0.00550714
0.00555618
0.00555579
0.00538459
0.00460054
0.00422178
0.00400378
0.00383408
0.00365148
0.00338695
0.00301502
0.00255505
0.00204009
0.00152599
0.00112667
0.00110582
0.000759942
0.000692991
0.000834581
0.000936958
0.00315494
0.0110241
0.00670187
0.00545168
0.00596848
0.00613767
0.00597955
0.00609067
0.00629091
0.0066107
0.00702619
0.00743462
0.00770867
0.00776944
0.00763045
0.00738701
0.00714907
0.00698714
0.00697602
0.00698818
0.00694243
0.00683091
0.00665972
0.00641741
0.00605976
0.00574096
0.00545824
0.00518569
0.00490728
0.00460784
0.00422147
0.00372917
0.00313011
0.00246141
0.00185747
0.00136124
0.001049
0.00089977
0.00128199
0.000979782
0.00351809
0.0125891
0.00963937
0.00693277
0.0064477
0.00650172
0.00635787
0.00627655
0.00637155
0.00667172
0.00710732
0.00753499
0.00779588
0.00779847
0.00757688
0.00730213
0.00720624
0.00737182
0.00759488
0.00765752
0.0075273
0.00726197
0.00691298
0.00651596
0.00610543
0.0057348
0.00540338
0.00509845
0.00481713
0.00456485
0.00434086
0.00402714
0.00356755
0.00299481
0.00243307
0.00190996
0.00154441
0.00143949
0.0014776
0.00112154
0.00359482
0.01143
0.00990886
0.00876355
0.00805064
0.00731585
0.00668015
0.00640347
0.0065111
0.00691049
0.00743461
0.00788409
0.00808154
0.00796179
0.00762436
0.00734121
0.00738699
0.00768339
0.00780039
0.00762383
0.00724216
0.00674295
0.00620127
0.00568543
0.00524452
0.00488912
0.00459918
0.00435995
0.00417037
0.00403734
0.00396985
0.00394288
0.00372047
0.00335607
0.00302759
0.00286204
0.00299284
0.00347207
0.00425633
0.00174011
0.00350519
0.00419101
0.0047392
0.00491791
0.00494052
0.00504343
0.0053578
0.00591477
0.00666775
0.00746973
0.00813038
0.00848206
0.00840945
0.00797409
0.00747457
0.00733809
0.00736585
0.00733196
0.00707634
0.00660385
0.00600479
0.00537854
0.00481261
0.00435651
0.00401238
0.00375258
0.00354683
0.00337556
0.00322677
0.00309072
0.00295877
0.00283043
0.0027269
0.00265001
0.00262113
0.0026314
0.00261129
0.00249915
0.00233106
0.00162631
0.00217985
0.0038496
0.00526609
0.00644316
0.00739454
0.00824753
0.00892642
0.00927682
0.00923995
0.00883158
0.00810594
0.0072459
0.00668565
0.00646105
0.0062361
0.00585781
0.00533507
0.00474662
0.00417219
0.00368325
0.00331413
0.00305312
0.00287133
0.00274206
0.00264785
0.00257911
0.00253107
0.002502
0.00249514
0.00251378
0.00254248
0.00257782
0.00261079
0.0026123
0.00253606
0.00236845
0.00212505
0.00133378
0.00252728
0.00534323
0.00725723
0.00815599
0.00874786
0.00914491
0.00915508
0.00858624
0.00768349
0.00669599
0.00585538
0.00523756
0.00482374
0.00446594
0.00404497
0.00358199
0.00313931
0.00277014
0.00249791
0.00231282
0.00219016
0.00211321
0.00207473
0.00206544
0.00207975
0.00211399
0.00216469
0.00222693
0.00230729
0.00240292
0.00251101
0.00262414
0.0027246
0.00279185
0.00277066
0.00278834
0.00274595
0.00135565
0.00215822
0.00227298
0.00235786
0.0024245
0.00218908
0.002001
0.00190706
0.00181875
0.00169171
0.00153758
0.00135896
0.00118048
0.00102174
0.000895975
0.000805781
0.000743541
0.000700524
0.000671568
0.000654273
0.000647183
0.000648757
0.000657393
0.000671925
0.000691544
0.000715147
0.000742676
0.00077428
0.000810333
0.000851546
0.000899236
0.000952767
0.00101227
0.00107847
0.00115205
0.00123286
0.0013307
0.00136095
0.0013262
0.00124215
0.00115228
)
;

boundaryField
{
    floor
    {
        type            compressible::alphatWallFunction;
        Prt             0.85;
        value           nonuniform List<scalar> 
29
(
0.000183609
7.4721e-05
9.03029e-05
0.000102382
0.000103177
0.000100062
9.56271e-05
8.95052e-05
8.32255e-05
7.74615e-05
7.23107e-05
6.77217e-05
6.36218e-05
5.99542e-05
5.66505e-05
5.35972e-05
5.06454e-05
4.7586e-05
4.57543e-05
4.1085e-05
4.10844e-05
5.82921e-05
6.96158e-05
7.83993e-05
0.000183607
7.47201e-05
7.83941e-05
0.000150227
0.000222169
)
;
    }
    ceiling
    {
        type            compressible::alphatWallFunction;
        Prt             0.85;
        value           nonuniform List<scalar> 
43
(
0.000297538
0.000312321
0.000323205
0.000331837
0.000301687
0.000277334
0.00026508
0.000253496
0.000236714
0.00021616
0.000192048
0.000167591
0.000145481
0.000127679
0.000114732
0.000105697
9.93999e-05
9.51347e-05
9.25765e-05
9.15255e-05
9.1759e-05
9.3039e-05
9.51881e-05
9.80804e-05
0.000101547
0.000105573
0.000110172
0.000115392
0.000121325
0.000128148
0.000135756
0.000144154
0.00015343
0.000163664
0.000174817
0.000188211
0.000192329
0.000187598
0.000176095
0.0001637
0.000467206
0.000550625
0.000344682
)
;
    }
    sWall
    {
        type            compressible::alphatWallFunction;
        Prt             0.85;
        value           uniform 0.000296317;
    }
    nWall
    {
        type            compressible::alphatWallFunction;
        Prt             0.85;
        value           nonuniform List<scalar> 6(0.000133187 0.000139243 0.000159086 0.000188301 0.000191275 0.000163372);
    }
    sideWalls
    {
        type            empty;
    }
    glass1
    {
        type            compressible::alphatWallFunction;
        Prt             0.85;
        value           nonuniform List<scalar> 9(0.000170136 0.000229538 0.00027775 0.000323303 0.000369078 0.000417046 0.000461631 0.000471121 0.000460413);
    }
    glass2
    {
        type            compressible::alphatWallFunction;
        Prt             0.85;
        value           nonuniform List<scalar> 2(0.000241352 0.000226375);
    }
    sun
    {
        type            compressible::alphatWallFunction;
        Prt             0.85;
        value           nonuniform List<scalar> 
14
(
0.000174449
0.000189685
0.000193075
0.000201875
0.000209979
0.000217575
0.000225072
0.000232266
0.000237338
0.000239348
0.00023738
0.000230753
0.00021913
0.000202823
)
;
    }
    heatsource1
    {
        type            compressible::alphatWallFunction;
        Prt             0.85;
        value           nonuniform List<scalar> 3(9.82867e-05 0.00011888 0.000133507);
    }
    heatsource2
    {
        type            compressible::alphatWallFunction;
        Prt             0.85;
        value           nonuniform List<scalar> 4(0.000186714 0.000114883 0.000114882 0.000191075);
    }
    Table_master
    {
        type            compressible::alphatWallFunction;
        Prt             0.85;
        value           nonuniform List<scalar> 9(0.000128501 0.000113712 0.000101515 9.1473e-05 8.31577e-05 7.6218e-05 7.03901e-05 6.55032e-05 6.14888e-05);
    }
    Table_slave
    {
        type            compressible::alphatWallFunction;
        Prt             0.85;
        value           nonuniform List<scalar> 9(0.000145284 0.000133251 0.000124629 0.000118043 0.000112372 0.000106989 0.000101764 9.61959e-05 8.96291e-05);
    }
    inlet
    {
        type            fixedValue;
        value           uniform 1.94e-05;
    }
    outlet
    {
        type            zeroGradient;
    }
}


// ************************************************************************* //
