/*--------------------------------*- C++ -*----------------------------------*\
  =========                 |
  \\      /  F ield         | OpenFOAM: The Open Source CFD Toolbox
   \\    /   O peration     | Website:  https://openfoam.org
    \\  /    A nd           | Version:  6
     \\/     M anipulation  |
\*---------------------------------------------------------------------------*/
FoamFile
{
    version     2.0;
    format      ascii;
    class       volScalarField;
    location    "600";
    object      alphat;
}
// * * * * * * * * * * * * * * * * * * * * * * * * * * * * * * * * * * * * * //

dimensions      [1 -1 -1 0 0 0 0];

internalField   nonuniform List<scalar> 
459
(
0.00161131
0.00180232
0.00188313
0.00200382
0.00213808
0.0022561
0.00233419
0.00236136
0.00224388
0.00211473
0.00197366
0.00182122
0.00167479
0.00152846
0.00136326
0.000632893
0.000737423
0.000843319
0.000945478
0.00101102
0.00101334
0.000941777
0.000862842
0.000794325
0.000736324
0.000686762
0.000644129
0.000606127
0.000570098
0.000532331
0.000487658
0.000427448
0.00035651
0.0003282
0.00205726
0.00568631
0.00581465
0.00670772
0.00740187
0.00793561
0.00834347
0.0086971
0.00884045
0.00851116
0.00795091
0.0072272
0.00608847
0.0046536
0.00306294
0.00148209
0.00126766
0.000608869
0.00120783
0.00217968
0.00302795
0.00368464
0.00378038
0.00245859
0.00193786
0.00159011
0.00134274
0.00117158
0.00106613
0.000993972
0.000887455
0.000748518
0.000622052
0.000526822
0.000558006
0.000384927
0.00242703
0.00790101
0.00737116
0.00800282
0.00827522
0.00841994
0.0086327
0.00913058
0.00961167
0.00969643
0.00945062
0.00897925
0.00818151
0.00690439
0.00520649
0.00327331
0.00137607
0.000616398
0.00118418
0.00207825
0.0032608
0.00433077
0.00448626
0.00125558
0.00107687
0.000915631
0.000769179
0.00063279
0.000514765
0.000442347
0.000416419
0.000406159
0.000454161
0.00047189
0.000591926
0.00040664
0.00277973
0.00982809
0.00816642
0.00854096
0.00834884
0.00804694
0.00808516
0.0086856
0.00932507
0.0096484
0.00960944
0.009336
0.00885039
0.00799056
0.00665939
0.00486662
0.00260601
0.00142593
0.00131768
0.00175701
0.0028628
0.00435789
0.0056718
0.00578985
0.00147373
0.00135429
0.0012603
0.00118482
0.00111853
0.00105507
0.000990463
0.000921429
0.000842353
0.000659919
0.000523923
0.000594464
0.000439879
0.0031342
0.0120666
0.00958953
0.00946927
0.00864174
0.00783613
0.00780825
0.00843722
0.00917707
0.0095992
0.00962014
0.00939871
0.00905401
0.00851729
0.00763469
0.00634858
0.00472723
0.00393346
0.00406155
0.00489711
0.00616668
0.00745531
0.00840599
0.00869582
0.00758845
0.00687253
0.00639205
0.00587794
0.00530127
0.00467864
0.00401068
0.00328494
0.00249029
0.0016597
0.00108639
0.000841838
0.000627452
0.000512169
0.000555639
0.000672023
0.00349384
0.0144072
0.012302
0.0108268
0.00889167
0.00777664
0.00774991
0.00846526
0.00929951
0.00977278
0.00979672
0.00960411
0.00941907
0.00918486
0.00873144
0.00803871
0.00725558
0.00714508
0.00790273
0.00899264
0.0100089
0.010735
0.0110729
0.0109854
0.0104568
0.00982386
0.00910222
0.0083044
0.0074501
0.00655561
0.00562624
0.00465747
0.00364955
0.00265557
0.00191596
0.00148329
0.00123917
0.0012581
0.00139075
0.000845547
0.0037525
0.0155523
0.0145266
0.0111855
0.00865215
0.00756402
0.0077651
0.00870026
0.00966436
0.0101726
0.0102282
0.0102519
0.0104906
0.0105255
0.0103609
0.010143
0.0100744
0.0105713
0.0114722
0.012271
0.0127503
0.0128887
0.0126996
0.0122376
0.0115803
0.0108024
0.00994193
0.0090297
0.00807915
0.00710586
0.00612392
0.00514764
0.0041995
0.00330832
0.00270189
0.00239299
0.00230086
0.00237162
0.0024677
0.00108832
0.00377387
0.0122693
0.0111955
0.00871484
0.00717026
0.00698778
0.00786008
0.00918425
0.0102605
0.010764
0.0110457
0.0116132
0.011915
0.0119743
0.0119885
0.0120908
0.0123824
0.0129557
0.0135563
0.0139067
0.013888
0.0135569
0.0129651
0.0121961
0.0113337
0.0104437
0.00953105
0.00858757
0.00761067
0.00660123
0.0055616
0.00451379
0.00354568
0.00282251
0.00243544
0.00230093
0.00226127
0.00221185
0.00211349
0.00113366
0.00364643
0.00421488
0.00443621
0.00444795
0.00509971
0.00661889
0.00852092
0.0101446
0.0109778
0.0116216
0.0120682
0.0124535
0.0125444
0.0125845
0.0127178
0.0129612
0.0132852
0.0136062
0.013762
0.0136338
0.0132003
0.0125184
0.0116726
0.0107502
0.00982187
0.00891651
0.00802138
0.00711657
0.00619234
0.0052505
0.00431371
0.0034535
0.00278744
0.00237756
0.00216407
0.00204219
0.00192823
0.00179661
0.00164058
0.00130758
0.00121469
0.00324005
0.00734982
0.0100598
0.0114109
0.0118794
0.0115935
0.0116709
0.0117644
0.0117195
0.0116896
0.0117716
0.011942
0.0121322
0.0122581
0.0122252
0.0119655
0.0114677
0.0107787
0.00998032
0.00915445
0.00835956
0.00762098
0.0069328
0.00627783
0.00564657
0.00504068
0.00446875
0.00394241
0.00347351
0.00307265
0.00275211
0.00252266
0.00237145
0.0022595
0.00217574
0.00200642
0.00139074
0.00225837
0.00912252
0.0113978
0.0115555
0.0109179
0.010168
0.00958038
0.00918075
0.00890636
0.00877295
0.00877082
0.0088522
0.00896321
0.00905003
0.00905893
0.00894499
0.00869378
0.00832819
0.00789604
0.0074489
0.00702436
0.00663946
0.00629518
0.0059841
0.00569693
0.0054246
0.00515692
0.00488173
0.00458716
0.00426692
0.00392581
0.00358096
0.00325463
0.00296005
0.00269024
0.00272009
0.00308106
0.00155995
0.00215672
0.00231084
0.00241485
0.00265126
0.00240963
0.00220947
0.00204126
0.00189494
0.00179356
0.00173779
0.00171191
0.00170455
0.00170742
0.00171431
0.00172027
0.0017212
0.00171409
0.00169766
0.00167318
0.0016437
0.00161286
0.00158359
0.00155742
0.00153453
0.00151411
0.00149484
0.00147532
0.00145424
0.00143056
0.00140369
0.00137382
0.00134205
0.00131036
0.001281
0.00125524
0.00123135
0.00120526
0.00120733
0.00125096
0.00130797
)
;

boundaryField
{
    floor
    {
        type            compressible::alphatWallFunction;
        Prt             0.85;
        value           nonuniform List<scalar> 
29
(
0.000192518
8.93376e-05
0.000104728
0.00012005
0.000134625
0.000143877
0.000144207
0.000134096
0.000122841
0.000112974
0.000104543
9.72761e-05
9.09746e-05
8.53135e-05
7.9904e-05
7.41843e-05
6.73471e-05
5.80007e-05
4.68016e-05
4.23389e-05
4.23383e-05
5.14321e-05
5.48536e-05
6.00564e-05
0.000192516
8.93365e-05
8.57584e-05
8.68791e-05
0.000201012
)
;
    }
    ceiling
    {
        type            compressible::alphatWallFunction;
        Prt             0.85;
        value           nonuniform List<scalar> 
43
(
0.000297631
0.00031736
0.000330647
0.000360814
0.00033017
0.00030451
0.000282746
0.000263654
0.000250334
0.000242974
0.000239551
0.00023858
0.000238964
0.00023988
0.000240672
0.0002408
0.000239861
0.000237687
0.00023444
0.000230522
0.000226412
0.000222503
0.000219002
0.000215933
0.000213191
0.000210601
0.000207973
0.00020513
0.000201931
0.000198295
0.000194242
0.00018992
0.000185597
0.000181578
0.000178043
0.000174756
0.000171162
0.000171459
0.000177486
0.000185293
0.000484492
0.000553475
0.000310247
)
;
    }
    sWall
    {
        type            compressible::alphatWallFunction;
        Prt             0.85;
        value           uniform 0.000296558;
    }
    nWall
    {
        type            compressible::alphatWallFunction;
        Prt             0.85;
        value           nonuniform List<scalar> 6(9.4938e-05 0.000120313 0.000154663 0.000196263 0.000219093 0.000185024);
    }
    sideWalls
    {
        type            empty;
    }
    glass1
    {
        type            compressible::alphatWallFunction;
        Prt             0.85;
        value           nonuniform List<scalar> 9(0.000220685 0.000278644 0.000325778 0.000370102 0.000414116 0.00045829 0.000489832 0.000492575 0.00047735);
    }
    glass2
    {
        type            compressible::alphatWallFunction;
        Prt             0.85;
        value           nonuniform List<scalar> 2(0.000160296 0.000184413);
    }
    sun
    {
        type            compressible::alphatWallFunction;
        Prt             0.85;
        value           nonuniform List<scalar> 
14
(
0.000225909
0.000251217
0.00026184
0.000277616
0.000295045
0.000310265
0.000320288
0.000323763
0.000308691
0.000292023
0.000273689
0.000253716
0.000234358
0.000214824
)
;
    }
    heatsource1
    {
        type            compressible::alphatWallFunction;
        Prt             0.85;
        value           nonuniform List<scalar> 3(7.1243e-05 7.78405e-05 9.51241e-05);
    }
    heatsource2
    {
        type            compressible::alphatWallFunction;
        Prt             0.85;
        value           nonuniform List<scalar> 4(0.000208725 0.0001796 0.000179598 0.000194384);
    }
    Table_master
    {
        type            compressible::alphatWallFunction;
        Prt             0.85;
        value           nonuniform List<scalar> 9(0.000177898 0.000153161 0.000130427 0.000109361 8.93037e-05 7.153e-05 6.04084e-05 5.63747e-05 5.47612e-05);
    }
    Table_slave
    {
        type            compressible::alphatWallFunction;
        Prt             0.85;
        value           nonuniform List<scalar> 9(0.000207569 0.000191407 0.000178576 0.000168193 0.00015901 0.00015016 0.000141086 0.000131313 0.000120011);
    }
    inlet
    {
        type            fixedValue;
        value           uniform 1.94e-05;
    }
    outlet
    {
        type            zeroGradient;
    }
}


// ************************************************************************* //
