// -*- C++ -*-
// File generated by PyFoam - sorry for the ugliness

FoamFile
{
 version 2.0;
 format ascii;
 class volScalarField;
 location "500";
 object T;
}

dimensions [ 0 0 0 1 0 0 0 ];

internalField nonuniform List<scalar> 459
(
  303.582
  303.257
  303.251
  303.26
  303.268
  303.274
  303.279
  303.283
  303.287
  303.288
  303.287
  303.282
  303.273
  303.261
  303.246
  302.54
  302.531
  302.526
  302.519
  302.513
  302.512
  302.517
  302.531
  302.551
  302.575
  302.602
  302.633
  302.667
  302.711
  302.773
  302.853
  302.92
  302.911
  302.878
  303.827
  303.365
  303.328
  303.339
  303.354
  303.368
  303.38
  303.389
  303.397
  303.4
  303.397
  303.386
  303.365
  303.331
  303.283
  303.227
  303.087
  302.572
  302.622
  302.635
  302.64
  302.622
  302.541
  302.514
  302.534
  302.574
  302.623
  302.678
  302.739
  302.812
  302.906
  303.007
  303.097
  303.089
  303.003
  302.908
  304.05
  303.482
  303.413
  303.424
  303.448
  303.471
  303.492
  303.509
  303.523
  303.531
  303.53
  303.516
  303.486
  303.437
  303.366
  303.282
  303.204
  302.72
  302.848
  302.911
  302.965
  303.003
  302.989
  302.569
  302.583
  302.667
  302.769
  302.879
  302.99
  303.1
  303.21
  303.33
  303.449
  303.453
  303.446
  303.431
  304.254
  303.609
  303.507
  303.513
  303.546
  303.581
  303.614
  303.644
  303.668
  303.685
  303.689
  303.676
  303.643
  303.587
  303.504
  303.396
  303.268
  303.156
  303.08
  303.182
  303.278
  303.345
  303.393
  303.429
  303.458
  303.475
  303.496
  303.522
  303.553
  303.591
  303.633
  303.678
  303.717
  303.732
  303.76
  303.784
  303.837
  304.442
  303.747
  303.621
  303.611
  303.648
  303.694
  303.742
  303.787
  303.826
  303.854
  303.868
  303.863
  303.837
  303.79
  303.723
  303.642
  303.557
  303.485
  303.441
  303.454
  303.499
  303.537
  303.562
  303.581
  303.597
  303.613
  303.634
  303.66
  303.694
  303.733
  303.777
  303.822
  303.865
  303.902
  303.941
  303.977
  304.018
  304.032
  304.003
  303.984
  304.608
  303.906
  303.786
  303.75
  303.769
  303.818
  303.877
  303.935
  303.99
  304.032
  304.055
  304.059
  304.043
  304.005
  303.949
  303.879
  303.806
  303.743
  303.7
  303.684
  303.687
  303.694
  303.701
  303.707
  303.712
  303.72
  303.732
  303.751
  303.778
  303.815
  303.858
  303.906
  303.954
  303.997
  304.037
  304.069
  304.093
  304.1
  304.042
  303.992
  304.758
  304.124
  304.059
  304.014
  303.979
  303.997
  304.046
  304.104
  304.168
  304.216
  304.247
  304.26
  304.252
  304.226
  304.181
  304.121
  304.054
  303.991
  303.939
  303.905
  303.884
  303.871
  303.861
  303.852
  303.844
  303.838
  303.835
  303.838
  303.85
  303.872
  303.907
  303.951
  304
  304.046
  304.086
  304.117
  304.137
  304.142
  304.116
  303.996
  304.979
  304.519
  304.532
  304.487
  304.394
  304.342
  304.336
  304.355
  304.385
  304.421
  304.447
  304.462
  304.463
  304.449
  304.417
  304.369
  304.31
  304.25
  304.194
  304.147
  304.109
  304.078
  304.052
  304.029
  304.006
  303.985
  303.966
  303.95
  303.939
  303.937
  303.948
  303.973
  304.01
  304.056
  304.101
  304.14
  304.174
  304.206
  304.233
  304.27
  305.279
  305.106
  305.331
  305.227
  305.022
  304.872
  304.785
  304.739
  304.713
  304.695
  304.689
  304.689
  304.686
  304.676
  304.654
  304.62
  304.574
  304.521
  304.466
  304.412
  304.364
  304.32
  304.28
  304.242
  304.206
  304.171
  304.137
  304.104
  304.073
  304.046
  304.029
  304.021
  304.026
  304.04
  304.059
  304.078
  304.104
  304.134
  304.177
  304.3
  307.916
  305.88
  305.349
  305.166
  305.076
  305.027
  305
  304.985
  304.972
  304.962
  304.95
  304.934
  304.912
  304.881
  304.842
  304.796
  304.744
  304.69
  304.636
  304.584
  304.533
  304.485
  304.438
  304.392
  304.346
  304.3
  304.255
  304.211
  304.171
  304.136
  304.112
  304.099
  304.097
  304.105
  304.121
  304.144
  304.173
  304.217
  307.396
  306.224
  305.822
  305.598
  305.473
  305.402
  305.356
  305.325
  305.299
  305.273
  305.245
  305.215
  305.182
  305.145
  305.104
  305.057
  305.006
  304.952
  304.896
  304.84
  304.785
  304.73
  304.677
  304.624
  304.572
  304.519
  304.467
  304.414
  304.362
  304.311
  304.266
  304.231
  304.21
  304.202
  304.202
  304.208
  304.218
  304.248
  307.644
  307.525
  307.326
  306.85
  306.479
  306.226
  306.062
  305.947
  305.859
  305.786
  305.723
  305.663
  305.606
  305.551
  305.498
  305.444
  305.39
  305.336
  305.281
  305.226
  305.171
  305.116
  305.061
  305.006
  304.951
  304.897
  304.842
  304.787
  304.733
  304.678
  304.622
  304.565
  304.51
  304.46
  304.418
  304.381
  304.348
  304.317
  304.286
  304.283
)
;

boundaryField
{
  floor
  {
    type wallHeatTransfer;
    Tinf uniform 305.2;
    alphaWall uniform 0.24;
    value nonuniform List<scalar> 29
(
  303.501
  303.202
  303.088
  303.218
  303.279
  303.309
  303.332
  303.346
  303.348
  303.339
  303.328
  303.32
  303.317
  303.319
  303.322
  303.33
  303.351
  303.374
  303.368
  303.371
  303.371
  303.357
  303.69
  303.993
  303.501
  303.202
  303.102
  303.073
  303.367
)
;
  }
  ceiling
  {
    type wallHeatTransfer;
    Tinf uniform 303.2;
    alphaWall uniform 0.24;
    value nonuniform List<scalar> 43
(
  307.32
  307.299
  307.193
  306.722
  306.344
  306.083
  305.909
  305.783
  305.685
  305.604
  305.532
  305.467
  305.405
  305.348
  305.294
  305.242
  305.191
  305.141
  305.092
  305.043
  304.993
  304.944
  304.894
  304.843
  304.793
  304.742
  304.692
  304.642
  304.591
  304.541
  304.49
  304.438
  304.387
  304.341
  304.302
  304.266
  304.234
  304.203
  304.177
  304.167
  305.189
  305.033
  307.294
)
;
  }
  sWall
  {
    type wallHeatTransfer;
    Tinf uniform 315.2;
    alphaWall uniform 0.36;
    value uniform 308.441;
  }
  nWall
  {
    type wallHeatTransfer;
    Tinf uniform 307.2;
    alphaWall uniform 0.36;
    value nonuniform List<scalar> 6
(
  304.5
  304.489
  304.492
  304.55
  304.602
  304.728
)
;
  }
  sideWalls
  {
    type empty;
  }
  glass1
  {
    type wallHeatTransfer;
    Tinf uniform 315.2;
    alphaWall uniform 4.3;
    value nonuniform List<scalar> 9
(
  312.307
  311.161
  310.487
  310.034
  309.727
  309.505
  309.358
  309.47
  309.74
)
;
  }
  glass2
  {
    type wallHeatTransfer;
    Tinf uniform 307.2;
    alphaWall uniform 4.3;
    value nonuniform List<scalar> 2
(
  306.073
  306.023
)
;
  }
  sun
  {
    type wallHeatTransfer;
    Tinf uniform 305.2;
    alphaWall uniform 0.24;
    value nonuniform List<scalar> 14
(
  303.81
  303.528
  303.559
  303.563
  303.562
  303.56
  303.557
  303.554
  303.551
  303.546
  303.54
  303.532
  303.522
  303.511
)
;
  }
  heatsource1
  {
    type fixedGradient;
    gradient uniform 0;
  }
  heatsource2
  {
    type fixedGradient;
    gradient uniform 0;
  }
  Table_master
  {
    type zeroGradient;
  }
  Table_slave
  {
    type zeroGradient;
  }
  inlet
  {
    type fixedValue;
    value uniform 293.15;
  }
  outlet
  {
    type zeroGradient;
  }
} 	// ************************************************************************* //

