// -*- C++ -*-
// File generated by PyFoam - sorry for the ugliness

FoamFile
{
 version 2.0;
 format ascii;
 class volScalarField;
 location "1000";
 object T;
}

dimensions [ 0 0 0 1 0 0 0 ];

internalField nonuniform List<scalar> 459
(
  303.286
  303.03
  303.016
  303.012
  303.008
  303.003
  302.997
  302.987
  302.976
  302.968
  302.965
  302.97
  302.984
  302.997
  303.019
  303.286
  303.252
  303.23
  303.23
  303.243
  303.255
  303.267
  303.278
  303.29
  303.301
  303.313
  303.325
  303.337
  303.349
  303.362
  303.375
  303.39
  303.411
  303.449
  303.452
  303.069
  303.045
  303.045
  303.045
  303.041
  303.031
  303.01
  302.983
  302.961
  302.952
  302.957
  302.97
  302.983
  302.997
  303
  303.006
  303.294
  303.215
  303.195
  303.201
  303.218
  303.235
  303.247
  303.257
  303.267
  303.278
  303.288
  303.299
  303.31
  303.321
  303.333
  303.348
  303.366
  303.391
  303.439
  303.629
  303.12
  303.083
  303.093
  303.104
  303.107
  303.093
  303.052
  303
  302.96
  302.943
  302.949
  302.965
  302.98
  302.991
  302.997
  303.003
  303.227
  303.176
  303.167
  303.186
  303.216
  303.244
  303.251
  303.259
  303.268
  303.277
  303.287
  303.298
  303.309
  303.321
  303.333
  303.348
  303.365
  303.39
  303.439
  303.811
  303.183
  303.126
  303.149
  303.179
  303.199
  303.177
  303.104
  303.018
  302.956
  302.932
  302.941
  302.964
  302.985
  302.998
  303.005
  303.01
  303.02
  303.045
  303.085
  303.135
  303.191
  303.244
  303.288
  303.323
  303.351
  303.375
  303.397
  303.417
  303.436
  303.454
  303.47
  303.483
  303.446
  303.417
  303.411
  303.445
  303.992
  303.263
  303.176
  303.204
  303.258
  303.301
  303.259
  303.142
  303.024
  302.947
  302.92
  302.935
  302.969
  303.002
  303.024
  303.035
  303.045
  303.066
  303.101
  303.15
  303.209
  303.27
  303.327
  303.376
  303.419
  303.453
  303.48
  303.503
  303.521
  303.535
  303.543
  303.546
  303.541
  303.511
  303.468
  303.439
  303.453
  303.601
  303.687
  303.679
  304.159
  303.366
  303.252
  303.269
  303.343
  303.382
  303.295
  303.148
  303.009
  302.923
  302.901
  302.93
  302.985
  303.038
  303.076
  303.1
  303.122
  303.156
  303.203
  303.26
  303.322
  303.383
  303.437
  303.483
  303.522
  303.552
  303.576
  303.594
  303.607
  303.614
  303.614
  303.608
  303.594
  303.564
  303.518
  303.477
  303.469
  303.536
  303.576
  303.623
  304.317
  303.53
  303.413
  303.424
  303.492
  303.443
  303.284
  303.092
  302.94
  302.868
  302.873
  302.936
  303.024
  303.106
  303.166
  303.209
  303.243
  303.286
  303.34
  303.397
  303.455
  303.509
  303.556
  303.594
  303.624
  303.647
  303.664
  303.675
  303.681
  303.682
  303.676
  303.663
  303.644
  303.613
  303.571
  303.527
  303.505
  303.526
  303.549
  303.588
  304.538
  303.951
  303.817
  303.782
  303.675
  303.434
  303.15
  302.918
  302.792
  302.782
  302.855
  302.976
  303.114
  303.226
  303.305
  303.353
  303.391
  303.437
  303.491
  303.543
  303.591
  303.633
  303.668
  303.694
  303.714
  303.728
  303.738
  303.743
  303.743
  303.738
  303.727
  303.712
  303.692
  303.662
  303.629
  303.594
  303.577
  303.592
  303.617
  303.741
  304.857
  304.575
  304.328
  304.077
  303.537
  303.002
  302.653
  302.518
  302.561
  302.721
  302.915
  303.109
  303.301
  303.408
  303.465
  303.504
  303.542
  303.586
  303.632
  303.675
  303.711
  303.74
  303.762
  303.778
  303.788
  303.793
  303.795
  303.792
  303.786
  303.777
  303.768
  303.759
  303.751
  303.748
  303.753
  303.769
  303.797
  303.83
  303.854
  303.916
  296.328
  297.395
  298.782
  300.123
  301.158
  301.941
  302.525
  302.994
  303.261
  303.413
  303.508
  303.567
  303.609
  303.644
  303.68
  303.716
  303.752
  303.782
  303.806
  303.824
  303.835
  303.841
  303.843
  303.841
  303.837
  303.831
  303.824
  303.816
  303.809
  303.803
  303.8
  303.8
  303.806
  303.82
  303.841
  303.867
  303.899
  303.973
  296.73
  298.381
  300.022
  301.564
  302.388
  302.89
  303.21
  303.413
  303.535
  303.612
  303.665
  303.704
  303.736
  303.765
  303.793
  303.819
  303.842
  303.86
  303.872
  303.879
  303.882
  303.882
  303.88
  303.876
  303.87
  303.864
  303.858
  303.851
  303.844
  303.839
  303.835
  303.833
  303.835
  303.842
  303.854
  303.881
  303.921
  303.951
  299.848
  299.772
  299.766
  301.943
  302.834
  303.203
  303.405
  303.54
  303.634
  303.701
  303.748
  303.782
  303.809
  303.831
  303.85
  303.866
  303.879
  303.89
  303.898
  303.902
  303.904
  303.904
  303.902
  303.899
  303.896
  303.892
  303.888
  303.883
  303.879
  303.874
  303.87
  303.865
  303.861
  303.858
  303.857
  303.859
  303.869
  303.888
  303.957
  304.071
)
;

boundaryField
{
  floor
  {
    type wallHeatTransfer;
    Tinf uniform 305.2;
    alphaWall uniform 0.24;
    value nonuniform List<scalar> 29
(
  303.274
  303.624
  303.559
  303.509
  303.494
  303.503
  303.519
  303.541
  303.566
  303.59
  303.614
  303.638
  303.66
  303.682
  303.704
  303.725
  303.748
  303.773
  303.802
  303.857
  303.857
  303.813
  303.792
  303.781
  303.274
  303.624
  303.635
  303.498
  303.213
)
;
  }
  ceiling
  {
    type wallHeatTransfer;
    Tinf uniform 303.2;
    alphaWall uniform 0.24;
    value nonuniform List<scalar> 43
(
  300.089
  300.007
  299.995
  302.023
  302.859
  303.202
  303.391
  303.514
  303.599
  303.657
  303.697
  303.726
  303.748
  303.766
  303.781
  303.794
  303.804
  303.812
  303.817
  303.819
  303.818
  303.816
  303.813
  303.809
  303.804
  303.8
  303.795
  303.791
  303.787
  303.784
  303.782
  303.78
  303.779
  303.779
  303.781
  303.785
  303.795
  303.805
  303.864
  303.98
  304.78
  304.52
  297.15
)
;
  }
  sWall
  {
    type wallHeatTransfer;
    Tinf uniform 315.2;
    alphaWall uniform 0.36;
    value uniform 301.447;
  }
  nWall
  {
    type wallHeatTransfer;
    Tinf uniform 307.2;
    alphaWall uniform 0.36;
    value nonuniform List<scalar> 6
(
  304.357
  304.292
  304.209
  304.476
  304.449
  304.536
)
;
  }
  sideWalls
  {
    type empty;
  }
  glass1
  {
    type wallHeatTransfer;
    Tinf uniform 315.2;
    alphaWall uniform 4.3;
    value nonuniform List<scalar> 9
(
  311.231
  310.642
  310.273
  309.996
  309.764
  309.553
  309.4
  309.477
  309.707
)
;
  }
  glass2
  {
    type wallHeatTransfer;
    Tinf uniform 307.2;
    alphaWall uniform 4.3;
    value nonuniform List<scalar> 2
(
  305.941
  306.05
)
;
  }
  sun
  {
    type wallHeatTransfer;
    Tinf uniform 305.2;
    alphaWall uniform 0.24;
    value nonuniform List<scalar> 14
(
  303.474
  303.229
  303.212
  303.2
  303.189
  303.178
  303.167
  303.154
  303.143
  303.136
  303.138
  303.152
  303.184
  303.224
)
;
  }
  heatsource1
  {
    type fixedGradient;
    gradient uniform 0;
  }
  heatsource2
  {
    type fixedGradient;
    gradient uniform 0;
  }
  Table_master
  {
    type zeroGradient;
  }
  Table_slave
  {
    type zeroGradient;
  }
  inlet
  {
    type fixedValue;
    value uniform 293.15;
  }
  outlet
  {
    type zeroGradient;
  }
} 	// ************************************************************************* //

