/*--------------------------------*- C++ -*----------------------------------*\
  =========                 |
  \\      /  F ield         | OpenFOAM: The Open Source CFD Toolbox
   \\    /   O peration     | Website:  https://openfoam.org
    \\  /    A nd           | Version:  6
     \\/     M anipulation  |
\*---------------------------------------------------------------------------*/
FoamFile
{
    version     2.0;
    format      ascii;
    class       volScalarField;
    location    "200";
    object      alphat;
}
// * * * * * * * * * * * * * * * * * * * * * * * * * * * * * * * * * * * * * //

dimensions      [1 -1 -1 0 0 0 0];

internalField   nonuniform List<scalar> 
459
(
0.000840986
0.000870852
0.000843594
0.000875096
0.000904204
0.000930002
0.000953155
0.000974544
0.000995182
0.00101639
0.00103467
0.001049
0.00105901
0.00106539
0.00106661
0.000620327
0.000775968
0.000829846
0.000833206
0.000814817
0.000786061
0.000736492
0.000686251
0.000641631
0.00060166
0.000565393
0.000532257
0.000501825
0.000473706
0.000447391
0.000422163
0.000397217
0.000388126
0.000361053
0.00134246
0.00207496
0.00162441
0.0019448
0.00207774
0.00222204
0.00236879
0.00250588
0.00261656
0.0026784
0.00270399
0.0026652
0.00252276
0.00222004
0.00171511
0.00114985
0.000770244
0.000744425
0.002276
0.00295235
0.00328967
0.00326092
0.00296664
0.00213877
0.00184127
0.00162401
0.00144323
0.00128847
0.0011559
0.00104145
0.00093942
0.000844161
0.000764663
0.000696422
0.000894357
0.000496688
0.00180227
0.00328277
0.00171133
0.00273259
0.00294259
0.00308375
0.00320068
0.00329458
0.00336539
0.00340796
0.00341842
0.00336392
0.0032035
0.0028887
0.00239825
0.00181067
0.00126035
0.00113724
0.00390036
0.00414575
0.00397902
0.00378
0.00322062
0.00087509
0.000732267
0.000632545
0.000563914
0.000514867
0.000477725
0.000448262
0.000424686
0.000407827
0.000482421
0.000555814
0.00107349
0.000606438
0.00226338
0.00503113
0.00173885
0.00307158
0.00347616
0.00360969
0.00369845
0.00376447
0.00381587
0.00385299
0.00387872
0.00387604
0.00381267
0.00363017
0.00324946
0.00263614
0.00192279
0.00142925
0.00367086
0.00417163
0.00397916
0.00370367
0.00366724
0.0032856
0.000863684
0.000824312
0.00081262
0.000808305
0.00080203
0.00078699
0.000758224
0.000726362
0.00068918
0.000662937
0.000655543
0.00137378
0.000685143
0.00271521
0.00719239
0.00219874
0.00293367
0.00373301
0.00389517
0.00396789
0.00401171
0.00404272
0.00407031
0.00410317
0.00416085
0.00423735
0.00431121
0.00434821
0.00431126
0.0041864
0.00397132
0.00384831
0.00357616
0.00328868
0.00328992
0.00360909
0.00371545
0.00343742
0.0034048
0.00340132
0.00338114
0.00332096
0.00320613
0.0030237
0.00265291
0.00217628
0.00169878
0.00127433
0.00127056
0.000975728
0.000835879
0.000981901
0.00110233
0.00315729
0.00935997
0.00358087
0.00254651
0.00361249
0.00395505
0.00407998
0.00412724
0.00412345
0.00410044
0.00409062
0.00414658
0.00424846
0.00437164
0.00447379
0.00448577
0.00432852
0.00397412
0.00350782
0.0030678
0.00279812
0.0030153
0.00362592
0.0038464
0.00389688
0.00392164
0.0039333
0.00390961
0.00384411
0.00374047
0.00360762
0.00338707
0.00301276
0.00250618
0.00195851
0.00139268
0.00122077
0.00110625
0.00158881
0.00116689
0.00359765
0.011075
0.00644952
0.00312614
0.00269746
0.00322261
0.00374135
0.00406709
0.00420471
0.00409142
0.00401409
0.00404075
0.00412039
0.00423269
0.00434177
0.00437895
0.00425838
0.00394163
0.00347339
0.00295775
0.00254383
0.00281974
0.00369922
0.00394346
0.00397184
0.00395912
0.00393608
0.00388354
0.00380597
0.00372277
0.00365791
0.00361464
0.00340481
0.00298259
0.00248851
0.00194931
0.00168209
0.00168395
0.00180825
0.00137693
0.00371459
0.0114098
0.00874383
0.00628235
0.00433483
0.00336828
0.00330552
0.00366339
0.00404909
0.00401329
0.00393284
0.00390848
0.00393886
0.00400607
0.00408419
0.00413238
0.0040926
0.0039195
0.00359794
0.00307594
0.00240597
0.00263492
0.00381968
0.00410085
0.00407635
0.0039971
0.00390285
0.00378854
0.00367377
0.0036013
0.00361026
0.00372196
0.00386901
0.00353552
0.00324045
0.00317967
0.0035895
0.00450722
0.00561288
0.0020264
0.00363588
0.00442499
0.00491661
0.00498945
0.00466567
0.00417375
0.00378395
0.0035813
0.00352521
0.00351881
0.00355346
0.00361194
0.00367934
0.00374282
0.00379181
0.00381633
0.00380647
0.00376371
0.00367453
0.00327
0.00231826
0.00243484
0.00395857
0.0043341
0.00426146
0.00411885
0.00394707
0.00373335
0.00350234
0.00330007
0.00315833
0.00307753
0.00303882
0.00301799
0.00304874
0.00311144
0.00310425
0.00294256
0.00270579
0.00184821
0.0026963
0.00413436
0.00445823
0.00433834
0.00412191
0.00393352
0.00380205
0.00371323
0.0036602
0.00362882
0.00360285
0.00357138
0.00353156
0.0034895
0.00346227
0.00348566
0.00356755
0.00330858
0.00221
0.00222406
0.00406043
0.00462992
0.0045318
0.00438995
0.00423064
0.00400557
0.00373455
0.00347216
0.00327417
0.00317582
0.00315105
0.00316234
0.00318158
0.00315633
0.00301567
0.00272828
0.0023285
0.00150806
0.00282939
0.00471432
0.00490962
0.00470439
0.00447895
0.00425683
0.00405297
0.00386963
0.00367593
0.00345341
0.00322558
0.00301061
0.00282448
0.00268373
0.00260982
0.00263515
0.00276642
0.0027426
0.001925
0.00197162
0.00372341
0.00422856
0.00416133
0.00408992
0.00402169
0.00391725
0.00379054
0.00366348
0.00354065
0.00348115
0.00348743
0.00353362
0.00358271
0.00361778
0.0035902
0.00352926
0.0029492
0.00153216
0.00249615
0.0026073
0.00270683
0.00284307
0.00265852
0.00240445
0.00223627
0.00208702
0.00195224
0.00182976
0.00172061
0.00162489
0.00153716
0.00145476
0.00137667
0.00130314
0.00123553
0.00117654
0.00112958
0.0010923
0.00104679
0.00106758
0.00114106
0.00116013
0.00115944
0.0011596
0.00116345
0.0011725
0.00118991
0.00121916
0.00126484
0.001323
0.00139405
0.00147613
0.00156632
0.00168391
0.00171578
0.00167405
0.00156058
0.00143935
)
;

boundaryField
{
    floor
    {
        type            compressible::alphatWallFunction;
        Prt             0.85;
        value           nonuniform List<scalar> 
29
(
0.000151566
8.73369e-05
0.000110213
0.000117999
0.000118484
0.000115835
0.000111678
0.000104468
9.71015e-05
9.0504e-05
8.45463e-05
7.90986e-05
7.40832e-05
6.94429e-05
6.51237e-05
6.10525e-05
5.71209e-05
5.32036e-05
5.17679e-05
4.74683e-05
4.74676e-05
6.86516e-05
8.52535e-05
9.69295e-05
0.000151565
8.73358e-05
0.000105623
0.000161396
0.000201371
)
;
    }
    ceiling
    {
        type            compressible::alphatWallFunction;
        Prt             0.85;
        value           nonuniform List<scalar> 
43
(
0.000340852
0.000354956
0.000367535
0.000384758
0.000361551
0.000329295
0.000307738
0.000288459
0.000270918
0.000254865
0.00024046
0.000227743
0.000216016
0.000204932
0.000194364
0.00018435
0.000175087
0.000166957
0.000160453
0.000155267
0.000148908
0.000151816
0.000162049
0.000164692
0.000164597
0.00016462
0.000165152
0.000166405
0.000168809
0.000172841
0.000179116
0.000187067
0.000196729
0.000207822
0.000219931
0.000235604
0.000239832
0.000234297
0.000219165
0.000202864
0.000483162
0.000578697
0.000382893
)
;
    }
    sWall
    {
        type            compressible::alphatWallFunction;
        Prt             0.85;
        value           uniform 0.000339608;
    }
    nWall
    {
        type            compressible::alphatWallFunction;
        Prt             0.85;
        value           nonuniform List<scalar> 6(0.000156282 0.000165234 0.000194001 0.00021174 0.000214972 0.000202482);
    }
    sideWalls
    {
        type            empty;
    }
    glass1
    {
        type            compressible::alphatWallFunction;
        Prt             0.85;
        value           nonuniform List<scalar> 9(0.000115993 0.000184751 0.000245449 0.000304784 0.000361789 0.000416682 0.000470616 0.000484973 0.000475651);
    }
    glass2
    {
        type            compressible::alphatWallFunction;
        Prt             0.85;
        value           nonuniform List<scalar> 2(0.000277958 0.00025489);
    }
    sun
    {
        type            compressible::alphatWallFunction;
        Prt             0.85;
        value           nonuniform List<scalar> 
14
(
0.000119629
0.000123892
0.000119983
0.000124499
0.000128654
0.000132324
0.000135607
0.000138632
0.000141544
0.000144528
0.000147095
0.000149103
0.000150504
0.000151396
)
;
    }
    heatsource1
    {
        type            compressible::alphatWallFunction;
        Prt             0.85;
        value           nonuniform List<scalar> 3(0.000119068 0.000139869 0.000156751);
    }
    heatsource2
    {
        type            compressible::alphatWallFunction;
        Prt             0.85;
        value           nonuniform List<scalar> 4(0.000163353 0.000109581 0.00010958 0.000178584);
    }
    Table_master
    {
        type            compressible::alphatWallFunction;
        Prt             0.85;
        value           nonuniform List<scalar> 9(0.000124692 0.000104046 8.93441e-05 7.90623e-05 7.16197e-05 6.59244e-05 6.13669e-05 5.76922e-05 5.50487e-05);
    }
    Table_slave
    {
        type            compressible::alphatWallFunction;
        Prt             0.85;
        value           nonuniform List<scalar> 9(0.000123061 0.000117404 0.000115718 0.000115095 0.000114188 0.000112011 0.000107834 0.000103184 9.77276e-05);
    }
    inlet
    {
        type            fixedValue;
        value           uniform 1.94e-05;
    }
    outlet
    {
        type            zeroGradient;
    }
}


// ************************************************************************* //
