/*--------------------------------*- C++ -*----------------------------------*\
  =========                 |
  \\      /  F ield         | OpenFOAM: The Open Source CFD Toolbox
   \\    /   O peration     | Website:  https://openfoam.org
    \\  /    A nd           | Version:  6
     \\/     M anipulation  |
\*---------------------------------------------------------------------------*/
FoamFile
{
    version     2.0;
    format      ascii;
    class       volScalarField;
    location    "500";
    object      epsilon;
}
// * * * * * * * * * * * * * * * * * * * * * * * * * * * * * * * * * * * * * //

dimensions      [0 2 -3 0 0 0 0];

internalField   nonuniform List<scalar> 
459
(
0.000646036
0.000874929
0.000977028
0.00114613
0.00132864
0.00153784
0.00174155
0.00188644
0.0019323
0.00185956
0.00167149
0.00123598
0.00089968
0.000580701
0.000362922
2.35715e-05
3.55475e-05
4.79886e-05
6.01571e-05
5.93301e-05
4.70292e-05
2.74376e-05
1.57097e-05
1.07187e-05
8.56137e-06
7.33424e-06
6.63632e-06
6.2916e-06
6.54479e-06
8.09309e-06
1.28859e-05
3.11999e-05
7.74943e-05
3.62223e-05
0.00139322
0.00180842
0.000809221
0.000817154
0.000895061
0.0010343
0.00120721
0.00134617
0.00139651
0.00133747
0.00118776
0.00094381
0.000742437
0.000570345
0.00042632
0.000699401
0.000356988
3.09587e-05
4.15217e-05
7.04071e-05
9.37707e-05
0.000100395
9.49662e-05
8.27044e-05
5.93792e-05
4.33041e-05
3.37442e-05
2.7898e-05
2.36382e-05
1.99013e-05
1.63874e-05
1.39477e-05
1.58407e-05
6.03747e-05
0.000131692
5.29782e-05
0.00231824
0.00382388
0.000897717
0.000777214
0.000884201
0.00108735
0.00131651
0.00147068
0.00151658
0.00145041
0.00128663
0.00107541
0.000875345
0.000697706
0.000540356
0.000507408
0.000657907
4.67251e-05
7.40305e-05
9.97512e-05
0.000116082
0.00012089
0.000118433
0.000179352
0.000108877
7.04982e-05
4.89412e-05
3.61748e-05
2.80269e-05
2.2367e-05
1.81796e-05
1.53802e-05
1.92057e-05
4.11973e-05
0.00025252
0.000111101
0.00350731
0.00749281
0.00126096
0.000806967
0.00094307
0.00126657
0.00155018
0.001683
0.00170195
0.00161139
0.00143608
0.00121303
0.000985848
0.000789008
0.000629587
0.000535412
0.00053098
0.000878487
0.000494992
0.000329491
0.000242233
0.000194336
0.000166045
0.000154556
0.000353836
0.000297041
0.000256843
0.000225995
0.000200445
0.000178535
0.00015792
0.000137134
0.000115186
7.2926e-05
5.46543e-05
0.000118573
0.000126672
0.00508632
0.013178
0.00229129
0.000991895
0.00115332
0.00172847
0.00198324
0.00203761
0.00199697
0.00186564
0.00164397
0.00135879
0.00106791
0.000822184
0.000639558
0.000520453
0.000472865
0.000492985
0.000407569
0.000333038
0.000279159
0.000239581
0.000208458
0.00018505
0.00017989
0.000170364
0.000159973
0.000149473
0.000138763
0.000127585
0.000115326
0.000101924
8.8164e-05
7.25022e-05
6.08114e-05
7.30809e-05
9.57466e-05
0.000150631
0.000153104
0.000144097
0.00724792
0.0197607
0.0050476
0.00187745
0.00225502
0.00266149
0.00267457
0.00258024
0.00244311
0.0022313
0.00191874
0.00153231
0.00114809
0.000834463
0.000616582
0.000489652
0.000438131
0.000424588
0.000393344
0.000359011
0.000324791
0.000290027
0.000256543
0.000227142
0.000205103
0.000188076
0.000174058
0.00016171
0.000150342
0.000139344
0.000128134
0.000116704
0.000105832
9.66494e-05
9.10161e-05
9.39183e-05
0.000101763
0.000123429
0.000317862
0.000322687
0.00961912
0.0238358
0.0103228
0.00544522
0.00481799
0.00419942
0.00369975
0.003342
0.00304929
0.00270936
0.00226002
0.00172916
0.00122393
0.000835047
0.000586741
0.000465073
0.000427931
0.000423364
0.00041125
0.000387246
0.00035483
0.000317916
0.000280683
0.000247422
0.000220457
0.000199723
0.000184073
0.00017267
0.000165212
0.000161654
0.00016216
0.000167283
0.000176736
0.00019263
0.000218227
0.000257033
0.000291762
0.000299667
0.000520638
0.000526626
0.0101317
0.0246762
0.0146355
0.0103198
0.00758661
0.00586486
0.00484775
0.0042465
0.00379548
0.0032839
0.00263128
0.00188659
0.00122731
0.000769704
0.000528515
0.000446557
0.000430441
0.000430806
0.000418939
0.000392204
0.000356124
0.000316339
0.000277688
0.000244448
0.000217814
0.000197746
0.000184107
0.000177708
0.000180453
0.000195099
0.000224684
0.000272079
0.000342201
0.000440067
0.000574763
0.000745748
0.000889318
0.00110781
0.00190258
0.000601631
0.00939584
0.015493
0.0124195
0.00966907
0.00760619
0.00636814
0.00565662
0.00517033
0.0046163
0.00381298
0.00280791
0.00171598
0.00095324
0.000626233
0.000491751
0.00044535
0.00043409
0.000427612
0.000410335
0.000381626
0.000346375
0.000309482
0.000274504
0.000243665
0.000217762
0.000197212
0.000182955
0.000176943
0.000181841
0.000199935
0.000231901
0.000277158
0.000335673
0.000407415
0.000491413
0.000583746
0.00067768
0.000779744
0.000868874
0.000563057
0.00344813
0.00480447
0.00619837
0.00645845
0.00621515
0.0055376
0.00429975
0.0027108
0.00163464
0.00100402
0.000690612
0.000549189
0.000490544
0.000469422
0.000461204
0.000451213
0.000433434
0.000408924
0.000380941
0.000352134
0.000323944
0.000296944
0.000271411
0.000248047
0.000228391
0.000214735
0.000209601
0.000215156
0.000233113
0.000265379
0.000314912
0.000385242
0.000477633
0.000584837
0.000678461
0.000713602
0.000627059
0.000489858
0.00224798
0.00718788
0.00794957
0.00654077
0.00500845
0.00355829
0.00234811
0.00151109
0.00102573
0.000764274
0.000637653
0.000581
0.000559552
0.00055585
0.000560471
0.000567636
0.00057369
0.000576924
0.000576548
0.000571997
0.000562872
0.000549183
0.000531637
0.000511937
0.000492855
0.000477918
0.000470497
0.000472432
0.000482717
0.000497419
0.000511979
0.00052462
0.000537049
0.000549088
0.000539884
0.000524569
0.000473574
0.000577312
0.00176889
0.00210123
0.0023585
0.00306926
0.00279627
0.00263543
0.00230531
0.00191733
0.00152778
0.00121741
0.00100714
0.000879763
0.00080733
0.000767261
0.000744205
0.000727729
0.000710742
0.00068949
0.000663715
0.000635219
0.000606117
0.000577934
0.000551484
0.000527117
0.000505063
0.000485707
0.000469673
0.000457724
0.00045051
0.000448322
0.000450983
0.000458005
0.000468813
0.000482264
0.00049541
0.000494535
0.000451744
0.000350347
0.000318145
0.000590662
)
;

boundaryField
{
    floor
    {
        Cmu             0.09;
        kappa           0.41;
        E               9.8;
        type            epsilonWallFunction;
        value           nonuniform List<scalar> 
29
(
0.000362922
2.35715e-05
3.55475e-05
4.79886e-05
6.01571e-05
5.93301e-05
4.70292e-05
2.74376e-05
1.57097e-05
1.07187e-05
8.56137e-06
7.33424e-06
6.63632e-06
6.2916e-06
6.54479e-06
8.09309e-06
1.28859e-05
3.11999e-05
7.74943e-05
3.62223e-05
3.62223e-05
5.29782e-05
0.000111101
0.000126672
0.000362922
2.35715e-05
3.09587e-05
4.67251e-05
0.000878487
)
;
    }
    ceiling
    {
        Cmu             0.09;
        kappa           0.41;
        E               9.8;
        type            epsilonWallFunction;
        value           nonuniform List<scalar> 
43
(
0.00176889
0.00210123
0.0023585
0.00306926
0.00279627
0.00263543
0.00230531
0.00191733
0.00152778
0.00121741
0.00100714
0.000879763
0.00080733
0.000767261
0.000744205
0.000727729
0.000710742
0.00068949
0.000663715
0.000635219
0.000606117
0.000577934
0.000551484
0.000527117
0.000505063
0.000485707
0.000469673
0.000457724
0.00045051
0.000448322
0.000450983
0.000458005
0.000468813
0.000482264
0.00049541
0.000494535
0.000451744
0.000350347
0.000318145
0.000590662
0.00939584
0.015493
0.00224798
)
;
    }
    sWall
    {
        Cmu             0.09;
        kappa           0.41;
        E               9.8;
        type            epsilonWallFunction;
        value           uniform 0.00176889;
    }
    nWall
    {
        Cmu             0.09;
        kappa           0.41;
        E               9.8;
        type            epsilonWallFunction;
        value           nonuniform List<scalar> 6(0.000144097 0.000322687 0.000526626 0.000489858 0.000577312 0.000590662);
    }
    sideWalls
    {
        type            empty;
    }
    glass1
    {
        Cmu             0.09;
        kappa           0.41;
        E               9.8;
        type            epsilonWallFunction;
        value           nonuniform List<scalar> 9(0.000646036 0.00139322 0.00231824 0.00350731 0.00508632 0.00724792 0.00961912 0.0101317 0.00939584);
    }
    glass2
    {
        Cmu             0.09;
        kappa           0.41;
        E               9.8;
        type            epsilonWallFunction;
        value           nonuniform List<scalar> 2(0.000601631 0.000563057);
    }
    sun
    {
        Cmu             0.09;
        kappa           0.41;
        E               9.8;
        type            epsilonWallFunction;
        value           nonuniform List<scalar> 
14
(
0.000646036
0.000874929
0.000977028
0.00114613
0.00132864
0.00153784
0.00174155
0.00188644
0.0019323
0.00185956
0.00167149
0.00123598
0.00089968
0.000580701
)
;
    }
    heatsource1
    {
        Cmu             0.09;
        kappa           0.41;
        E               9.8;
        type            epsilonWallFunction;
        value           nonuniform List<scalar> 3(0.000150631 0.000153104 0.000144097);
    }
    heatsource2
    {
        Cmu             0.09;
        kappa           0.41;
        E               9.8;
        type            epsilonWallFunction;
        value           nonuniform List<scalar> 4(0.000699401 0.000356988 0.000356988 0.000657907);
    }
    Table_master
    {
        Cmu             0.09;
        kappa           0.41;
        E               9.8;
        type            epsilonWallFunction;
        value           nonuniform List<scalar> 9(0.000179352 0.000108877 7.04982e-05 4.89412e-05 3.61748e-05 2.80269e-05 2.2367e-05 1.81796e-05 1.53802e-05);
    }
    Table_slave
    {
        Cmu             0.09;
        kappa           0.41;
        E               9.8;
        type            epsilonWallFunction;
        value           nonuniform List<scalar> 9(0.000353836 0.000297041 0.000256843 0.000225995 0.000200445 0.000178535 0.00015792 0.000137134 0.000115186);
    }
    inlet
    {
        type            turbulentMixingLengthDissipationRateInlet;
        mixingLength    0.01;
        phi             phi;
        k               k;
        value           uniform 0.000101881;
    }
    outlet
    {
        type            zeroGradient;
    }
}


// ************************************************************************* //
