/*--------------------------------*- C++ -*----------------------------------*\
  =========                 |
  \\      /  F ield         | OpenFOAM: The Open Source CFD Toolbox
   \\    /   O peration     | Website:  https://openfoam.org
    \\  /    A nd           | Version:  6
     \\/     M anipulation  |
\*---------------------------------------------------------------------------*/
FoamFile
{
    version     2.0;
    format      ascii;
    class       volScalarField;
    location    "800";
    object      epsilon;
}
// * * * * * * * * * * * * * * * * * * * * * * * * * * * * * * * * * * * * * //

dimensions      [0 2 -3 0 0 0 0];

internalField   nonuniform List<scalar> 
459
(
0.000432568
0.000560918
0.000593959
0.000683406
0.000774068
0.000866843
0.00096645
0.00106698
0.00114045
0.00116748
0.00113192
0.00102861
0.000866178
0.000669635
0.000480554
3.51409e-05
5.91459e-05
8.54451e-05
8.87519e-05
8.14301e-05
7.15133e-05
5.89206e-05
4.7682e-05
3.88046e-05
3.19448e-05
2.66165e-05
2.2432e-05
1.91071e-05
1.64358e-05
1.42212e-05
1.22979e-05
1.05191e-05
9.56321e-06
7.39704e-06
0.00108922
0.00158963
0.000527194
0.000510976
0.000534674
0.00057609
0.00063972
0.000722849
0.000800843
0.000847347
0.000842394
0.000781544
0.000674122
0.00054303
0.000435367
0.000508218
0.000128518
3.9382e-05
9.19438e-05
0.000104007
9.81385e-05
8.60799e-05
7.37372e-05
6.76729e-05
5.45585e-05
4.28801e-05
3.37054e-05
2.66989e-05
2.13712e-05
1.73058e-05
1.42182e-05
1.19434e-05
1.0514e-05
9.87938e-06
2.60705e-05
1.75506e-05
0.00198038
0.00389681
0.000646264
0.000484718
0.000507358
0.000570906
0.000667289
0.000788101
0.00089669
0.000958664
0.000957448
0.000895861
0.000785777
0.000653588
0.000533523
0.000473626
0.000569028
0.000252907
0.000203257
0.000164062
0.000132956
0.00010823
9.30683e-05
0.00017019
0.000117116
8.32197e-05
6.11141e-05
4.62843e-05
3.60453e-05
2.87932e-05
2.35742e-05
1.98281e-05
1.50997e-05
1.27009e-05
5.04968e-05
2.83048e-05
0.00320183
0.00809682
0.00101561
0.000487227
0.000493607
0.000583425
0.000729943
0.000909458
0.00104557
0.00110791
0.00109402
0.00101645
0.000885006
0.000735114
0.000604129
0.000519509
0.000500834
0.000903922
0.000525051
0.000324407
0.000222196
0.000163439
0.000126545
0.000109027
0.000247912
0.000188455
0.000152258
0.000128024
0.00010958
9.41593e-05
8.07709e-05
6.81298e-05
5.52121e-05
3.28153e-05
2.14724e-05
8.65804e-05
3.9336e-05
0.00488176
0.0144755
0.00200266
0.000568519
0.000497641
0.000619279
0.000886605
0.00114943
0.00129007
0.00132666
0.00127918
0.00116565
0.00100094
0.000812662
0.000633147
0.000488258
0.000391037
0.000351277
0.000289762
0.000233815
0.000188619
0.000152787
0.000124565
0.000104516
0.000100022
9.26654e-05
8.56677e-05
7.88947e-05
7.18349e-05
6.43059e-05
5.67698e-05
4.96036e-05
4.30507e-05
3.44228e-05
2.67144e-05
6.07167e-05
4.66538e-05
7.54494e-05
0.000131443
0.000186357
0.00722066
0.0215592
0.00451863
0.00105888
0.000700226
0.000833972
0.00136231
0.00161466
0.00168193
0.00164762
0.00154442
0.00137878
0.00115908
0.000911943
0.000675226
0.000483633
0.000354356
0.000283111
0.000240197
0.000205412
0.000172994
0.000144047
0.000119975
0.000102251
9.26162e-05
8.80159e-05
8.52885e-05
8.24554e-05
7.83866e-05
7.21702e-05
6.33853e-05
5.40497e-05
4.54832e-05
3.79254e-05
3.34892e-05
4.53879e-05
4.85527e-05
5.84599e-05
0.000243378
0.00021363
0.0100029
0.0258229
0.00943233
0.00349639
0.00227443
0.00230422
0.00247667
0.00243049
0.00228872
0.00211335
0.00190763
0.00165497
0.00135274
0.00102824
0.000725385
0.000488598
0.00033675
0.000256482
0.000213989
0.000182811
0.000154411
0.000129751
0.000110639
9.82441e-05
9.29416e-05
9.27394e-05
9.47329e-05
9.72392e-05
9.92182e-05
9.9203e-05
9.42545e-05
8.41618e-05
7.38432e-05
6.52462e-05
6.26847e-05
7.06853e-05
8.83881e-05
0.000133792
0.000325241
0.000313018
0.0106841
0.0287282
0.0156369
0.00999057
0.00714558
0.00552227
0.00437974
0.00361462
0.00309555
0.00270753
0.00235518
0.00197557
0.00155366
0.00112521
0.000740364
0.00045887
0.000295044
0.00021602
0.00017745
0.000150308
0.000127763
0.000110527
9.93627e-05
9.43407e-05
9.49012e-05
9.97275e-05
0.000107563
0.000118051
0.000131394
0.000147702
0.000166317
0.000181881
0.000193122
0.000215629
0.000260914
0.000383518
0.000664063
0.00121758
0.00411502
0.00109525
0.00993055
0.0168944
0.013551
0.0102422
0.00782631
0.006184
0.00507672
0.00432207
0.00377638
0.0033072
0.00281496
0.00225523
0.00164973
0.00108495
0.000604108
0.000327683
0.000212513
0.000161026
0.000133273
0.000114129
9.99297e-05
9.07683e-05
8.66164e-05
8.71324e-05
9.18086e-05
0.000100191
0.000112278
0.000128795
0.000151179
0.000181562
0.000222828
0.00027873
0.000356191
0.000468387
0.000634098
0.000861642
0.00113147
0.00138701
0.00158707
0.000876688
0.00491793
0.00661766
0.0067183
0.00623712
0.00557162
0.00493482
0.00428681
0.00356309
0.00275814
0.00188612
0.00102824
0.000547086
0.000295366
0.000180453
0.00012888
0.000102793
8.72864e-05
7.71206e-05
7.08771e-05
6.79033e-05
6.78557e-05
7.0472e-05
7.55785e-05
8.32487e-05
9.39064e-05
0.000108384
0.000128009
0.000154771
0.00019173
0.000243888
0.000316759
0.000418081
0.000555063
0.000724709
0.000903898
0.00105211
0.000987788
0.00044656
0.00339962
0.00674183
0.00669591
0.00539245
0.00454848
0.00383465
0.00295571
0.00204681
0.0012927
0.000754091
0.000420744
0.000239722
0.000148597
0.000105407
8.42419e-05
7.28383e-05
6.62471e-05
6.26081e-05
6.12136e-05
6.16796e-05
6.37915e-05
6.74262e-05
7.26749e-05
7.9842e-05
8.94107e-05
0.000102099
0.000119039
0.000141977
0.000173462
0.0002168
0.00027653
0.000357535
0.000461629
0.000581487
0.00069706
0.000843073
0.000466261
0.000477479
0.00216609
0.00252884
0.00282139
0.00312757
0.0023402
0.00182606
0.00161516
0.00140159
0.00112795
0.000840621
0.00058383
0.000389468
0.000259693
0.0001804
0.00013424
0.00010657
8.88386e-05
7.69971e-05
6.9281e-05
6.48244e-05
6.30237e-05
6.34031e-05
6.56655e-05
6.96928e-05
7.5608e-05
8.3567e-05
9.37642e-05
0.000106739
0.000123321
0.000144857
0.000172179
0.000206627
0.000250155
0.00030514
0.000373612
0.000457749
0.00047399
0.00033899
0.000289234
0.000478637
)
;

boundaryField
{
    floor
    {
        Cmu             0.09;
        kappa           0.41;
        E               9.8;
        type            epsilonWallFunction;
        value           nonuniform List<scalar> 
29
(
0.000480554
3.51409e-05
5.91459e-05
8.54451e-05
8.87519e-05
8.14301e-05
7.15133e-05
5.89206e-05
4.7682e-05
3.88046e-05
3.19448e-05
2.66165e-05
2.2432e-05
1.91071e-05
1.64358e-05
1.42212e-05
1.22979e-05
1.05191e-05
9.56321e-06
7.39704e-06
7.39704e-06
1.75506e-05
2.83048e-05
3.9336e-05
0.000480554
3.51409e-05
3.9382e-05
0.000252907
0.000903922
)
;
    }
    ceiling
    {
        Cmu             0.09;
        kappa           0.41;
        E               9.8;
        type            epsilonWallFunction;
        value           nonuniform List<scalar> 
43
(
0.00216609
0.00252884
0.00282139
0.00312757
0.0023402
0.00182606
0.00161516
0.00140159
0.00112795
0.000840621
0.00058383
0.000389468
0.000259693
0.0001804
0.00013424
0.00010657
8.88386e-05
7.69971e-05
6.9281e-05
6.48244e-05
6.30237e-05
6.34031e-05
6.56655e-05
6.96928e-05
7.5608e-05
8.3567e-05
9.37642e-05
0.000106739
0.000123321
0.000144857
0.000172179
0.000206627
0.000250155
0.00030514
0.000373612
0.000457749
0.00047399
0.00033899
0.000289234
0.000478637
0.00993055
0.0168944
0.00339962
)
;
    }
    sWall
    {
        Cmu             0.09;
        kappa           0.41;
        E               9.8;
        type            epsilonWallFunction;
        value           uniform 0.00216609;
    }
    nWall
    {
        Cmu             0.09;
        kappa           0.41;
        E               9.8;
        type            epsilonWallFunction;
        value           nonuniform List<scalar> 6(0.000186357 0.00021363 0.000313018 0.00044656 0.000477479 0.000478637);
    }
    sideWalls
    {
        type            empty;
    }
    glass1
    {
        Cmu             0.09;
        kappa           0.41;
        E               9.8;
        type            epsilonWallFunction;
        value           nonuniform List<scalar> 9(0.000432568 0.00108922 0.00198038 0.00320183 0.00488176 0.00722066 0.0100029 0.0106841 0.00993055);
    }
    glass2
    {
        Cmu             0.09;
        kappa           0.41;
        E               9.8;
        type            epsilonWallFunction;
        value           nonuniform List<scalar> 2(0.00109525 0.000876688);
    }
    sun
    {
        Cmu             0.09;
        kappa           0.41;
        E               9.8;
        type            epsilonWallFunction;
        value           nonuniform List<scalar> 
14
(
0.000432568
0.000560918
0.000593959
0.000683406
0.000774068
0.000866843
0.00096645
0.00106698
0.00114045
0.00116748
0.00113192
0.00102861
0.000866178
0.000669635
)
;
    }
    heatsource1
    {
        Cmu             0.09;
        kappa           0.41;
        E               9.8;
        type            epsilonWallFunction;
        value           nonuniform List<scalar> 3(7.54494e-05 0.000131443 0.000186357);
    }
    heatsource2
    {
        Cmu             0.09;
        kappa           0.41;
        E               9.8;
        type            epsilonWallFunction;
        value           nonuniform List<scalar> 4(0.000508218 0.000128518 0.000128518 0.000569028);
    }
    Table_master
    {
        Cmu             0.09;
        kappa           0.41;
        E               9.8;
        type            epsilonWallFunction;
        value           nonuniform List<scalar> 9(0.00017019 0.000117116 8.32197e-05 6.11141e-05 4.62843e-05 3.60453e-05 2.87932e-05 2.35742e-05 1.98281e-05);
    }
    Table_slave
    {
        Cmu             0.09;
        kappa           0.41;
        E               9.8;
        type            epsilonWallFunction;
        value           nonuniform List<scalar> 9(0.000247912 0.000188455 0.000152258 0.000128024 0.00010958 9.41593e-05 8.07709e-05 6.81298e-05 5.52121e-05);
    }
    inlet
    {
        type            turbulentMixingLengthDissipationRateInlet;
        mixingLength    0.01;
        phi             phi;
        k               k;
        value           uniform 0.000101881;
    }
    outlet
    {
        type            zeroGradient;
    }
}


// ************************************************************************* //
