// -*- C++ -*-
// File generated by PyFoam - sorry for the ugliness

FoamFile
{
 version 2.0;
 format ascii;
 class volVectorField;
 location "500";
 object U;
}

dimensions [ 0 1 -1 0 0 0 0 ];

internalField nonuniform List<vector> 459
(
  (-0.0136469 -0.0240609 0)
  (-0.0203069 -0.168276 0)
  (0.135251 -0.149618 0)
  (0.241301 -0.0998932 0)
  (0.32069 -0.064373 0)
  (0.3671 -0.0420724 0)
  (0.388076 -0.0276265 0)
  (0.39343 -0.0176061 0)
  (0.388361 -0.00962989 0)
  (0.375263 -0.00258222 0)
  (0.354361 0.00447912 0)
  (0.324415 0.012839 0)
  (0.282129 0.0250888 0)
  (0.217174 0.0497682 0)
  (0.167452 0.118632 0)
  (-0.0821831 0.0241944 0)
  (-0.0687285 0.000411933 0)
  (-0.068568 -0.0237955 0)
  (-0.0342867 -0.0428935 0)
  (0.0139896 -0.0471077 0)
  (0.0588604 -0.038035 0)
  (0.0907767 -0.0225426 0)
  (0.112793 -0.0142947 0)
  (0.125942 -0.0113059 0)
  (0.134177 -0.00982331 0)
  (0.140102 -0.008247 0)
  (0.143853 -0.00629673 0)
  (0.144389 -0.0038427 0)
  (0.140838 -0.000669647 0)
  (0.132368 0.0036651 0)
  (0.117064 0.0101174 0)
  (0.0931735 0.0181989 0)
  (0.0386818 0.030164 0)
  (0.0920333 0.016704 0)
  (0.201818 0.183521 0)
  (0.134265 -0.214192 0)
  (0.210257 -0.202221 0)
  (0.282279 -0.129914 0)
  (0.325878 -0.0726533 0)
  (0.348057 -0.0355613 0)
  (0.356173 -0.0111285 0)
  (0.354702 0.00621722 0)
  (0.345522 0.0192857 0)
  (0.330576 0.0302488 0)
  (0.310398 0.041051 0)
  (0.285084 0.0538431 0)
  (0.255455 0.0715537 0)
  (0.224245 0.0992589 0)
  (0.208605 0.151553 0)
  (0.194521 0.135795 0)
  (0.12089 0.118072 0)
  (-0.10836 0.0552196 0)
  (-0.0116092 0.0294837 0)
  (0.0149681 -0.0351816 0)
  (0.0406046 -0.065196 0)
  (0.0671735 -0.069246 0)
  (0.0940714 -0.0594415 0)
  (0.107963 -0.029923 0)
  (0.112126 -0.0119186 0)
  (0.113023 -0.00590735 0)
  (0.114083 -0.00381603 0)
  (0.115492 -0.00167622 0)
  (0.116644 0.00155854 0)
  (0.116663 0.00572752 0)
  (0.115342 0.0106627 0)
  (0.112397 0.0175455 0)
  (0.103958 0.0310141 0)
  (0.087414 0.0451587 0)
  (0.0335245 0.0613505 0)
  (0.143826 0.0493944 0)
  (0.610518 -0.0900542 0)
  (0.224814 -0.268867 0)
  (0.256789 -0.236573 0)
  (0.29107 -0.157749 0)
  (0.292159 -0.0937293 0)
  (0.286225 -0.0497629 0)
  (0.279741 -0.0193845 0)
  (0.268552 0.00382496 0)
  (0.256306 0.0227545 0)
  (0.243761 0.0390987 0)
  (0.230831 0.0549131 0)
  (0.217337 0.0723883 0)
  (0.203767 0.0937151 0)
  (0.190604 0.120692 0)
  (0.182057 0.154342 0)
  (0.160016 0.148674 0)
  (0.121064 0.182487 0)
  (-0.144549 0.0301458 0)
  (0.0627373 -0.0291617 0)
  (0.0918535 -0.069629 0)
  (0.105572 -0.0887865 0)
  (0.118232 -0.0907801 0)
  (0.132707 -0.0849973 0)
  (0.133647 -0.0631831 0)
  (0.10978 -0.04082 0)
  (0.0891996 -0.0282202 0)
  (0.077925 -0.0206192 0)
  (0.0713623 -0.014744 0)
  (0.0672241 -0.00932245 0)
  (0.0673831 -0.00373757 0)
  (0.072919 0.00209448 0)
  (0.0854922 0.0110701 0)
  (0.0909819 0.0400484 0)
  (0.0833494 0.0637466 0)
  (0.0274743 0.088627 0)
  (0.179594 0.0899767 0)
  (0.749435 -0.339077 0)
  (0.0558988 -0.337731 0)
  (0.178923 -0.235288 0)
  (0.203972 -0.143085 0)
  (0.177363 -0.0765958 0)
  (0.155053 -0.0308954 0)
  (0.140671 0.000469249 0)
  (0.133354 0.0217487 0)
  (0.132033 0.0369814 0)
  (0.133035 0.0502805 0)
  (0.134821 0.0642726 0)
  (0.136773 0.0806159 0)
  (0.139069 0.100403 0)
  (0.142071 0.12421 0)
  (0.150831 0.152517 0)
  (0.164715 0.167154 0)
  (0.184005 0.204751 0)
  (0.228742 0.137575 0)
  (0.143798 0.0552016 0)
  (0.165029 -0.0167168 0)
  (0.170632 -0.067062 0)
  (0.164909 -0.0891573 0)
  (0.154973 -0.0903479 0)
  (0.139743 -0.0790711 0)
  (0.136461 -0.0462902 0)
  (0.154781 -0.0273357 0)
  (0.166351 -0.0168722 0)
  (0.166987 -0.0102418 0)
  (0.161213 -0.00523932 0)
  (0.152041 -0.00113333 0)
  (0.139873 0.00260779 0)
  (0.12366 0.00678737 0)
  (0.100024 0.0127401 0)
  (0.0799797 0.0454273 0)
  (0.0771789 0.07538 0)
  (0.025378 0.106405 0)
  (0.205956 0.140457 0)
  (0.805889 -0.420431 0)
  (-0.207564 -0.335166 0)
  (0.0998446 -0.218296 0)
  (0.0899709 -0.114187 0)
  (0.0409108 -0.0485331 0)
  (0.0164235 -0.00989921 0)
  (0.011866 0.00998203 0)
  (0.0192255 0.0211427 0)
  (0.0285895 0.0313369 0)
  (0.0395272 0.0431024 0)
  (0.0512781 0.0569204 0)
  (0.0636658 0.0730007 0)
  (0.0771127 0.0915711 0)
  (0.0926124 0.112798 0)
  (0.114603 0.136382 0)
  (0.142435 0.149856 0)
  (0.175774 0.156412 0)
  (0.208189 0.0866489 0)
  (0.213158 0.028255 0)
  (0.218019 -0.0260125 0)
  (0.207618 -0.0620758 0)
  (0.187954 -0.0765312 0)
  (0.165627 -0.0735939 0)
  (0.144126 -0.0576969 0)
  (0.131978 -0.0273414 0)
  (0.129012 -0.00702821 0)
  (0.124485 0.00371464 0)
  (0.116124 0.00992928 0)
  (0.106219 0.0143442 0)
  (0.0958965 0.0180927 0)
  (0.0852157 0.0219921 0)
  (0.0739765 0.0271112 0)
  (0.0614828 0.0353718 0)
  (0.05333 0.0575713 0)
  (0.0628451 0.0812989 0)
  (0.0382663 0.103016 0)
  (0.142799 0.142221 0)
  (0.125888 0.108636 0)
  (-0.0453096 0.08196 0)
  (0.311105 0.0283834 0)
  (0.830009 -0.425534 0)
  (-0.340217 -0.324033 0)
  (0.0442587 -0.223519 0)
  (-0.0132058 -0.0740801 0)
  (-0.0566399 -0.025369 0)
  (-0.0656653 -0.00713843 0)
  (-0.0628279 0.00108965 0)
  (-0.0538685 0.00799584 0)
  (-0.0428878 0.016782 0)
  (-0.0297447 0.0277488 0)
  (-0.0148762 0.0407355 0)
  (0.00237112 0.0561352 0)
  (0.0216851 0.0731815 0)
  (0.0433477 0.0909487 0)
  (0.0703577 0.107863 0)
  (0.100917 0.114207 0)
  (0.137428 0.107133 0)
  (0.169348 0.0607583 0)
  (0.185577 0.014652 0)
  (0.186319 -0.0231633 0)
  (0.17324 -0.0464813 0)
  (0.15195 -0.0545311 0)
  (0.127894 -0.0499873 0)
  (0.104955 -0.0362947 0)
  (0.0872661 -0.0160085 0)
  (0.0749913 0.000423568 0)
  (0.0654216 0.010556 0)
  (0.0570842 0.0166725 0)
  (0.0491605 0.0211101 0)
  (0.041665 0.0250616 0)
  (0.0345698 0.0293211 0)
  (0.0280608 0.0347633 0)
  (0.0219609 0.0427084 0)
  (0.0198541 0.0581734 0)
  (0.0336824 0.0746998 0)
  (0.0209525 0.081058 0)
  (0.0728366 0.105618 0)
  (0.0744331 0.076169 0)
  (-0.104978 0.0757739 0)
  (0.36087 0.00813638 0)
  (0.799705 -0.374199 0)
  (-0.336089 -0.282173 0)
  (-0.0567998 -0.210152 0)
  (-0.0795882 -0.0531372 0)
  (-0.109528 -0.0200521 0)
  (-0.108944 -0.0107342 0)
  (-0.104123 -0.00681974 0)
  (-0.0969623 -0.00249442 0)
  (-0.0874525 0.00430131 0)
  (-0.0761601 0.0132199 0)
  (-0.0627067 0.023956 0)
  (-0.0466718 0.0363271 0)
  (-0.0277402 0.0499097 0)
  (-0.00520235 0.063953 0)
  (0.0232907 0.0761825 0)
  (0.053175 0.0786329 0)
  (0.0869545 0.0691418 0)
  (0.112664 0.0389947 0)
  (0.123262 0.0078276 0)
  (0.12027 -0.0155101 0)
  (0.106339 -0.0289063 0)
  (0.0859371 -0.0322781 0)
  (0.0632402 -0.0268799 0)
  (0.0417656 -0.0153364 0)
  (0.0236706 -0.000438671 0)
  (0.0115162 0.0116923 0)
  (0.00470276 0.0189693 0)
  (-0.000475902 0.0235395 0)
  (-0.00492413 0.0271643 0)
  (-0.00882889 0.0305923 0)
  (-0.0121582 0.034298 0)
  (-0.014618 0.0386955 0)
  (-0.0161401 0.0443429 0)
  (-0.0141786 0.0531089 0)
  (-0.000111154 0.0630509 0)
  (-0.00794776 0.0635453 0)
  (0.0276704 0.0874553 0)
  (0.047263 0.0892208 0)
  (-0.126376 0.098595 0)
  (0.351335 -0.0178261 0)
  (0.718343 -0.285414 0)
  (-0.357692 -0.222968 0)
  (-0.193039 -0.223467 0)
  (-0.131333 -0.0663869 0)
  (-0.14985 -0.0291624 0)
  (-0.13609 -0.0182566 0)
  (-0.128303 -0.0140152 0)
  (-0.12235 -0.0104418 0)
  (-0.115886 -0.00542272 0)
  (-0.107494 0.00151647 0)
  (-0.0972555 0.00993516 0)
  (-0.0846244 0.0194464 0)
  (-0.0690898 0.0294755 0)
  (-0.0502126 0.0391297 0)
  (-0.0272023 0.0469525 0)
  (-0.00149907 0.0488014 0)
  (0.0245979 0.0416839 0)
  (0.0403589 0.0245334 0)
  (0.0440834 0.00729533 0)
  (0.038676 -0.00537803 0)
  (0.0255164 -0.0119384 0)
  (0.00759542 -0.0118847 0)
  (-0.0122433 -0.0057417 0)
  (-0.0292252 0.00311374 0)
  (-0.0404735 0.0117659 0)
  (-0.046263 0.0183453 0)
  (-0.0492158 0.0229266 0)
  (-0.0509393 0.026475 0)
  (-0.0519936 0.0295922 0)
  (-0.0524613 0.0325276 0)
  (-0.0521776 0.0354235 0)
  (-0.0508305 0.0383751 0)
  (-0.0480488 0.0415933 0)
  (-0.0420367 0.0459156 0)
  (-0.029732 0.0513231 0)
  (-0.0258805 0.0534898 0)
  (0.00367831 0.0738489 0)
  (0.0502042 0.0957931 0)
  (-0.14579 0.105884 0)
  (0.664637 0.0476997 0)
  (0.600473 -0.225791 0)
  (-0.4485 -0.251822 0)
  (-0.395632 -0.293843 0)
  (-0.134981 -0.126109 0)
  (-0.166255 -0.0473047 0)
  (-0.149921 -0.0237329 0)
  (-0.144328 -0.0163818 0)
  (-0.141705 -0.0124797 0)
  (-0.138896 -0.00865485 0)
  (-0.13476 -0.00391793 0)
  (-0.128549 0.00197557 0)
  (-0.120338 0.00882467 0)
  (-0.109821 0.016011 0)
  (-0.096734 0.0227481 0)
  (-0.0812562 0.0279658 0)
  (-0.0648187 0.0299355 0)
  (-0.0500981 0.0276514 0)
  (-0.0422043 0.0208132 0)
  (-0.0424032 0.0130444 0)
  (-0.0491117 0.0072603 0)
  (-0.0593194 0.00489152 0)
  (-0.0712992 0.0061225 0)
  (-0.0820239 0.00956348 0)
  (-0.0894203 0.0135543 0)
  (-0.0935497 0.0175429 0)
  (-0.0949432 0.0211012 0)
  (-0.0946333 0.0241858 0)
  (-0.0932905 0.0269603 0)
  (-0.0911623 0.0294927 0)
  (-0.0882382 0.0317664 0)
  (-0.0843552 0.0337452 0)
  (-0.0792765 0.0354031 0)
  (-0.0726338 0.0368593 0)
  (-0.0634289 0.0385784 0)
  (-0.0508161 0.0406528 0)
  (-0.0386051 0.0415673 0)
  (-0.0142228 0.0516939 0)
  (0.0390686 0.0796058 0)
  (-0.143329 0.075953 0)
  (0.661467 0.069714 0)
  (-0.598428 -0.20687 0)
  (-0.0486139 -0.119992 0)
  (-0.134324 -0.0420036 0)
  (-0.154745 -0.0144626 0)
  (-0.160993 -0.00539088 0)
  (-0.16426 -0.000987973 0)
  (-0.166141 0.0027621 0)
  (-0.166447 0.0069104 0)
  (-0.164898 0.0115898 0)
  (-0.161141 0.016394 0)
  (-0.155801 0.0204449 0)
  (-0.148853 0.0243063 0)
  (-0.140639 0.0276531 0)
  (-0.132143 0.0298518 0)
  (-0.124992 0.0304465 0)
  (-0.12124 0.0292774 0)
  (-0.121446 0.0274234 0)
  (-0.124732 0.026115 0)
  (-0.129429 0.0262285 0)
  (-0.133898 0.0278625 0)
  (-0.136867 0.0303213 0)
  (-0.13788 0.0329368 0)
  (-0.137054 0.0354866 0)
  (-0.134687 0.0378339 0)
  (-0.131128 0.0399109 0)
  (-0.126597 0.0416359 0)
  (-0.121192 0.0428882 0)
  (-0.114957 0.0435387 0)
  (-0.107916 0.0434856 0)
  (-0.100086 0.0426806 0)
  (-0.0914172 0.0411701 0)
  (-0.0816695 0.0390683 0)
  (-0.0707572 0.0363612 0)
  (-0.0589834 0.0338282 0)
  (-0.0421639 0.0388845 0)
  (-0.0270747 0.0574777 0)
  (-0.160305 0.0482682 0)
  (0.405119 0.0889856 0)
  (-0.212329 -0.138656 0)
  (-0.0951358 -0.125689 0)
  (-0.14897 -0.116416 0)
  (-0.171999 -0.114817 0)
  (-0.183355 -0.114636 0)
  (-0.191446 -0.114073 0)
  (-0.198065 -0.112892 0)
  (-0.20324 -0.110871 0)
  (-0.206653 -0.107575 0)
  (-0.207899 -0.102347 0)
  (-0.206842 -0.0943238 0)
  (-0.203859 -0.0867372 0)
  (-0.199158 -0.0803976 0)
  (-0.19333 -0.076024 0)
  (-0.187298 -0.0742965 0)
  (-0.18215 -0.0756049 0)
  (-0.178503 -0.0794455 0)
  (-0.176304 -0.0847206 0)
  (-0.174961 -0.0901366 0)
  (-0.173699 -0.0947781 0)
  (-0.1719 -0.0983744 0)
  (-0.16926 -0.100942 0)
  (-0.165675 -0.10257 0)
  (-0.161135 -0.103464 0)
  (-0.155675 -0.103849 0)
  (-0.149341 -0.103919 0)
  (-0.142203 -0.103839 0)
  (-0.134376 -0.10376 0)
  (-0.126033 -0.103833 0)
  (-0.117433 -0.104203 0)
  (-0.108925 -0.104957 0)
  (-0.100845 -0.106007 0)
  (-0.0930252 -0.106517 0)
  (-0.0839727 -0.102939 0)
  (-0.07285 -0.0879691 0)
  (-0.0731102 -0.0639238 0)
  (-0.122898 -0.0651426 0)
  (0.30444 -0.0369405 0)
  (-0.169014 0.26083 0)
  (0.019971 -0.388455 0)
  (-0.201325 0.380761 0)
  (-0.193084 0.336439 0)
  (-0.204625 0.326023 0)
  (-0.213403 0.327907 0)
  (-0.222047 0.326495 0)
  (-0.230829 0.323831 0)
  (-0.239294 0.321149 0)
  (-0.24696 0.318436 0)
  (-0.253459 0.315182 0)
  (-0.258351 0.310613 0)
  (-0.260782 0.304056 0)
  (-0.260527 0.299261 0)
  (-0.257538 0.296871 0)
  (-0.252061 0.297313 0)
  (-0.244691 0.300823 0)
  (-0.236318 0.307267 0)
  (-0.227816 0.315985 0)
  (-0.21976 0.325935 0)
  (-0.212315 0.335992 0)
  (-0.205325 0.345329 0)
  (-0.198526 0.353582 0)
  (-0.191667 0.360717 0)
  (-0.184527 0.366876 0)
  (-0.17694 0.372275 0)
  (-0.16882 0.377093 0)
  (-0.160164 0.38142 0)
  (-0.151051 0.385289 0)
  (-0.141628 0.388714 0)
  (-0.1321 0.391751 0)
  (-0.122741 0.394525 0)
  (-0.113884 0.397207 0)
  (-0.105625 0.399794 0)
  (-0.0971089 0.401306 0)
  (-0.0870587 0.398598 0)
  (-0.0803679 0.388606 0)
  (-0.0971328 0.379078 0)
  (-0.132081 0.395233 0)
  (0.375937 0.443086 0)
)
;

boundaryField
{
  floor
  {
    type noSlip;
  }
  ceiling
  {
    type noSlip;
  }
  sWall
  {
    type noSlip;
  }
  nWall
  {
    type noSlip;
  }
  sideWalls
  {
    type empty;
  }
  glass1
  {
    type noSlip;
  }
  glass2
  {
    type noSlip;
  }
  sun
  {
    type noSlip;
  }
  heatsource1
  {
    type noSlip;
  }
  heatsource2
  {
    type noSlip;
  }
  Table_master
  {
    type noSlip;
  }
  Table_slave
  {
    type noSlip;
  }
  inlet
  {
    type fixedValue;
    value uniform (0.3 0 0);
  }
  outlet
  {
    type zeroGradient;
  }
} 	// ************************************************************************* //

