/*--------------------------------*- C++ -*----------------------------------*\
  =========                 |
  \\      /  F ield         | OpenFOAM: The Open Source CFD Toolbox
   \\    /   O peration     | Website:  https://openfoam.org
    \\  /    A nd           | Version:  6
     \\/     M anipulation  |
\*---------------------------------------------------------------------------*/
FoamFile
{
    version     2.0;
    format      ascii;
    class       volScalarField;
    location    "300";
    object      epsilon;
}
// * * * * * * * * * * * * * * * * * * * * * * * * * * * * * * * * * * * * * //

dimensions      [0 2 -3 0 0 0 0];

internalField   nonuniform List<scalar> 
459
(
0.000129656
0.000144602
0.000135522
0.000150044
0.000163652
0.000175922
0.000187038
0.00019734
0.00020729
0.000217563
0.000226343
0.000232728
0.000236332
0.000237637
0.000235976
4.10817e-05
8.4867e-05
8.97503e-05
8.66054e-05
8.16322e-05
7.47949e-05
6.4851e-05
5.52726e-05
4.72915e-05
4.06038e-05
3.49928e-05
3.02699e-05
2.6267e-05
2.2834e-05
1.98286e-05
1.71131e-05
1.45448e-05
1.32348e-05
1.042e-05
0.000490375
0.00113426
0.000132803
0.000112548
0.000111866
0.000113172
0.000115975
0.000121214
0.000129908
0.000142995
0.000158412
0.000174699
0.0001899
0.000202207
0.000216368
0.000264364
0.000126763
0.00016806
0.000119951
9.22384e-05
7.60285e-05
6.45486e-05
5.6402e-05
5.27511e-05
4.4424e-05
3.72811e-05
3.11982e-05
2.60796e-05
2.18321e-05
1.83265e-05
1.54403e-05
1.31628e-05
1.18387e-05
1.15301e-05
3.92526e-05
2.46628e-05
0.00116407
0.00376673
0.000232508
0.000114538
0.000108673
0.000111295
0.000116673
0.000125091
0.000136826
0.000151764
0.000168176
0.000183251
0.000195209
0.000205556
0.000222504
0.000264128
0.000368402
0.000288495
0.000148723
0.000117724
8.94554e-05
7.12784e-05
6.38634e-05
0.000129042
8.35178e-05
5.77502e-05
4.23183e-05
3.2533e-05
2.59952e-05
2.14488e-05
1.82477e-05
1.61709e-05
1.32162e-05
1.29306e-05
8.65239e-05
4.17035e-05
0.00231279
0.00888162
0.000522908
0.000130062
0.000114129
0.000120163
0.000129463
0.000141592
0.00015688
0.000175526
0.000195593
0.000210965
0.000218593
0.000220819
0.000225802
0.000249424
0.000322328
0.00046263
0.000248968
0.0001501
0.000118813
8.76266e-05
6.71175e-05
6.01628e-05
0.000124249
0.00010399
9.80339e-05
9.58343e-05
9.30875e-05
8.73188e-05
7.80484e-05
6.90161e-05
5.89793e-05
3.76732e-05
2.6996e-05
0.000182204
5.92589e-05
0.00404737
0.0165709
0.00124832
0.00016626
0.000119148
0.000127482
0.000142402
0.000162033
0.000187058
0.000217888
0.000250531
0.000271867
0.000277089
0.00026901
0.000252476
0.000232523
0.000213965
0.000187795
0.000140758
0.00012167
0.000111557
9.18636e-05
7.12856e-05
6.24992e-05
6.43418e-05
6.60724e-05
6.89314e-05
7.13396e-05
7.14988e-05
6.78717e-05
6.04284e-05
5.37752e-05
4.86613e-05
4.13815e-05
3.42568e-05
0.00011753
7.62289e-05
0.000116407
0.000192306
0.000268696
0.0064745
0.0245301
0.003001
0.000303911
0.000140048
0.000137647
0.000154215
0.000180742
0.000219347
0.000275992
0.000332671
0.00036116
0.000362065
0.000344392
0.000314429
0.000273564
0.000221544
0.000166192
0.000125405
0.000112738
0.000118107
0.000105408
8.44376e-05
7.43684e-05
7.37164e-05
7.82503e-05
8.52043e-05
9.22621e-05
9.67771e-05
9.5692e-05
8.60903e-05
7.0275e-05
5.70807e-05
4.67625e-05
4.13255e-05
7.5055e-05
7.72385e-05
8.99814e-05
0.00036184
0.000312598
0.00976383
0.0286798
0.00725802
0.00129891
0.00041347
0.000254847
0.000230759
0.000247269
0.000290003
0.000395233
0.000469409
0.000486588
0.000468022
0.000431693
0.000386175
0.000331703
0.000266109
0.000197057
0.00014033
0.000117275
0.000134482
0.000129489
0.000106018
9.43231e-05
9.29793e-05
9.8772e-05
0.000109189
0.000122152
0.000134773
0.000143803
0.000143246
0.000120146
9.66632e-05
7.89325e-05
7.27825e-05
9.11823e-05
0.000123949
0.000222278
0.000538437
0.0004876
0.0108527
0.03721
0.017212
0.00851326
0.0038534
0.00176593
0.00100882
0.000758442
0.000701916
0.000737521
0.000715971
0.000660847
0.000593195
0.000524012
0.00045662
0.000389367
0.00031898
0.000246542
0.000172864
0.000129683
0.000157745
0.000166368
0.000141411
0.000126486
0.0001238
0.00012955
0.000141519
0.000158957
0.000181881
0.000210163
0.000241706
0.000269437
0.000261917
0.000276725
0.000339098
0.000552047
0.00113355
0.00240708
0.00714099
0.00170734
0.0102858
0.0186972
0.0149572
0.0109231
0.00751393
0.00493739
0.00326061
0.00226293
0.00169987
0.0013158
0.00104832
0.0008572
0.000715403
0.000604931
0.000514019
0.000435181
0.000364268
0.000298765
0.000219161
0.00014961
0.000187575
0.000222638
0.00020147
0.000180672
0.000173304
0.000174711
0.00018283
0.000198555
0.000224801
0.000265921
0.00032721
0.000414875
0.000536107
0.000709897
0.000979797
0.00134495
0.00174592
0.00206201
0.00228039
0.00130373
0.00652576
0.00786277
0.0062325
0.00458357
0.00332394
0.0024438
0.00184901
0.00143781
0.00114603
0.000933575
0.000773298
0.000647536
0.000545538
0.000461683
0.000394135
0.000336568
0.000254856
0.000174287
0.000224774
0.0003166
0.000313696
0.000284282
0.000270688
0.000264908
0.000262609
0.000264963
0.000275326
0.000298637
0.000342086
0.000415809
0.000526732
0.000682676
0.00088734
0.00111094
0.00127564
0.00128227
0.0010621
0.000698753
0.00470958
0.00724571
0.005719
0.00421002
0.0031547
0.00238793
0.00182961
0.00142128
0.00111718
0.000887033
0.000710699
0.000574343
0.000468689
0.000387967
0.000328853
0.000285943
0.000252106
0.000196757
0.000271065
0.00040545
0.000420397
0.00040567
0.000389579
0.000374682
0.000361041
0.000352977
0.000355589
0.000373414
0.000410997
0.000475995
0.000575129
0.00071348
0.000889202
0.00109224
0.00125311
0.00136422
0.000926388
0.000728768
0.00325708
0.00372198
0.00417193
0.00491967
0.00405518
0.00302233
0.00243679
0.00198043
0.00161723
0.00132564
0.00109759
0.000918906
0.000771564
0.000646656
0.000539705
0.000448599
0.000372477
0.000310609
0.000260459
0.000214566
0.000226963
0.000261031
0.000264874
0.000261868
0.000262211
0.000265755
0.000273086
0.000285884
0.000306093
0.0003364
0.000381816
0.000441104
0.000518703
0.000617045
0.000738571
0.000922123
0.000982615
0.000914947
0.000743118
0.000584009
)
;

boundaryField
{
    floor
    {
        Cmu             0.09;
        kappa           0.41;
        E               9.8;
        type            epsilonWallFunction;
        value           nonuniform List<scalar> 
29
(
0.000235976
4.10817e-05
8.4867e-05
8.97503e-05
8.66054e-05
8.16322e-05
7.47949e-05
6.4851e-05
5.52726e-05
4.72915e-05
4.06038e-05
3.49928e-05
3.02699e-05
2.6267e-05
2.2834e-05
1.98286e-05
1.71131e-05
1.45448e-05
1.32348e-05
1.042e-05
1.042e-05
2.46628e-05
4.17035e-05
5.92589e-05
0.000235976
4.10817e-05
0.00016806
0.000288495
0.00046263
)
;
    }
    ceiling
    {
        Cmu             0.09;
        kappa           0.41;
        E               9.8;
        type            epsilonWallFunction;
        value           nonuniform List<scalar> 
43
(
0.00325708
0.00372198
0.00417193
0.00491967
0.00405518
0.00302233
0.00243679
0.00198043
0.00161723
0.00132564
0.00109759
0.000918906
0.000771564
0.000646656
0.000539705
0.000448599
0.000372477
0.000310609
0.000260459
0.000214566
0.000226963
0.000261031
0.000264874
0.000261868
0.000262211
0.000265755
0.000273086
0.000285884
0.000306093
0.0003364
0.000381816
0.000441104
0.000518703
0.000617045
0.000738571
0.000922123
0.000982615
0.000914947
0.000743118
0.000584009
0.0102858
0.0186972
0.00470958
)
;
    }
    sWall
    {
        Cmu             0.09;
        kappa           0.41;
        E               9.8;
        type            epsilonWallFunction;
        value           uniform 0.00325708;
    }
    nWall
    {
        Cmu             0.09;
        kappa           0.41;
        E               9.8;
        type            epsilonWallFunction;
        value           nonuniform List<scalar> 6(0.000268696 0.000312598 0.0004876 0.000698753 0.000728768 0.000584009);
    }
    sideWalls
    {
        type            empty;
    }
    glass1
    {
        Cmu             0.09;
        kappa           0.41;
        E               9.8;
        type            epsilonWallFunction;
        value           nonuniform List<scalar> 9(0.000129656 0.000490375 0.00116407 0.00231279 0.00404737 0.0064745 0.00976383 0.0108527 0.0102858);
    }
    glass2
    {
        Cmu             0.09;
        kappa           0.41;
        E               9.8;
        type            epsilonWallFunction;
        value           nonuniform List<scalar> 2(0.00170734 0.00130373);
    }
    sun
    {
        Cmu             0.09;
        kappa           0.41;
        E               9.8;
        type            epsilonWallFunction;
        value           nonuniform List<scalar> 
14
(
0.000129656
0.000144602
0.000135522
0.000150044
0.000163652
0.000175922
0.000187038
0.00019734
0.00020729
0.000217563
0.000226343
0.000232728
0.000236332
0.000237637
)
;
    }
    heatsource1
    {
        Cmu             0.09;
        kappa           0.41;
        E               9.8;
        type            epsilonWallFunction;
        value           nonuniform List<scalar> 3(0.000116407 0.000192306 0.000268696);
    }
    heatsource2
    {
        Cmu             0.09;
        kappa           0.41;
        E               9.8;
        type            epsilonWallFunction;
        value           nonuniform List<scalar> 4(0.000264364 0.000126763 0.000126763 0.000368402);
    }
    Table_master
    {
        Cmu             0.09;
        kappa           0.41;
        E               9.8;
        type            epsilonWallFunction;
        value           nonuniform List<scalar> 9(0.000129042 8.35178e-05 5.77502e-05 4.23183e-05 3.2533e-05 2.59952e-05 2.14488e-05 1.82477e-05 1.61709e-05);
    }
    Table_slave
    {
        Cmu             0.09;
        kappa           0.41;
        E               9.8;
        type            epsilonWallFunction;
        value           nonuniform List<scalar> 9(0.000124249 0.00010399 9.80339e-05 9.58343e-05 9.30875e-05 8.73188e-05 7.80484e-05 6.90161e-05 5.89793e-05);
    }
    inlet
    {
        type            turbulentMixingLengthDissipationRateInlet;
        mixingLength    0.01;
        phi             phi;
        k               k;
        value           uniform 0.000101881;
    }
    outlet
    {
        type            zeroGradient;
    }
}


// ************************************************************************* //
