/*--------------------------------*- C++ -*----------------------------------*\
  =========                 |
  \\      /  F ield         | OpenFOAM: The Open Source CFD Toolbox
   \\    /   O peration     | Website:  https://openfoam.org
    \\  /    A nd           | Version:  6
     \\/     M anipulation  |
\*---------------------------------------------------------------------------*/
FoamFile
{
    version     2.0;
    format      ascii;
    class       volScalarField;
    location    "100";
    object      alphat;
}
// * * * * * * * * * * * * * * * * * * * * * * * * * * * * * * * * * * * * * //

dimensions      [1 -1 -1 0 0 0 0];

internalField   nonuniform List<scalar> 
459
(
0.000867047
0.000883628
0.000718494
0.000717691
0.000741158
0.000766847
0.000793523
0.000821316
0.000851201
0.0008797
0.000904065
0.000922097
0.000931398
0.000929084
0.000907521
0.000425483
0.000467771
0.000417349
0.00032338
0.000265319
0.00023495
0.00021675
0.000208556
0.000211405
0.0002268
0.000253643
0.000289888
0.000334532
0.000393143
0.000475653
0.000572965
0.000604837
0.000572856
0.000488147
0.00157715
0.00315856
0.00190184
0.00290522
0.00325068
0.0034432
0.00364002
0.00383142
0.00398821
0.00410903
0.00416741
0.00411732
0.00388177
0.0033321
0.00231636
0.000982524
0.000683984
0.000515369
0.00157427
0.0011832
0.00082218
0.000558991
0.000404967
0.000377861
0.000363714
0.000361677
0.000389848
0.000472297
0.000624565
0.000849399
0.00111543
0.00139673
0.00186494
0.00168973
0.00136143
0.000532473
0.00218257
0.00554371
0.00231483
0.00352335
0.00480009
0.00518924
0.00542497
0.00562184
0.00577233
0.00587401
0.00589501
0.00577967
0.00544097
0.00475953
0.00364883
0.00226025
0.00103067
0.000796445
0.00207327
0.00159052
0.00114801
0.000831878
0.000557113
0.000244809
0.000242791
0.000281471
0.00034329
0.000418473
0.00049994
0.000588829
0.000693455
0.000828319
0.00228123
0.00202533
0.00149583
0.000864945
0.00272838
0.00826901
0.00339057
0.00337199
0.00528882
0.00601982
0.00635475
0.00661083
0.00682307
0.0069965
0.00712134
0.00714276
0.00696656
0.00645139
0.00543601
0.00388237
0.00217605
0.00114649
0.00256057
0.00287748
0.00255863
0.00214013
0.00173758
0.00131152
0.000913143
0.000906889
0.000900495
0.000893852
0.000889863
0.000893618
0.00091317
0.000960873
0.00105761
0.00314431
0.00324604
0.00284601
0.00122505
0.0032138
0.0109847
0.00532626
0.003613
0.00497523
0.00597912
0.006506
0.00689445
0.00723008
0.00755336
0.00790233
0.00824366
0.00851838
0.00864911
0.00855262
0.00817197
0.00753227
0.0067634
0.00619881
0.00594355
0.00581264
0.0057485
0.00566308
0.00546848
0.00523878
0.00507082
0.00486782
0.00462664
0.00436597
0.00412669
0.00396242
0.00391101
0.00396958
0.00411838
0.00408003
0.0039334
0.00345422
0.0014829
0.00126316
0.00114885
0.00365419
0.0132907
0.00833561
0.00524117
0.00470037
0.00520711
0.00584692
0.00639252
0.006829
0.00729683
0.00785691
0.00848499
0.00912296
0.00969559
0.0101223
0.0103275
0.0102578
0.0099251
0.00943959
0.00894795
0.00862515
0.00843045
0.00825276
0.0080665
0.00784604
0.00757693
0.0072402
0.00682379
0.00632927
0.0057921
0.00529105
0.00491229
0.00467981
0.00454214
0.00442751
0.00427311
0.00398676
0.003623
0.00245158
0.00137165
0.00402303
0.0146345
0.0117739
0.00838582
0.00609084
0.00519377
0.00526795
0.00566006
0.00600099
0.00643294
0.00702641
0.00779315
0.00867245
0.00955928
0.0103408
0.0109141
0.0111938
0.0111679
0.0109088
0.0105535
0.0102285
0.00997173
0.00976267
0.00957557
0.00938121
0.00915798
0.00888733
0.00854193
0.00808521
0.00749032
0.00678244
0.0060707
0.00548114
0.00505361
0.00473137
0.00442165
0.0040296
0.0035294
0.00294531
0.00132688
0.00403428
0.0131473
0.0117952
0.010699
0.00872109
0.00708606
0.00618928
0.00583211
0.00573714
0.00579583
0.00606438
0.00659937
0.00740265
0.00838944
0.00940462
0.0102884
0.0108727
0.0111411
0.0111418
0.0109768
0.0107555
0.0105445
0.0103644
0.010213
0.0100795
0.00995483
0.00983207
0.00969485
0.00950716
0.00920946
0.00873567
0.00807354
0.00727657
0.00647425
0.00576991
0.00516591
0.00458441
0.00403377
0.00359581
0.00178695
0.00383893
0.00442188
0.00996346
0.010697
0.00946756
0.00808468
0.00699214
0.00624778
0.00578496
0.005543
0.00552223
0.00573232
0.00619102
0.00689774
0.00778075
0.0086907
0.00945571
0.00997905
0.0102483
0.0103172
0.0102665
0.0101647
0.0100532
0.00995246
0.00987115
0.00981538
0.00979296
0.00980885
0.0098562
0.00990425
0.00988354
0.00969579
0.00934916
0.00894126
0.00864223
0.00838644
0.0078164
0.00669829
0.00681737
0.00193556
0.0213594
0.0199774
0.0115212
0.00905947
0.00775365
0.00689956
0.00633171
0.00597358
0.00578165
0.00573747
0.00583976
0.00609355
0.00649654
0.00701795
0.00758594
0.00811031
0.00851942
0.00878595
0.00892492
0.00897187
0.00896326
0.00892763
0.00888553
0.00885427
0.00885129
0.0088934
0.00899204
0.00914303
0.00930511
0.00941491
0.00942862
0.00931917
0.00908165
0.00860588
0.00781562
0.00670159
0.00569139
0.00187428
0.00761922
0.0158568
0.011124
0.00870408
0.00737218
0.00654414
0.00601777
0.00570003
0.00554064
0.00550985
0.00558351
0.00574047
0.0059637
0.00623746
0.00654008
0.00684097
0.00710747
0.00731674
0.00746205
0.00755009
0.00759378
0.00760118
0.00757963
0.00754572
0.00751475
0.00749918
0.00750698
0.007537
0.00756216
0.00757677
0.00755927
0.00748149
0.00724736
0.00682066
0.00619591
0.00532213
0.00503319
0.00171202
0.00197537
0.00295087
0.0054681
0.00497281
0.00411376
0.00344301
0.0029536
0.00259181
0.00231773
0.00210633
0.00194243
0.00181686
0.00172355
0.00165767
0.00161494
0.00159106
0.0015815
0.00158142
0.00158592
0.00159081
0.00159329
0.00159211
0.00158719
0.0015798
0.00157111
0.00156128
0.00155078
0.00154015
0.00152987
0.00152027
0.00151368
0.0015083
0.00150007
0.00148318
0.00145794
0.00142746
0.00138857
0.00133968
0.00135816
0.00124259
)
;

boundaryField
{
    floor
    {
        type            compressible::alphatWallFunction;
        Prt             0.85;
        value           nonuniform List<scalar> 
29
(
0.00012922
5.7732e-05
6.42989e-05
5.64663e-05
4.15062e-05
3.19783e-05
2.68844e-05
2.37856e-05
2.23752e-05
2.28589e-05
2.54839e-05
3.00093e-05
3.60231e-05
4.32984e-05
5.26588e-05
6.55273e-05
8.03493e-05
8.51329e-05
8.03264e-05
6.74391e-05
6.74383e-05
7.42042e-05
0.000123156
0.000173683
0.000129219
5.77312e-05
7.15982e-05
0.000113266
0.000162762
)
;
    }
    ceiling
    {
        type            compressible::alphatWallFunction;
        Prt             0.85;
        value           nonuniform List<scalar> 
43
(
0.000274349
0.00039876
0.000702704
0.000644232
0.000541428
0.000459656
0.000398966
0.000353431
0.000318488
0.000291235
0.000269901
0.000253424
0.000241096
0.000232348
0.00022665
0.000223455
0.000222172
0.000222157
0.000222755
0.000223404
0.000223733
0.000223571
0.000222912
0.00022192
0.000220754
0.000219436
0.000218027
0.000216601
0.00021522
0.00021393
0.000213043
0.000212318
0.000211211
0.000208935
0.000205532
0.000201413
0.000196142
0.000189495
0.000192004
0.00017621
0.00050803
0.000578434
0.000951092
)
;
    }
    sWall
    {
        type            compressible::alphatWallFunction;
        Prt             0.85;
        value           uniform 0.000273409;
    }
    nWall
    {
        type            compressible::alphatWallFunction;
        Prt             0.85;
        value           nonuniform List<scalar> 6(0.000162926 0.000193514 0.000187419 0.000260549 0.000239153 0.000175903);
    }
    sideWalls
    {
        type            empty;
    }
    glass1
    {
        type            compressible::alphatWallFunction;
        Prt             0.85;
        value           nonuniform List<scalar> 9(0.000120135 0.000216601 0.000295207 0.000364222 0.000424485 0.00047841 0.000523111 0.00052462 0.000501261);
    }
    glass2
    {
        type            compressible::alphatWallFunction;
        Prt             0.85;
        value           nonuniform List<scalar> 2(0.000247995 0.000267458);
    }
    sun
    {
        type            compressible::alphatWallFunction;
        Prt             0.85;
        value           nonuniform List<scalar> 
14
(
0.00012346
0.000125815
0.000101938
0.000101821
0.000105252
0.000108993
0.000112862
0.000116876
0.000121174
0.000125256
0.000128734
0.0001313
0.00013262
0.00013229
)
;
    }
    heatsource1
    {
        type            compressible::alphatWallFunction;
        Prt             0.85;
        value           nonuniform List<scalar> 3(0.00020883 0.00017897 0.00016322);
    }
    heatsource2
    {
        type            compressible::alphatWallFunction;
        Prt             0.85;
        value           nonuniform List<scalar> 4(0.000139952 9.69634e-05 9.69622e-05 0.00014672);
    }
    Table_master
    {
        type            compressible::alphatWallFunction;
        Prt             0.85;
        value           nonuniform List<scalar> 9(2.86153e-05 2.82615e-05 3.46922e-05 4.47516e-05 5.66844e-05 6.93124e-05 8.27987e-05 9.83532e-05 0.000117988);
    }
    Table_slave
    {
        type            compressible::alphatWallFunction;
        Prt             0.85;
        value           nonuniform List<scalar> 9(0.000130138 0.000129251 0.000128342 0.000127395 0.000126825 0.000127359 0.000130142 0.000136908 0.000150519);
    }
    inlet
    {
        type            fixedValue;
        value           uniform 1.94e-05;
    }
    outlet
    {
        type            zeroGradient;
    }
}


// ************************************************************************* //
