/*--------------------------------*- C++ -*----------------------------------*\
  =========                 |
  \\      /  F ield         | OpenFOAM: The Open Source CFD Toolbox
   \\    /   O peration     | Website:  https://openfoam.org
    \\  /    A nd           | Version:  6
     \\/     M anipulation  |
\*---------------------------------------------------------------------------*/
FoamFile
{
    version     2.0;
    format      ascii;
    class       volScalarField;
    location    "100";
    object      epsilon;
}
// * * * * * * * * * * * * * * * * * * * * * * * * * * * * * * * * * * * * * //

dimensions      [0 2 -3 0 0 0 0];

internalField   nonuniform List<scalar> 
459
(
0.000147991
0.000156159
8.39544e-05
8.36837e-05
9.21749e-05
0.000102106
0.000113147
0.000125466
0.000139677
0.000154188
0.000167358
0.000177566
0.000182979
0.000181595
0.000169211
1.73842e-05
2.30916e-05
1.64105e-05
7.63592e-06
4.21728e-06
2.9283e-06
2.29821e-06
2.04606e-06
2.12978e-06
2.62898e-06
3.6777e-06
5.49318e-06
8.44902e-06
1.37245e-05
2.43126e-05
4.25152e-05
5.00159e-05
4.24705e-05
2.62649e-05
0.000892849
0.00198539
0.000185914
6.87169e-05
6.54879e-05
7.09066e-05
7.78631e-05
8.59662e-05
9.56521e-05
0.000106758
0.000119041
0.000132126
0.00014475
0.000154244
0.000162032
0.000214687
7.2364e-05
3.08811e-05
9.7937e-05
2.58325e-05
1.03348e-05
5.97307e-06
3.49555e-06
1.95285e-06
1.9654e-06
2.53557e-06
3.97116e-06
6.71647e-06
1.13118e-05
1.87871e-05
3.12583e-05
4.86654e-05
5.85223e-05
6.05179e-05
6.82066e-05
3.40838e-05
0.00237146
0.00662978
0.000630193
0.000109767
7.53e-05
7.74432e-05
8.48203e-05
9.41353e-05
0.000105104
0.000117684
0.000131469
0.000146085
0.000160573
0.000173045
0.000182751
0.000197824
0.000247705
0.000114006
0.000117035
4.68809e-05
3.59466e-05
3.35688e-05
2.99006e-05
3.30324e-06
3.21777e-06
5.00818e-06
9.08879e-06
1.64861e-05
2.81566e-05
4.60764e-05
7.53746e-05
0.000128654
9.74453e-05
0.000102116
0.000122261
0.000146627
0.00464199
0.0139732
0.00166068
0.000215572
0.000101349
9.46529e-05
0.000101734
0.000112391
0.000124963
0.000139104
0.000153871
0.000168881
0.000183366
0.000195945
0.000206223
0.000219446
0.000253832
0.000340728
0.000148741
9.31698e-05
8.11475e-05
8.79665e-05
0.000102063
0.000126414
0.000172645
0.000169152
0.000165624
0.000162007
0.000159867
0.000161916
0.000172799
0.000201359
0.000268608
0.000170119
0.000199143
0.000242833
0.000418346
0.00760083
0.0226984
0.00357665
0.000503308
0.00017416
0.000135778
0.000137039
0.000147571
0.00016179
0.000177605
0.000193615
0.000210112
0.000226528
0.000240171
0.000246257
0.000240052
0.000220509
0.000186427
0.000133004
0.000108212
0.000101374
0.000103587
0.000109058
0.000114384
0.000118249
0.000118993
0.000120276
0.000123233
0.000129281
0.000140541
0.000159859
0.000190268
0.000233042
0.000282082
0.000355898
0.000444755
0.000531275
0.000743032
0.000458718
0.000344266
0.0111921
0.0296699
0.00678679
0.00144455
0.000483979
0.000284464
0.000240201
0.000233709
0.000240742
0.000248865
0.000257897
0.00027056
0.000287828
0.000307205
0.000322393
0.000324555
0.000305871
0.000266296
0.000218302
0.000180779
0.000161863
0.000155662
0.00015464
0.000155662
0.000156508
0.000156949
0.000158256
0.000161487
0.00016821
0.000181168
0.000204712
0.0002446
0.000306733
0.000395634
0.000515037
0.000659601
0.000799389
0.000956095
0.000621046
0.000587768
0.0149581
0.0318724
0.0122644
0.00469567
0.0020109
0.00101099
0.000659963
0.000516348
0.000451666
0.000404326
0.000371952
0.000356399
0.000357939
0.000373002
0.000393477
0.000407079
0.000401104
0.000371412
0.000326933
0.000284034
0.000253229
0.000235377
0.000226614
0.000222989
0.000221609
0.000221559
0.00022324
0.000227377
0.000235251
0.000249476
0.000275078
0.000320124
0.000393753
0.000503731
0.000653825
0.000837874
0.00102611
0.00116868
0.00120402
0.000532114
0.0151174
0.0346008
0.0209774
0.0146548
0.00831637
0.00439992
0.00246447
0.00153062
0.00103633
0.000768502
0.000604287
0.000505412
0.00045465
0.000440419
0.000451015
0.000471043
0.000479982
0.000467476
0.000435946
0.00039738
0.00036327
0.000338473
0.000322669
0.000313546
0.000308635
0.00030674
0.000307871
0.000312629
0.000322283
0.000339493
0.000369783
0.000423245
0.000511723
0.000647479
0.00083155
0.00105667
0.00133136
0.00168633
0.00210852
0.00130403
0.0130649
0.019935
0.0523162
0.0381743
0.0212072
0.0113668
0.00623255
0.00359716
0.00220864
0.0014354
0.00099679
0.000747768
0.00061032
0.000543352
0.000522804
0.000529669
0.000544011
0.000549833
0.000540343
0.00051903
0.00049368
0.000470248
0.000451416
0.0004375
0.000427615
0.000421079
0.00041781
0.000418128
0.000422749
0.00043316
0.000452675
0.000485337
0.00053937
0.000624981
0.000749114
0.000908624
0.00108738
0.0014071
0.00405669
0.00165763
0.15575
0.138769
0.0280157
0.0119411
0.00638417
0.00379295
0.00243965
0.00168396
0.00124032
0.000973036
0.000813534
0.000722707
0.000678378
0.000666389
0.000674319
0.000689354
0.000700526
0.000702303
0.000694923
0.000681571
0.00066569
0.000649574
0.000634215
0.000620368
0.000608682
0.000599638
0.000593497
0.000590235
0.000589614
0.000591873
0.000598362
0.000609734
0.000621171
0.000626725
0.000638041
0.000729378
0.00145407
0.00150398
0.104473
0.0737484
0.0245371
0.0109507
0.00601098
0.00377706
0.00262772
0.00198955
0.00162235
0.00141179
0.0012972
0.00124364
0.00122864
0.00123635
0.00125363
0.00126903
0.00127452
0.00126734
0.00124924
0.00122401
0.00119551
0.00116588
0.00113549
0.00110501
0.00107482
0.00104458
0.00101312
0.000978656
0.000936355
0.000884311
0.000826915
0.000773645
0.000732684
0.000705401
0.000696518
0.000733162
0.00175248
0.0011465
0.0018263
0.00608171
0.0385948
0.0288917
0.0162963
0.00952981
0.00600606
0.00405333
0.00289579
0.0021717
0.00170188
0.00139174
0.0011873
0.00105559
0.00097538
0.000932121
0.000914829
0.000914112
0.000921376
0.000929367
0.000933175
0.000930562
0.000921455
0.000908118
0.000892713
0.000875588
0.000857575
0.000839623
0.000822488
0.000806673
0.000795807
0.000786923
0.000773709
0.000747487
0.00070966
0.000665795
0.000612598
0.000549944
0.000572762
0.000438586
)
;

boundaryField
{
    floor
    {
        Cmu             0.09;
        kappa           0.41;
        E               9.8;
        type            epsilonWallFunction;
        value           nonuniform List<scalar> 
29
(
0.000169211
1.73842e-05
2.30916e-05
1.64105e-05
7.63592e-06
4.21728e-06
2.9283e-06
2.29821e-06
2.04606e-06
2.12978e-06
2.62898e-06
3.6777e-06
5.49318e-06
8.44902e-06
1.37245e-05
2.43126e-05
4.25152e-05
5.00159e-05
4.24705e-05
2.62649e-05
2.62649e-05
3.40838e-05
0.000146627
0.000418346
0.000169211
1.73842e-05
3.08811e-05
0.000114006
0.000340728
)
;
    }
    ceiling
    {
        Cmu             0.09;
        kappa           0.41;
        E               9.8;
        type            epsilonWallFunction;
        value           nonuniform List<scalar> 
43
(
0.0018263
0.00608171
0.0385948
0.0288917
0.0162963
0.00952981
0.00600606
0.00405333
0.00289579
0.0021717
0.00170188
0.00139174
0.0011873
0.00105559
0.00097538
0.000932121
0.000914829
0.000914112
0.000921376
0.000929367
0.000933175
0.000930562
0.000921455
0.000908118
0.000892713
0.000875588
0.000857575
0.000839623
0.000822488
0.000806673
0.000795807
0.000786923
0.000773709
0.000747487
0.00070966
0.000665795
0.000612598
0.000549944
0.000572762
0.000438586
0.0130649
0.019935
0.104473
)
;
    }
    sWall
    {
        Cmu             0.09;
        kappa           0.41;
        E               9.8;
        type            epsilonWallFunction;
        value           uniform 0.0018263;
    }
    nWall
    {
        Cmu             0.09;
        kappa           0.41;
        E               9.8;
        type            epsilonWallFunction;
        value           nonuniform List<scalar> 6(0.000344266 0.000587768 0.000532114 0.00150398 0.0011465 0.000438586);
    }
    sideWalls
    {
        type            empty;
    }
    glass1
    {
        Cmu             0.09;
        kappa           0.41;
        E               9.8;
        type            epsilonWallFunction;
        value           nonuniform List<scalar> 9(0.000147991 0.000892849 0.00237146 0.00464199 0.00760083 0.0111921 0.0149581 0.0151174 0.0130649);
    }
    glass2
    {
        Cmu             0.09;
        kappa           0.41;
        E               9.8;
        type            epsilonWallFunction;
        value           nonuniform List<scalar> 2(0.00130403 0.00165763);
    }
    sun
    {
        Cmu             0.09;
        kappa           0.41;
        E               9.8;
        type            epsilonWallFunction;
        value           nonuniform List<scalar> 
14
(
0.000147991
0.000156159
8.39544e-05
8.36837e-05
9.21749e-05
0.000102106
0.000113147
0.000125466
0.000139677
0.000154188
0.000167358
0.000177566
0.000182979
0.000181595
)
;
    }
    heatsource1
    {
        Cmu             0.09;
        kappa           0.41;
        E               9.8;
        type            epsilonWallFunction;
        value           nonuniform List<scalar> 3(0.000743032 0.000458718 0.000344266);
    }
    heatsource2
    {
        Cmu             0.09;
        kappa           0.41;
        E               9.8;
        type            epsilonWallFunction;
        value           nonuniform List<scalar> 4(0.000214687 7.2364e-05 7.2364e-05 0.000247705);
    }
    Table_master
    {
        Cmu             0.09;
        kappa           0.41;
        E               9.8;
        type            epsilonWallFunction;
        value           nonuniform List<scalar> 9(3.30324e-06 3.21777e-06 5.00818e-06 9.08879e-06 1.64861e-05 2.81566e-05 4.60764e-05 7.53746e-05 0.000128654);
    }
    Table_slave
    {
        Cmu             0.09;
        kappa           0.41;
        E               9.8;
        type            epsilonWallFunction;
        value           nonuniform List<scalar> 9(0.000172645 0.000169152 0.000165624 0.000162007 0.000159867 0.000161916 0.000172799 0.000201359 0.000268608);
    }
    inlet
    {
        type            turbulentMixingLengthDissipationRateInlet;
        mixingLength    0.01;
        phi             phi;
        k               k;
        value           uniform 0.15575;
    }
    outlet
    {
        type            zeroGradient;
    }
}


// ************************************************************************* //
