/*--------------------------------*- C++ -*----------------------------------*\
  =========                 |
  \\      /  F ield         | OpenFOAM: The Open Source CFD Toolbox
   \\    /   O peration     | Website:  https://openfoam.org
    \\  /    A nd           | Version:  6
     \\/     M anipulation  |
\*---------------------------------------------------------------------------*/
FoamFile
{
    version     2.0;
    format      ascii;
    class       volScalarField;
    location    "900";
    object      epsilon;
}
// * * * * * * * * * * * * * * * * * * * * * * * * * * * * * * * * * * * * * //

dimensions      [0 2 -3 0 0 0 0];

internalField   nonuniform List<scalar> 
459
(
0.000427633
0.000553944
0.000585934
0.000673821
0.000762738
0.000853471
0.000950477
0.00104959
0.00112297
0.00115175
0.00111975
0.00102124
0.000864495
0.000674069
0.00048932
3.46079e-05
5.84247e-05
8.40976e-05
8.6617e-05
7.91936e-05
6.93831e-05
5.71697e-05
4.63048e-05
3.77168e-05
3.10722e-05
2.59049e-05
2.18422e-05
1.86127e-05
1.60156e-05
1.3861e-05
1.19889e-05
1.02567e-05
9.34619e-06
7.24221e-06
0.00107992
0.00158025
0.000520605
0.000504086
0.000526858
0.000566606
0.000627678
0.00070863
0.000785838
0.000833622
0.000831702
0.000774499
0.00067064
0.000542626
0.000437145
0.000515793
0.00012364
3.91652e-05
9.18068e-05
0.000102957
9.66692e-05
8.44238e-05
7.20366e-05
6.58236e-05
5.30745e-05
4.17507e-05
3.28498e-05
2.60455e-05
2.08655e-05
1.69104e-05
1.39052e-05
1.16943e-05
1.0308e-05
9.69784e-06
2.59573e-05
1.73996e-05
0.00196717
0.00388608
0.000639475
0.000477809
0.000498968
0.000559859
0.000652537
0.000770206
0.000878303
0.000942418
0.000945064
0.000887524
0.000781543
0.000652971
0.000533541
0.000474427
0.000564268
0.000257187
0.000203945
0.000163183
0.000131363
0.000106405
9.10692e-05
0.000165627
0.000114295
8.14386e-05
5.99585e-05
4.55135e-05
3.55173e-05
2.84222e-05
2.33039e-05
1.9618e-05
1.49468e-05
1.2568e-05
5.0249e-05
2.8133e-05
0.00318555
0.00808653
0.00100791
0.00047987
0.000484134
0.000569635
0.000709528
0.00088535
0.00102269
0.00108863
0.00107954
0.00100651
0.000880455
0.000732947
0.000602984
0.000518257
0.000498736
0.000901416
0.000521529
0.000320829
0.000218875
0.000160394
0.00012379
0.00010633
0.000241022
0.000183631
0.00014869
0.000125312
0.000107515
9.256e-05
7.95656e-05
6.72707e-05
5.46685e-05
3.26005e-05
2.1356e-05
8.56945e-05
3.91696e-05
0.00486324
0.0144656
0.00199214
0.000559881
0.000486368
0.000600164
0.000852504
0.00111593
0.00126193
0.00130421
0.00126236
0.0011545
0.000995174
0.000810705
0.000632946
0.000487881
0.000389131
0.000347663
0.000285542
0.000229396
0.000184255
0.000148742
0.000121037
0.000101534
9.72149e-05
9.02091e-05
8.35561e-05
7.71161e-05
7.03712e-05
6.31075e-05
5.58212e-05
4.88857e-05
4.25486e-05
3.4155e-05
2.65827e-05
6.01421e-05
4.6486e-05
7.51157e-05
0.000130948
0.000185591
0.00720024
0.0215451
0.00449854
0.00104368
0.000682228
0.000798349
0.00130653
0.00157204
0.00164905
0.00162165
0.00152464
0.00136592
0.00115303
0.000911051
0.000676704
0.000484703
0.000353425
0.000280006
0.000235691
0.000200284
0.000167885
0.000139434
0.000116128
9.92207e-05
9.02188e-05
8.60668e-05
8.36862e-05
8.1164e-05
7.73795e-05
7.14152e-05
6.27992e-05
5.35925e-05
4.5125e-05
3.76672e-05
3.32845e-05
4.50234e-05
4.82205e-05
5.81016e-05
0.000242357
0.000212501
0.0099848
0.0258046
0.00939557
0.00345291
0.00221752
0.0022006
0.00240898
0.00238388
0.002253
0.00208442
0.00188538
0.00164088
0.00134695
0.00102883
0.000728912
0.00049118
0.000336418
0.000253257
0.000209044
0.000177343
0.000149234
0.000125336
0.000107176
9.5692e-05
9.10863e-05
9.13474e-05
9.36719e-05
9.64449e-05
9.86366e-05
9.87709e-05
9.39438e-05
8.38367e-05
7.34676e-05
6.48239e-05
6.21606e-05
6.9958e-05
8.73187e-05
0.00013186
0.000321374
0.00030954
0.0106693
0.0287604
0.0156336
0.00996248
0.00707853
0.00547636
0.00434239
0.00358006
0.00306214
0.00267684
0.0023308
0.00196111
0.0015492
0.00112841
0.000747112
0.000463055
0.000294906
0.000212486
0.000172441
0.000145343
0.000123458
0.000107117
9.68501e-05
9.25883e-05
9.37091e-05
9.89141e-05
0.000107003
0.000117651
0.000131062
0.000147337
0.000165819
0.000181188
0.000192052
0.000213949
0.000258293
0.000378826
0.000655008
0.0012006
0.00407341
0.00108855
0.00991776
0.0168864
0.0135484
0.0102341
0.00781062
0.00615944
0.0050446
0.00428348
0.00373471
0.0032691
0.00278768
0.00224419
0.0016509
0.0010945
0.000618677
0.000331185
0.000211147
0.000157757
0.000129511
0.000110579
9.70164e-05
8.85919e-05
8.51181e-05
8.61772e-05
9.12442e-05
9.98825e-05
0.000112114
0.000128673
0.000150985
0.00018116
0.000222054
0.000277354
0.000353971
0.000465117
0.000629705
0.00085633
0.00112576
0.00138153
0.00158146
0.000873446
0.00494484
0.00664869
0.00670093
0.00621044
0.0055351
0.00488921
0.00424457
0.00353706
0.00275512
0.00191975
0.00105241
0.000559012
0.000299249
0.000179049
0.000126193
9.99297e-05
8.47222e-05
7.50739e-05
6.93189e-05
6.67853e-05
6.71063e-05
7.00029e-05
7.53038e-05
8.30939e-05
9.3799e-05
0.00010825
0.000127762
0.000154312
0.000190924
0.000242595
0.000314794
0.000415247
0.000551211
0.00071982
0.000898015
0.00104459
0.00098398
0.000444923
0.00341873
0.00673829
0.00666192
0.00536145
0.00452815
0.0038466
0.0029899
0.0020866
0.00132478
0.000774977
0.000427478
0.000240995
0.000147181
0.000102896
8.16609e-05
7.05134e-05
6.42833e-05
6.10119e-05
5.99326e-05
6.0655e-05
6.29516e-05
6.67192e-05
7.20772e-05
7.93372e-05
8.896e-05
0.000101664
0.000118576
0.000141434
0.000172771
0.000215854
0.000275198
0.000355691
0.000459214
0.000578489
0.000694115
0.000843101
0.000465072
0.000475815
0.00217501
0.00253983
0.00283476
0.00314094
0.00234393
0.00181744
0.00159582
0.00138873
0.00112088
0.000841214
0.000584753
0.000388352
0.000256481
0.000176223
0.00012997
0.00010269
8.55506e-05
7.43646e-05
6.7278e-05
6.33693e-05
6.2016e-05
6.27541e-05
6.53028e-05
6.95774e-05
7.57225e-05
8.38018e-05
9.40903e-05
0.000107125
0.000123724
0.000145216
0.000172448
0.000206719
0.00024996
0.000304523
0.000372441
0.000455671
0.000473528
0.000338194
0.000288807
0.00047806
)
;

boundaryField
{
    floor
    {
        Cmu             0.09;
        kappa           0.41;
        E               9.8;
        type            epsilonWallFunction;
        value           nonuniform List<scalar> 
29
(
0.00048932
3.46079e-05
5.84247e-05
8.40976e-05
8.6617e-05
7.91936e-05
6.93831e-05
5.71697e-05
4.63048e-05
3.77168e-05
3.10722e-05
2.59049e-05
2.18422e-05
1.86127e-05
1.60156e-05
1.3861e-05
1.19889e-05
1.02567e-05
9.34619e-06
7.24221e-06
7.24221e-06
1.73996e-05
2.8133e-05
3.91696e-05
0.00048932
3.46079e-05
3.91652e-05
0.000257187
0.000901416
)
;
    }
    ceiling
    {
        Cmu             0.09;
        kappa           0.41;
        E               9.8;
        type            epsilonWallFunction;
        value           nonuniform List<scalar> 
43
(
0.00217501
0.00253983
0.00283476
0.00314094
0.00234393
0.00181744
0.00159582
0.00138873
0.00112088
0.000841214
0.000584753
0.000388352
0.000256481
0.000176223
0.00012997
0.00010269
8.55506e-05
7.43646e-05
6.7278e-05
6.33693e-05
6.2016e-05
6.27541e-05
6.53028e-05
6.95774e-05
7.57225e-05
8.38018e-05
9.40903e-05
0.000107125
0.000123724
0.000145216
0.000172448
0.000206719
0.00024996
0.000304523
0.000372441
0.000455671
0.000473528
0.000338194
0.000288807
0.00047806
0.00991776
0.0168864
0.00341873
)
;
    }
    sWall
    {
        Cmu             0.09;
        kappa           0.41;
        E               9.8;
        type            epsilonWallFunction;
        value           uniform 0.00217501;
    }
    nWall
    {
        Cmu             0.09;
        kappa           0.41;
        E               9.8;
        type            epsilonWallFunction;
        value           nonuniform List<scalar> 6(0.000185591 0.000212501 0.00030954 0.000444923 0.000475815 0.00047806);
    }
    sideWalls
    {
        type            empty;
    }
    glass1
    {
        Cmu             0.09;
        kappa           0.41;
        E               9.8;
        type            epsilonWallFunction;
        value           nonuniform List<scalar> 9(0.000427633 0.00107992 0.00196717 0.00318555 0.00486324 0.00720024 0.0099848 0.0106693 0.00991776);
    }
    glass2
    {
        Cmu             0.09;
        kappa           0.41;
        E               9.8;
        type            epsilonWallFunction;
        value           nonuniform List<scalar> 2(0.00108855 0.000873446);
    }
    sun
    {
        Cmu             0.09;
        kappa           0.41;
        E               9.8;
        type            epsilonWallFunction;
        value           nonuniform List<scalar> 
14
(
0.000427633
0.000553944
0.000585934
0.000673821
0.000762738
0.000853471
0.000950477
0.00104959
0.00112297
0.00115175
0.00111975
0.00102124
0.000864495
0.000674069
)
;
    }
    heatsource1
    {
        Cmu             0.09;
        kappa           0.41;
        E               9.8;
        type            epsilonWallFunction;
        value           nonuniform List<scalar> 3(7.51157e-05 0.000130948 0.000185591);
    }
    heatsource2
    {
        Cmu             0.09;
        kappa           0.41;
        E               9.8;
        type            epsilonWallFunction;
        value           nonuniform List<scalar> 4(0.000515793 0.00012364 0.00012364 0.000564268);
    }
    Table_master
    {
        Cmu             0.09;
        kappa           0.41;
        E               9.8;
        type            epsilonWallFunction;
        value           nonuniform List<scalar> 9(0.000165627 0.000114295 8.14386e-05 5.99585e-05 4.55135e-05 3.55173e-05 2.84222e-05 2.33039e-05 1.9618e-05);
    }
    Table_slave
    {
        Cmu             0.09;
        kappa           0.41;
        E               9.8;
        type            epsilonWallFunction;
        value           nonuniform List<scalar> 9(0.000241022 0.000183631 0.00014869 0.000125312 0.000107515 9.256e-05 7.95656e-05 6.72707e-05 5.46685e-05);
    }
    inlet
    {
        type            turbulentMixingLengthDissipationRateInlet;
        mixingLength    0.01;
        phi             phi;
        k               k;
        value           uniform 0.000101881;
    }
    outlet
    {
        type            zeroGradient;
    }
}


// ************************************************************************* //
