/*--------------------------------*- C++ -*----------------------------------*\
  =========                 |
  \\      /  F ield         | OpenFOAM: The Open Source CFD Toolbox
   \\    /   O peration     | Website:  https://openfoam.org
    \\  /    A nd           | Version:  6
     \\/     M anipulation  |
\*---------------------------------------------------------------------------*/
FoamFile
{
    version     2.0;
    format      ascii;
    class       volScalarField;
    location    "1400";
    object      alphat;
}
// * * * * * * * * * * * * * * * * * * * * * * * * * * * * * * * * * * * * * //

dimensions      [1 -1 -1 0 0 0 0];

internalField   nonuniform List<scalar> 
459
(
0.00123616
0.00134874
0.00137443
0.00144002
0.00150081
0.00155818
0.0016152
0.00166961
0.00170779
0.00172242
0.00170651
0.00165512
0.00156591
0.00144145
0.00129551
0.000535407
0.000637697
0.000720176
0.000727259
0.000705803
0.000675321
0.000633091
0.000590137
0.000551149
0.000516698
0.000486322
0.000459452
0.00043559
0.000414307
0.000394825
0.000376177
0.000357091
0.000346012
0.000317683
0.00168197
0.00398504
0.00377084
0.00437363
0.00496506
0.00555859
0.00607476
0.00647754
0.00685193
0.0071634
0.00736944
0.00742644
0.0072818
0.00681063
0.00548666
0.00131874
0.000819292
0.000557919
0.00117301
0.00164158
0.00199474
0.00220279
0.00221104
0.00174456
0.00149577
0.00131924
0.00118462
0.00107832
0.00099227
0.000919908
0.000852829
0.000788101
0.00073062
0.000679932
0.000813856
0.000424979
0.00205261
0.00540456
0.00459593
0.00571996
0.00623765
0.00661637
0.00691418
0.00717805
0.00748357
0.00781381
0.00813025
0.00837482
0.00849477
0.00840164
0.0078385
0.00601535
0.00135897
0.0010454
0.00152072
0.00197843
0.00242287
0.00275245
0.00271973
0.00090268
0.000797654
0.000712407
0.00064325
0.000586751
0.000540175
0.000501488
0.000469365
0.000443184
0.000476721
0.000547012
0.000921982
0.000498429
0.00240872
0.00691601
0.00453687
0.00596867
0.00635675
0.00645438
0.00653983
0.00669406
0.00695255
0.00729695
0.00769092
0.00805211
0.00832381
0.00842968
0.00831234
0.0076637
0.00513713
0.00158881
0.00189572
0.00240791
0.00296959
0.00346969
0.00381325
0.00363464
0.00102261
0.000933835
0.000870195
0.000821765
0.0007807
0.000742658
0.000706127
0.000667707
0.000623121
0.000585356
0.000591125
0.00107933
0.00055646
0.00277183
0.00889038
0.00490662
0.00569244
0.00622301
0.00617174
0.00612966
0.00624978
0.00649238
0.00684441
0.0072792
0.00767579
0.00795304
0.00806061
0.00799974
0.00774064
0.00708063
0.00599122
0.00560804
0.00553114
0.00556748
0.00561523
0.00560871
0.00542326
0.00461235
0.00421096
0.00397677
0.00379692
0.00360869
0.00334082
0.00297133
0.00251652
0.00200868
0.00150466
0.00111541
0.00109661
0.000760456
0.00069168
0.000832707
0.000935222
0.00315756
0.0110568
0.00675632
0.00551212
0.00602588
0.00619836
0.00604397
0.0061541
0.00635488
0.00668093
0.00710423
0.00751714
0.00779184
0.00785267
0.00771764
0.00748366
0.0072568
0.00710207
0.00709247
0.00710399
0.00705615
0.00693947
0.00675898
0.006502
0.00612086
0.00577712
0.00547113
0.00517676
0.0048773
0.00455766
0.00416045
0.0036686
0.00308183
0.00243335
0.0018519
0.00135688
0.00105778
0.000906931
0.00128478
0.00097813
0.00351957
0.012619
0.0096934
0.00701242
0.00655069
0.0065885
0.00642605
0.00633565
0.00643414
0.00674492
0.00719145
0.00762473
0.00788539
0.00788689
0.00767097
0.0074133
0.00734297
0.00752791
0.00775768
0.00782235
0.00769346
0.00742843
0.0070766
0.00666824
0.00623078
0.00582147
0.00544664
0.00509809
0.00477573
0.00448659
0.00423325
0.00392902
0.00349911
0.0029611
0.00243768
0.00194039
0.00159374
0.00146621
0.00145087
0.00110767
0.0035957
0.0114381
0.00992981
0.00880391
0.00811855
0.0073507
0.00671016
0.0064451
0.00657225
0.00699214
0.0075314
0.00798638
0.00818154
0.0080608
0.00773492
0.00748049
0.00756357
0.00788032
0.0080063
0.0078415
0.00747054
0.00697443
0.006419
0.00586628
0.00536945
0.0049515
0.00460205
0.00431119
0.00407968
0.00391352
0.00381857
0.00377832
0.00364188
0.00332344
0.00303722
0.00288998
0.00297264
0.00328276
0.00408838
0.00168469
0.00350573
0.00419021
0.00473603
0.00490965
0.00492625
0.00504586
0.00538431
0.00597209
0.00675591
0.00758075
0.00825134
0.00859912
0.00851569
0.00808195
0.00761742
0.00751751
0.00757312
0.0075565
0.00731905
0.00686844
0.00627505
0.00562729
0.00500912
0.00448243
0.004067
0.0037465
0.00349449
0.00329198
0.00312644
0.00298708
0.00286361
0.00274868
0.00266002
0.00259532
0.00256904
0.00257597
0.00255825
0.00246353
0.00230072
0.00156542
0.00216544
0.00383343
0.00529342
0.00651283
0.00750212
0.0083894
0.00907718
0.00941857
0.00936505
0.0089372
0.00819835
0.00737369
0.00686749
0.0066744
0.00647111
0.00611007
0.00559569
0.00499784
0.00439915
0.00386355
0.0034311
0.00311011
0.00287963
0.0027144
0.00259574
0.00251228
0.00245723
0.00242675
0.00242099
0.00244382
0.00247965
0.00252521
0.00257544
0.00261124
0.00260052
0.00252486
0.00223392
0.00125038
0.00251842
0.00536482
0.00733568
0.00825192
0.0088662
0.00929032
0.00924103
0.00864829
0.00775016
0.00679193
0.00598946
0.00541003
0.0050249
0.00468524
0.00428164
0.00382764
0.00337573
0.00297795
0.00266547
0.00244157
0.00229005
0.00218792
0.00212109
0.00208475
0.00207544
0.00208906
0.00212191
0.00216951
0.00223706
0.00232138
0.00241966
0.00252572
0.0026243
0.00269149
0.00271073
0.00268205
0.00193174
0.00127863
0.00215102
0.0022656
0.00235
0.00241706
0.00218652
0.00200708
0.00192195
0.00183463
0.00170823
0.0015524
0.00137535
0.0012002
0.00104561
0.000923226
0.000834731
0.000772211
0.000726984
0.000694003
0.000671234
0.000657845
0.000652896
0.000655175
0.000663571
0.000677345
0.000696289
0.000719835
0.000747785
0.000780464
0.0008185
0.000863039
0.00091351
0.000969982
0.00103295
0.00110279
0.00117892
0.00126036
0.00127702
0.00114115
0.00108297
0.00128138
)
;

boundaryField
{
    floor
    {
        type            compressible::alphatWallFunction;
        Prt             0.85;
        value           nonuniform List<scalar> 
29
(
0.00018327
7.46401e-05
8.99983e-05
0.000102162
0.000103198
0.000100055
9.55694e-05
8.9314e-05
8.28986e-05
7.70257e-05
7.1793e-05
6.71432e-05
6.29995e-05
5.92941e-05
5.59672e-05
5.29025e-05
4.99508e-05
4.691e-05
4.51354e-05
4.05633e-05
4.05627e-05
5.76384e-05
6.90013e-05
7.78293e-05
0.000183268
7.46392e-05
7.80486e-05
0.000148672
0.000222891
)
;
    }
    ceiling
    {
        type            compressible::alphatWallFunction;
        Prt             0.85;
        value           nonuniform List<scalar> 
43
(
0.000296608
0.000311372
0.0003222
0.000330889
0.000301359
0.000278127
0.00026703
0.000255587
0.000238906
0.000218148
0.000194277
0.000170314
0.000148832
0.000131562
0.000118907
0.000109871
0.00010328
9.84428e-05
9.50869e-05
9.3107e-05
9.2374e-05
9.27119e-05
9.39547e-05
9.59896e-05
9.87799e-05
0.000102235
0.000106319
0.000111071
0.000116572
0.000122975
0.000130183
0.000138193
0.000147061
0.000156823
0.000167385
0.000178596
0.00018088
0.000162156
0.000154065
0.000181485
0.000467273
0.00055053
0.000343555
)
;
    }
    sWall
    {
        type            compressible::alphatWallFunction;
        Prt             0.85;
        value           uniform 0.000295388;
    }
    nWall
    {
        type            compressible::alphatWallFunction;
        Prt             0.85;
        value           nonuniform List<scalar> 6(0.000132942 0.000139011 0.00015716 0.000176902 0.000180771 0.000181155);
    }
    sideWalls
    {
        type            empty;
    }
    glass1
    {
        type            compressible::alphatWallFunction;
        Prt             0.85;
        value           nonuniform List<scalar> 9(0.000170832 0.000230182 0.000278324 0.000323785 0.000369473 0.000417369 0.000461813 0.000471229 0.00046048);
    }
    glass2
    {
        type            compressible::alphatWallFunction;
        Prt             0.85;
        value           nonuniform List<scalar> 2(0.00023405 0.000218291);
    }
    sun
    {
        type            compressible::alphatWallFunction;
        Prt             0.85;
        value           nonuniform List<scalar> 
14
(
0.000175156
0.000190534
0.000194025
0.000202908
0.000211101
0.000218798
0.000226418
0.000233661
0.000238727
0.000240665
0.000238556
0.000231732
0.000219829
0.000203098
)
;
    }
    heatsource1
    {
        type            compressible::alphatWallFunction;
        Prt             0.85;
        value           nonuniform List<scalar> 3(9.80938e-05 0.00011861 0.000133261);
    }
    heatsource2
    {
        type            compressible::alphatWallFunction;
        Prt             0.85;
        value           nonuniform List<scalar> 4(0.000186572 0.000116678 0.000116676 0.000192049);
    }
    Table_master
    {
        type            compressible::alphatWallFunction;
        Prt             0.85;
        value           nonuniform List<scalar> 9(0.000128629 0.00011355 0.000101136 9.09334e-05 8.24984e-05 7.54692e-05 6.95731e-05 6.4634e-05 6.05767e-05);
    }
    Table_slave
    {
        type            compressible::alphatWallFunction;
        Prt             0.85;
        value           nonuniform List<scalar> 9(0.0001456 0.000133064 0.000123991 0.000117034 0.000111097 0.000105563 0.000100217 9.45583e-05 8.79411e-05);
    }
    inlet
    {
        type            fixedValue;
        value           uniform 1.94e-05;
    }
    outlet
    {
        type            zeroGradient;
    }
}


// ************************************************************************* //
