/*--------------------------------*- C++ -*----------------------------------*\
  =========                 |
  \\      /  F ield         | OpenFOAM: The Open Source CFD Toolbox
   \\    /   O peration     | Website:  https://openfoam.org
    \\  /    A nd           | Version:  6
     \\/     M anipulation  |
\*---------------------------------------------------------------------------*/
FoamFile
{
    version     2.0;
    format      ascii;
    class       volScalarField;
    location    "900";
    object      epsilon;
}
// * * * * * * * * * * * * * * * * * * * * * * * * * * * * * * * * * * * * * //

dimensions      [0 2 -3 0 0 0 0];

internalField   nonuniform List<scalar> 
459
(
0.000424609
0.000549915
0.000581441
0.000668571
0.00075666
0.000846465
0.000942336
0.00104085
0.00111428
0.00114399
0.00111382
0.00101773
0.000863767
0.000676119
0.000493186
3.50899e-05
5.97142e-05
8.59745e-05
8.82274e-05
8.07963e-05
7.09001e-05
5.86128e-05
4.76531e-05
3.89539e-05
3.21949e-05
2.69176e-05
2.27524e-05
1.94332e-05
1.67528e-05
1.45198e-05
1.25713e-05
1.07564e-05
9.74557e-06
7.49598e-06
0.00107433
0.00157362
0.000516292
0.000499391
0.000521453
0.000560196
0.00061993
0.000699778
0.000776606
0.000825086
0.00082483
0.000769739
0.00066807
0.000542011
0.000438019
0.000519671
0.000121777
3.99363e-05
9.4301e-05
0.000104899
9.81728e-05
8.55229e-05
7.28872e-05
6.66451e-05
5.39011e-05
4.25496e-05
3.35929e-05
2.67192e-05
2.14668e-05
1.74477e-05
1.43866e-05
1.21407e-05
1.07594e-05
1.01657e-05
2.62732e-05
1.7809e-05
0.00195867
0.0038757
0.000634614
0.000472753
0.00049283
0.000552146
0.00064285
0.000758851
0.000866588
0.000931695
0.000936324
0.000881089
0.000777658
0.000651473
0.000533254
0.00047539
0.000563418
0.000266727
0.000208803
0.000165907
0.000132889
0.000107309
9.17751e-05
0.000168653
0.000116894
8.36332e-05
6.18085e-05
4.70826e-05
3.68612e-05
2.95878e-05
2.43302e-05
2.05419e-05
1.56852e-05
1.31653e-05
4.97937e-05
2.85159e-05
0.00317377
0.00807117
0.00100176
0.00047447
0.000477295
0.000560343
0.000696832
0.000870556
0.00100822
0.00107572
0.00106893
0.00099837
0.000875398
0.000729856
0.000601304
0.00051761
0.000498832
0.000904313
0.000522897
0.00032127
0.0002188
0.000160043
0.000123392
0.000106212
0.000244597
0.000187763
0.00015314
0.00012983
0.000111856
9.65956e-05
8.32763e-05
7.06174e-05
5.75644e-05
3.44004e-05
2.23384e-05
8.28486e-05
3.94916e-05
0.00484761
0.0144439
0.00198247
0.000553707
0.000478671
0.000588257
0.000833146
0.00109619
0.00124442
0.00128916
0.00124996
0.00114503
0.000988764
0.000806807
0.000630652
0.000486307
0.000387715
0.000346211
0.000284202
0.000227928
0.000182649
0.000147157
0.00011973
0.000100784
9.72873e-05
9.10529e-05
8.50159e-05
7.89854e-05
7.24257e-05
6.52077e-05
5.79827e-05
5.11022e-05
4.4759e-05
3.60172e-05
2.77026e-05
5.92448e-05
4.56867e-05
7.44786e-05
0.000130366
0.000184668
0.00717994
0.0215155
0.00448027
0.00103307
0.000670867
0.00077845
0.00127598
0.00154717
0.0016286
0.00160434
0.00151024
0.00135502
0.00114586
0.000907018
0.000674553
0.000483109
0.000351675
0.000278012
0.00023358
0.000198029
0.000165604
0.000137448
0.000114828
9.89213e-05
9.10528e-05
8.79487e-05
8.63972e-05
8.43846e-05
8.06902e-05
7.43624e-05
6.52992e-05
5.57792e-05
4.70383e-05
3.92231e-05
3.40945e-05
4.48859e-05
4.70824e-05
5.74776e-05
0.000241082
0.000211393
0.00996252
0.025769
0.00936641
0.00342597
0.00218477
0.00214603
0.00237052
0.00235563
0.00223019
0.00206493
0.00186917
0.00162884
0.00133942
0.00102511
0.000727397
0.000490024
0.000334689
0.000250929
0.000206452
0.000174784
0.000147057
0.000123976
0.000107019
9.69741e-05
9.38436e-05
9.54426e-05
9.88619e-05
0.000102362
0.000104708
0.000104174
9.74369e-05
8.62787e-05
7.51947e-05
6.58324e-05
6.21586e-05
6.96697e-05
8.9015e-05
0.000142363
0.000326908
0.000317591
0.010648
0.0287514
0.0156172
0.0099411
0.00703757
0.00544411
0.00431579
0.00355609
0.0030394
0.00265566
0.00231284
0.00194833
0.00154191
0.00112558
0.000746813
0.000462493
0.000293267
0.000210127
0.000170058
0.000143509
0.000122543
0.000107438
9.86382e-05
9.5967e-05
9.8686e-05
0.000105414
0.000114897
0.000126742
0.000141022
0.000157625
0.00017549
0.000186786
0.000196878
0.000218656
0.000263532
0.00039738
0.000734766
0.00138436
0.00402059
0.00118659
0.0098992
0.0168645
0.0135344
0.0102216
0.00779616
0.00614149
0.00502315
0.00425861
0.00370783
0.00324351
0.00276729
0.00223228
0.00164586
0.00109432
0.000621805
0.000331631
0.000210363
0.000156723
0.000128678
0.000110212
9.76404e-05
9.04893e-05
8.84602e-05
9.10379e-05
9.76218e-05
0.000107752
0.000121451
0.000139436
0.000163097
0.000194493
0.000236403
0.000292858
0.000370353
0.00048663
0.000657271
0.000887933
0.00115066
0.0013788
0.00155447
0.000971357
0.00495518
0.00666069
0.00668376
0.0061873
0.00550683
0.00485634
0.00421353
0.00351461
0.00274513
0.00192905
0.00106083
0.000562762
0.000299853
0.000177666
0.00012493
9.91794e-05
8.46798e-05
7.58704e-05
7.0889e-05
6.9247e-05
7.05913e-05
7.45591e-05
8.09579e-05
8.9862e-05
0.000101702
0.000117326
0.000138101
0.000166099
0.000204587
0.000258549
0.000333389
0.000436257
0.000570361
0.000722813
0.00085263
0.000905711
0.000848817
0.000537133
0.00342669
0.00673286
0.00663967
0.00533961
0.00450995
0.00384317
0.00299946
0.00210063
0.00133616
0.000781592
0.000427836
0.000239552
0.000145099
0.000100786
7.99564e-05
6.93211e-05
6.36622e-05
6.10191e-05
6.06141e-05
6.2046e-05
6.50769e-05
6.97095e-05
7.61078e-05
8.4543e-05
9.55143e-05
0.000109837
0.000128794
0.000154357
0.00018927
0.000237161
0.000302965
0.0003916
0.000503531
0.000630208
0.000723959
0.00081891
0.000764444
0.000564145
0.00217868
0.00254411
0.0028399
0.00314516
0.00234277
0.0018091
0.00158131
0.00137741
0.00111297
0.000837483
0.000581495
0.000384462
0.000252093
0.000171927
0.000126075
9.93376e-05
8.28696e-05
7.25356e-05
6.64915e-05
6.37788e-05
6.37339e-05
6.58747e-05
6.99548e-05
7.59709e-05
8.37493e-05
9.35411e-05
0.00010575
0.000120981
0.000140168
0.000164851
0.000195805
0.000234538
0.000283327
0.000345067
0.000422571
0.000530688
0.000567657
0.000525181
0.00043176
0.000345108
)
;

boundaryField
{
    floor
    {
        Cmu             0.09;
        kappa           0.41;
        E               9.8;
        type            epsilonWallFunction;
        value           nonuniform List<scalar> 
29
(
0.000493186
3.50899e-05
5.97142e-05
8.59745e-05
8.82274e-05
8.07963e-05
7.09001e-05
5.86128e-05
4.76531e-05
3.89539e-05
3.21949e-05
2.69176e-05
2.27524e-05
1.94332e-05
1.67528e-05
1.45198e-05
1.25713e-05
1.07564e-05
9.74557e-06
7.49598e-06
7.49598e-06
1.7809e-05
2.85159e-05
3.94916e-05
0.000493186
3.50899e-05
3.99363e-05
0.000266727
0.000904313
)
;
    }
    ceiling
    {
        Cmu             0.09;
        kappa           0.41;
        E               9.8;
        type            epsilonWallFunction;
        value           nonuniform List<scalar> 
43
(
0.00217868
0.00254411
0.0028399
0.00314516
0.00234277
0.0018091
0.00158131
0.00137741
0.00111297
0.000837483
0.000581495
0.000384462
0.000252093
0.000171927
0.000126075
9.93376e-05
8.28696e-05
7.25356e-05
6.64915e-05
6.37788e-05
6.37339e-05
6.58747e-05
6.99548e-05
7.59709e-05
8.37493e-05
9.35411e-05
0.00010575
0.000120981
0.000140168
0.000164851
0.000195805
0.000234538
0.000283327
0.000345067
0.000422571
0.000530688
0.000567657
0.000525181
0.00043176
0.000345108
0.0098992
0.0168645
0.00342669
)
;
    }
    sWall
    {
        Cmu             0.09;
        kappa           0.41;
        E               9.8;
        type            epsilonWallFunction;
        value           uniform 0.00217868;
    }
    nWall
    {
        Cmu             0.09;
        kappa           0.41;
        E               9.8;
        type            epsilonWallFunction;
        value           nonuniform List<scalar> 6(0.000184668 0.000211393 0.000317591 0.000537133 0.000564145 0.000345108);
    }
    sideWalls
    {
        type            empty;
    }
    glass1
    {
        Cmu             0.09;
        kappa           0.41;
        E               9.8;
        type            epsilonWallFunction;
        value           nonuniform List<scalar> 9(0.000424609 0.00107433 0.00195867 0.00317377 0.00484761 0.00717994 0.00996252 0.010648 0.0098992);
    }
    glass2
    {
        Cmu             0.09;
        kappa           0.41;
        E               9.8;
        type            epsilonWallFunction;
        value           nonuniform List<scalar> 2(0.00118659 0.000971357);
    }
    sun
    {
        Cmu             0.09;
        kappa           0.41;
        E               9.8;
        type            epsilonWallFunction;
        value           nonuniform List<scalar> 
14
(
0.000424609
0.000549915
0.000581441
0.000668571
0.00075666
0.000846465
0.000942336
0.00104085
0.00111428
0.00114399
0.00111382
0.00101773
0.000863767
0.000676119
)
;
    }
    heatsource1
    {
        Cmu             0.09;
        kappa           0.41;
        E               9.8;
        type            epsilonWallFunction;
        value           nonuniform List<scalar> 3(7.44786e-05 0.000130366 0.000184668);
    }
    heatsource2
    {
        Cmu             0.09;
        kappa           0.41;
        E               9.8;
        type            epsilonWallFunction;
        value           nonuniform List<scalar> 4(0.000519671 0.000121777 0.000121777 0.000563418);
    }
    Table_master
    {
        Cmu             0.09;
        kappa           0.41;
        E               9.8;
        type            epsilonWallFunction;
        value           nonuniform List<scalar> 9(0.000168653 0.000116894 8.36332e-05 6.18085e-05 4.70826e-05 3.68612e-05 2.95878e-05 2.43302e-05 2.05419e-05);
    }
    Table_slave
    {
        Cmu             0.09;
        kappa           0.41;
        E               9.8;
        type            epsilonWallFunction;
        value           nonuniform List<scalar> 9(0.000244597 0.000187763 0.00015314 0.00012983 0.000111856 9.65956e-05 8.32763e-05 7.06174e-05 5.75644e-05);
    }
    inlet
    {
        type            turbulentMixingLengthDissipationRateInlet;
        mixingLength    0.01;
        phi             phi;
        k               k;
        value           uniform 0.000101881;
    }
    outlet
    {
        type            zeroGradient;
    }
}


// ************************************************************************* //
