/*--------------------------------*- C++ -*----------------------------------*\
  =========                 |
  \\      /  F ield         | OpenFOAM: The Open Source CFD Toolbox
   \\    /   O peration     | Website:  https://openfoam.org
    \\  /    A nd           | Version:  6
     \\/     M anipulation  |
\*---------------------------------------------------------------------------*/
FoamFile
{
    version     2.0;
    format      ascii;
    class       volScalarField;
    location    "900";
    object      nut;
}
// * * * * * * * * * * * * * * * * * * * * * * * * * * * * * * * * * * * * * //

dimensions      [0 2 -1 0 0 0 0];

internalField   nonuniform List<scalar> 
459
(
0.00106262
0.00115828
0.00118
0.00123622
0.00128829
0.00133736
0.00138606
0.00143277
0.0014657
0.00147861
0.0014655
0.00142208
0.00134641
0.00124085
0.00111699
0.00046285
0.000552593
0.000623978
0.000629382
0.000611191
0.000585143
0.000549175
0.000512559
0.000479252
0.000449754
0.0004237
0.00040061
0.000380097
0.00036175
0.000344905
0.00032873
0.000312082
0.000301983
0.000276687
0.00144797
0.00342757
0.00324226
0.00376117
0.00426918
0.00477923
0.00522394
0.00556856
0.00588909
0.0061561
0.00633279
0.00638078
0.00625384
0.00584227
0.00468201
0.00113664
0.000700759
0.000483246
0.00101433
0.00141953
0.00172606
0.00190695
0.00191673
0.0015186
0.00130562
0.00115429
0.00103869
0.00094729
0.000873185
0.000810177
0.000751457
0.000694556
0.000643972
0.00059927
0.000714543
0.000369199
0.00176889
0.00464978
0.00395262
0.00492864
0.00537653
0.0057023
0.00595681
0.00617933
0.00643772
0.00671802
0.00698748
0.00719506
0.00729498
0.00721386
0.0067282
0.0051678
0.00116768
0.000910055
0.00132206
0.00171918
0.00210405
0.00239018
0.00236232
0.000781108
0.000691263
0.000618262
0.000558979
0.000510504
0.00047051
0.00043727
0.000409664
0.000387192
0.000417654
0.000481176
0.000808669
0.000431925
0.00207765
0.00595254
0.00389995
0.0051482
0.00548904
0.00557161
0.00563869
0.00576325
0.00597899
0.00626979
0.00660578
0.00691388
0.00714476
0.00723538
0.0071336
0.00658119
0.00443657
0.00136716
0.0016387
0.00208865
0.00257982
0.00301644
0.00331749
0.00316211
0.000884159
0.000809561
0.000756384
0.000715876
0.000681185
0.000648681
0.000617379
0.000584362
0.000545878
0.000511619
0.000516404
0.000940751
0.000481446
0.00239271
0.0076538
0.00421509
0.00490568
0.00537612
0.00532971
0.00528183
0.00537447
0.00557723
0.00587395
0.00624598
0.00658605
0.00682421
0.00691567
0.00686112
0.00663773
0.00607531
0.00514301
0.00482424
0.00476972
0.00481221
0.00486351
0.00486694
0.00471386
0.00401367
0.00367175
0.00347139
0.00331464
0.00314869
0.00291286
0.002588
0.00219042
0.00174777
0.00130696
0.000967096
0.000959693
0.00065569
0.000594826
0.00071686
0.000805088
0.00272743
0.00952067
0.00580234
0.00473334
0.00518741
0.00533675
0.0051931
0.00528336
0.00545279
0.00572889
0.00608967
0.00644437
0.00668203
0.00673491
0.00661639
0.00641109
0.00621506
0.00608845
0.00609376
0.00611791
0.00608781
0.00599405
0.00584052
0.00561714
0.00528649
0.00498966
0.00472745
0.00447852
0.00422868
0.00396277
0.00362455
0.00319811
0.00268263
0.00210959
0.0015947
0.00117797
0.000907287
0.000775944
0.0011058
0.00084219
0.00304207
0.0108714
0.00833273
0.00601068
0.00560333
0.00564418
0.00551233
0.00543663
0.00551735
0.00577853
0.00615816
0.00653053
0.00675747
0.00676078
0.00657265
0.0063451
0.00628123
0.00644793
0.00666042
0.0067263
0.00661568
0.00637759
0.00605769
0.00569029
0.0053101
0.0049689
0.00466852
0.00439753
0.00415159
0.00393327
0.00374063
0.00346947
0.003075
0.00258455
0.00210362
0.00165571
0.00133827
0.00124432
0.00127448
0.00096456
0.0031103
0.00987466
0.00856143
0.00757815
0.00697213
0.00632556
0.0057733
0.00553585
0.00563299
0.00598342
0.00644146
0.00683349
0.00700611
0.00690504
0.00662073
0.00639428
0.00646328
0.00674656
0.00686196
0.00671016
0.00636766
0.00591314
0.00541704
0.00494504
0.00454469
0.00422708
0.0039734
0.00376799
0.00360713
0.003495
0.00343906
0.00341829
0.00322678
0.00291636
0.00263506
0.00248961
0.00259441
0.0029962
0.00366231
0.00149672
0.00303561
0.00362552
0.00409586
0.0042456
0.00426064
0.00435247
0.0046277
0.00511448
0.00577163
0.00647067
0.00704619
0.00735243
0.00729092
0.00692031
0.00650896
0.00642047
0.00647175
0.00645737
0.00623603
0.00581263
0.00526964
0.00470001
0.00418708
0.00377845
0.00347609
0.003253
0.00307908
0.00293437
0.00280677
0.00268743
0.00256942
0.00245387
0.0023598
0.00228991
0.00226219
0.00226857
0.00224926
0.00215192
0.00200749
0.00140013
0.0018335
0.00326535
0.00450159
0.00553003
0.00636733
0.00712197
0.00771984
0.00802942
0.0080023
0.00765273
0.00703273
0.00631483
0.00586389
0.00569235
0.0055059
0.00517248
0.00470258
0.00417029
0.00365164
0.00321333
0.00288723
0.00266117
0.00250662
0.00239737
0.00231646
0.00225502
0.00220927
0.00217859
0.00216701
0.00217753
0.00219767
0.00222458
0.00225027
0.00224959
0.00218279
0.00203836
0.0018295
0.00114922
0.00213142
0.0045519
0.00622039
0.00701104
0.00754223
0.00790808
0.00790825
0.00742141
0.00665548
0.00582358
0.00512012
0.00460798
0.00426338
0.00395433
0.00358239
0.00316899
0.00277179
0.00244085
0.00219848
0.00203642
0.00193111
0.00186483
0.00183113
0.0018213
0.00183034
0.00185529
0.0018935
0.00194112
0.00200474
0.00208194
0.00217047
0.00226406
0.00234737
0.00240257
0.00238216
0.00239611
0.00236383
0.00116816
0.00183278
0.00193
0.00200207
0.00207138
0.00187768
0.00172266
0.00164709
0.00157302
0.00146512
0.00133262
0.00118004
0.00102801
0.000893102
0.000786131
0.000708908
0.000654765
0.000616378
0.000589614
0.000572762
0.000564867
0.000564736
0.00057099
0.000582543
0.000598784
0.000618558
0.000641779
0.000668564
0.00069923
0.000734393
0.000775191
0.000820951
0.000871859
0.000928546
0.000991611
0.0010609
0.0011446
0.00117058
0.00114062
0.00106853
0.000991653
)
;

boundaryField
{
    floor
    {
        type            nutkWallFunction;
        Cmu             0.09;
        kappa           0.41;
        E               9.8;
        value           nonuniform List<scalar> 
29
(
0.0001344
5.49391e-05
6.63905e-05
7.53351e-05
7.60068e-05
7.37423e-05
7.04854e-05
6.59587e-05
6.13129e-05
5.70512e-05
5.32461e-05
4.98589e-05
4.68351e-05
4.41301e-05
4.16948e-05
3.94449e-05
3.72709e-05
3.50188e-05
3.36449e-05
3.01764e-05
3.01763e-05
4.26848e-05
5.09304e-05
5.73324e-05
0.0001344
5.4939e-05
5.7564e-05
0.000110083
0.000163128
)
;
    }
    ceiling
    {
        type            nutkWallFunction;
        Cmu             0.09;
        kappa           0.41;
        E               9.8;
        value           nonuniform List<scalar> 
43
(
0.000214979
0.000225628
0.000233486
0.000241105
0.000220018
0.000202955
0.000194577
0.000186319
0.00017421
0.000159199
0.000141704
0.000124015
0.000108064
9.52183e-05
8.58172e-05
7.91534e-05
7.43888e-05
7.10454e-05
6.89309e-05
6.79375e-05
6.79208e-05
6.87076e-05
7.01585e-05
7.21923e-05
7.46595e-05
7.75448e-05
8.08574e-05
8.46305e-05
8.89327e-05
9.38937e-05
9.94219e-05
0.00010553
0.000112282
0.000119738
0.000127868
0.000137608
0.000140616
0.000137148
0.00012876
0.000119744
0.000343836
0.000404813
0.000247408
)
;
    }
    sWall
    {
        type            nutkWallFunction;
        Cmu             0.09;
        kappa           0.41;
        E               9.8;
        value           uniform 0.000215039;
    }
    nWall
    {
        type            nutkWallFunction;
        Cmu             0.09;
        kappa           0.41;
        E               9.8;
        value           nonuniform List<scalar> 6(9.75099e-05 0.000101976 0.000116551 0.000138153 0.000140347 0.00011975);
    }
    sideWalls
    {
        type            empty;
    }
    glass1
    {
        type            nutkWallFunction;
        Cmu             0.09;
        kappa           0.41;
        E               9.8;
        value           nonuniform List<scalar> 9(0.000128165 0.000172494 0.000208388 0.000242251 0.000276251 0.000311857 0.000344913 0.000352042 0.000344264);
    }
    glass2
    {
        type            nutkWallFunction;
        Cmu             0.09;
        kappa           0.41;
        E               9.8;
        value           nonuniform List<scalar> 2(0.000177849 0.00016694);
    }
    sun
    {
        type            nutkWallFunction;
        Cmu             0.09;
        kappa           0.41;
        E               9.8;
        value           nonuniform List<scalar> 
14
(
0.000128069
0.000139188
0.000141699
0.000148174
0.000154141
0.00015974
0.000165274
0.000170561
0.000174277
0.000175731
0.000174254
0.000169352
0.000160769
0.000148705
)
;
    }
    heatsource1
    {
        type            nutkWallFunction;
        Cmu             0.09;
        kappa           0.41;
        E               9.8;
        value           nonuniform List<scalar> 3(7.17e-05 8.67911e-05 9.75091e-05);
    }
    heatsource2
    {
        type            nutkWallFunction;
        Cmu             0.09;
        kappa           0.41;
        E               9.8;
        value           nonuniform List<scalar> 4(0.000136677 8.48197e-05 8.48196e-05 0.000140271);
    }
    Table_master
    {
        type            nutkWallFunction;
        Cmu             0.09;
        kappa           0.41;
        E               9.8;
        value           nonuniform List<scalar> 9(9.46103e-05 8.36537e-05 7.4626e-05 6.71999e-05 6.10561e-05 5.59328e-05 5.16335e-05 4.80316e-05 4.50768e-05);
    }
    Table_slave
    {
        type            nutkWallFunction;
        Cmu             0.09;
        kappa           0.41;
        E               9.8;
        value           nonuniform List<scalar> 9(0.000106997 9.80484e-05 9.16108e-05 8.66712e-05 8.24144e-05 7.84022e-05 7.45157e-05 7.03901e-05 6.55455e-05);
    }
    inlet
    {
        type            calculated;
        value           uniform 0.000100623;
    }
    outlet
    {
        type            calculated;
        value           nonuniform List<scalar> 2(0.00183278 0.00193);
    }
}


// ************************************************************************* //
