/*--------------------------------*- C++ -*----------------------------------*\
  =========                 |
  \\      /  F ield         | OpenFOAM: The Open Source CFD Toolbox
   \\    /   O peration     | Website:  https://openfoam.org
    \\  /    A nd           | Version:  6
     \\/     M anipulation  |
\*---------------------------------------------------------------------------*/
FoamFile
{
    version     2.0;
    format      ascii;
    class       surfaceScalarField;
    location    "900";
    object      phi;
}
// * * * * * * * * * * * * * * * * * * * * * * * * * * * * * * * * * * * * * //

dimensions      [1 0 -1 0 0 0 0];

internalField   nonuniform List<scalar> 
852
(
-0.0029573
0.00301466
-0.00399529
0.00103799
-0.00479525
0.000799958
-0.00541951
0.000624262
-0.00583462
0.000415118
-0.00601266
0.000178036
-0.00592554
-8.71183e-05
-0.00555095
-0.000374588
-0.0049037
-0.000647252
-0.00404754
-0.000856162
-0.00308131
-0.000966231
-0.00211619
-0.000965115
-0.00125374
-0.000862447
-0.000554931
-0.00069881
-0.000553267
-0.000776426
0.000779411
-0.000520521
-0.000255903
7.35154e-05
-0.000594036
0.000573077
-0.00049956
0.000919463
-0.000346385
0.00114508
-0.000225616
0.00127085
-0.000125772
0.00133185
-6.0995e-05
0.00136566
-3.38128e-05
0.00138648
-2.0816e-05
0.0013983
-1.18162e-05
0.00140266
-4.35805e-06
0.00139825
4.40706e-06
0.00137764
2.06141e-05
0.00131987
5.77762e-05
0.00118974
0.000130128
0.000975361
0.00021438
0.000713121
0.000262242
0.000717118
-0.00211851
0.00528772
-0.00313739
0.00205687
-0.00396625
0.00162882
-0.00458661
0.00124462
-0.00499987
0.000828383
-0.00518718
0.000365343
-0.00511718
-0.000157114
-0.00477159
-0.000720176
-0.00417754
-0.00124131
-0.00340957
-0.00162413
-0.00256508
-0.00181072
-0.00173887
-0.00179133
-0.00101168
-0.00158963
-0.000458879
-0.00125161
-0.000192203
-0.000819942
0.000109332
-0.000301585
0.000109281
0.000256536
0.000531566
0.000660627
-0.000659993
0.000926446
-0.000859854
0.00114971
-0.000722826
0.001327
-0.000523669
0.00144122
-0.000339839
0.0014615
-0.000146045
0.00146656
-6.60525e-05
0.00147267
-3.99232e-05
0.0014778
-2.59483e-05
0.00148121
-1.52264e-05
0.00148306
-6.20408e-06
0.00148272
4.74936e-06
0.00147701
2.6323e-05
0.00143839
9.64028e-05
0.00127266
0.000295859
0.000984335
0.000502705
0.000622964
0.000623614
0.00135025
-0.0014891
0.00701325
-0.00237103
0.00293881
-0.00311171
0.0023695
-0.00364827
0.00178118
-0.00401534
0.00119545
-0.00418911
0.000539117
-0.00411571
-0.000230517
-0.0037681
-0.00106779
-0.00319865
-0.00181075
-0.00250012
-0.00232266
-0.0017671
-0.00254373
-0.00107311
-0.00248532
-0.000470525
-0.00219221
4.69767e-06
-0.00172684
0.000318526
-0.00113377
0.000463074
-0.000446132
0.000572356
0.00149332
-0.000952259
0.00171303
-0.000879699
0.00167142
-0.000818243
0.0016605
-0.000711907
0.00168509
-0.000548254
0.00172531
-0.000380058
0.00157942
0.00151352
0.00147375
0.00144796
0.00143289
0.00142684
0.00143174
0.00145822
0.00155478
0.001285
0.000565637
0.00095399
0.000833717
0.000536034
0.00104157
0.00190166
-0.00104297
0.00836237
-0.0017449
0.00364074
-0.002243
0.0028676
-0.00260275
0.00214093
-0.00285619
0.0014489
-0.0029676
0.000650522
-0.00284061
-0.000357507
-0.00245553
-0.00145286
-0.00191185
-0.00235444
-0.00131237
-0.00292214
-0.000732775
-0.00312332
-0.000214065
-0.00300403
0.000227466
-0.00263374
0.000591355
-0.00209072
0.0009157
-0.00145811
0.00128162
-0.000812047
0.00212649
-0.000272518
0.00249093
-0.000356054
0.00213856
-0.000599888
0.00200509
-0.000746226
0.00187851
-0.000691659
0.00176504
-0.000598437
0.00169391
-0.000477122
0.00163872
-0.000324867
0.00177978
-0.000141219
0.00186709
-8.74601e-05
0.00193731
-7.03693e-05
0.00199209
-5.49289e-05
0.00201724
-2.53074e-05
0.00199114
2.59526e-05
0.0018885
0.000102488
0.00167612
0.000212225
0.00129915
0.000376823
0.00113887
0.000725915
0.000826832
0.00114576
0.000358937
0.00150947
0.00228065
-0.000728942
0.00945665
-0.001263
0.00417479
-0.00138573
0.00299034
-0.00148038
0.00223557
-0.00154443
0.00151295
-0.00151175
0.000617843
-0.0012451
-0.000624149
-0.000808437
-0.00188953
-0.000333423
-0.00282945
0.000100183
-0.00335575
0.00045652
-0.00347966
0.000730039
-0.00327755
0.000941293
-0.002845
0.00112033
-0.00226976
0.00130152
-0.00163931
0.00153268
-0.00104321
0.00185733
-0.000597161
0.00196567
-0.000464391
0.00188475
-0.000518967
0.0017101
-0.000571578
0.00155377
-0.000535333
0.00142052
-0.000465187
0.00132383
-0.000380425
0.00127954
-0.000280582
0.00132401
-0.000185685
0.0013793
-0.00014275
0.00143875
-0.000129816
0.0014989
-0.00011508
0.00154912
-7.55282e-05
0.00156905
6.03303e-06
0.00153732
0.000134216
0.00144218
0.000307363
0.00128467
0.000534335
0.00113777
0.000872819
0.000972644
0.00131088
0.000616577
0.00186554
0.00051444
0.00238279
-0.000989654
0.00150389
-0.00145369
0.000463829
-0.00140522
-0.000631325
0.0105032
-0.000998714
0.00454218
-0.000605673
0.0025973
-0.00031529
0.00194519
-0.000104297
0.00130195
0.000211264
0.000302283
0.000685585
-0.00109847
0.00112337
-0.00232731
0.00143911
-0.00314519
0.00161692
-0.00353356
0.00168073
-0.00354346
0.00166329
-0.00326012
0.00159639
-0.0027781
0.00151756
-0.00219093
0.00146036
-0.00158211
0.00144998
-0.00103282
0.00148001
-0.000627196
0.00144826
-0.000432641
0.00132421
-0.000394912
0.00114667
-0.000394041
0.000984266
-0.000372926
0.000855662
-0.000336582
0.000768888
-0.00029365
0.000734508
-0.000246201
0.000755597
-0.000206772
0.00080713
-0.000194283
0.000875049
-0.000197733
0.000953504
-0.000193534
0.0010365
-0.000158527
0.00111236
-6.98223e-05
0.00116273
8.38446e-05
0.00118251
0.000287591
0.00118067
0.000536178
0.0012015
0.000851983
0.00129116
0.00122123
0.00146576
0.00169094
0.00190383
0.00194473
0.00216293
0.00124479
0.00177339
0.000853374
0.000426396
-0.000719145
0.0116821
-0.000606372
0.00442941
0.000467213
0.00152371
0.00113819
0.00127421
0.00169963
0.000740518
0.00233883
-0.000336919
0.00289685
-0.00165649
0.00320806
-0.00263853
0.00326579
-0.00320292
0.00311511
-0.00338288
0.00281928
-0.00324763
0.00244239
-0.00288323
0.00203897
-0.00237467
0.00165735
-0.00180931
0.00133085
-0.0012556
0.00107965
-0.000781622
0.000901283
-0.000448826
0.000749685
-0.000281042
0.000589663
-0.00023489
0.000428949
-0.000233326
0.000290844
-0.00023482
0.000186633
-0.00023237
0.000120653
-0.000227668
9.71802e-05
-0.000222727
0.000114408
-0.000223998
0.000158679
-0.000238553
0.000219444
-0.000258497
0.000294821
-0.000268909
0.000388838
-0.000252542
0.000506553
-0.000187536
0.000636098
-4.56987e-05
0.000765943
0.000157748
0.000906199
0.000395924
0.00109472
0.000663461
0.00137748
0.000938467
0.00182034
0.00124808
0.00248832
0.00127676
0.00303083
0.000702277
0.00305018
0.000834028
0.00353928
0.00259952
0.00959625
0.003275
0.00375393
0.00343506
0.00136365
0.00387965
0.000829626
0.0045609
5.92678e-05
0.00525304
-0.00102906
0.00554105
-0.0019445
0.00542484
-0.00252232
0.00498951
-0.00276758
0.00433846
-0.00273183
0.00357358
-0.00248275
0.00278169
-0.00209134
0.00202268
-0.00161567
0.00135173
-0.00113836
0.00079683
-0.000700706
0.000379854
-0.000364645
0.000100759
-0.000169731
-8.54029e-05
-9.48786e-05
-0.000227896
-9.23963e-05
-0.000347733
-0.000113488
-0.000446207
-0.000136344
-0.000521237
-0.00015734
-0.000571948
-0.000176955
-0.000597963
-0.000196711
-0.000602386
-0.000219574
-0.000593941
-0.000246996
-0.000578563
-0.000273873
-0.000555647
-0.000291823
-0.000517003
-0.000291184
-0.000443823
-0.000260714
-0.000305677
-0.000183843
-0.000117298
-3.06282e-05
0.000103391
0.000175236
0.000376939
0.000389914
0.000713626
0.000601783
0.001154
0.000807709
0.00162919
0.000801569
0.00182139
0.000510072
0.00107104
0.00158438
0.00486915
0.01016
0.0139068
0.0122247
0.00304568
0.0113122
0.00174213
0.0105771
0.000794415
0.00969556
-0.000147532
0.00855681
-0.000805755
0.00726737
-0.00123288
0.00592122
-0.00142143
0.00458669
-0.00139729
0.00332649
-0.00122255
0.00219235
-0.000957202
0.00119371
-0.000617029
0.000373413
-0.000318052
-0.00023356
-9.37312e-05
-0.000613969
1.57658e-05
-0.000821591
3.78927e-05
-0.000940703
2.42349e-05
-0.00102916
-3.93496e-06
-0.00110791
-3.47387e-05
-0.0011798
-6.445e-05
-0.00124463
-9.25086e-05
-0.00130279
-0.000118799
-0.00135576
-0.000143737
-0.00140742
-0.000167915
-0.00146492
-0.000189493
-0.00153565
-0.000203142
-0.00162697
-0.000200498
-0.00174799
-0.00017016
-0.00191038
-9.83282e-05
-0.00212177
2.7556e-05
-0.00236926
0.000216864
-0.00267852
0.000484494
-0.00313575
0.000847146
-0.00383561
0.00130164
-0.00484234
0.00181444
-0.00626977
0.00222901
-0.00798754
0.00222784
-0.00747859
0.00107543
-0.00232266
0.00510502
0.00456711
0.00410918
0.00273796
0.0045178
0.000385796
0.00456157
-0.000191307
0.00415797
-0.000402152
0.00347914
-0.000554053
0.00263485
-0.000577144
0.00171708
-0.000479515
0.000800577
-0.000306051
-6.22269e-05
-9.43955e-05
-0.00076825
8.89965e-05
-0.00123473
0.000148433
-0.00149013
0.000161665
-0.00161618
0.000141818
-0.00168577
0.000107489
-0.00173483
7.32931e-05
-0.00178063
4.18607e-05
-0.00183027
1.49034e-05
-0.00188701
-7.70744e-06
-0.00195075
-2.87668e-05
-0.00202098
-4.85611e-05
-0.00209883
-6.58889e-05
-0.00218559
-8.11503e-05
-0.00228347
-9.16131e-05
-0.00239369
-9.29202e-05
-0.00251521
-7.89768e-05
-0.00264352
-4.18461e-05
-0.00276997
2.81245e-05
-0.0028826
0.000140185
-0.00297914
0.000313401
-0.00306795
0.000573312
-0.00315603
0.000935228
-0.00324093
0.00138654
-0.00327593
0.00184944
-0.00320183
0.0021549
-0.00283852
0.00186453
-0.00156573
-0.00019735
-0.00381337
-0.000444502
0.00506797
0.000858546
0.00143491
0.000837975
0.000406366
0.000578495
6.81722e-05
0.000213015
-3.66703e-05
-0.000302255
-3.87798e-05
-0.000891455
1.20586e-05
-0.00144719
7.62176e-05
-0.00188733
0.000134094
-0.00216031
0.000178585
-0.00227122
0.000199907
-0.00230998
0.000187194
-0.00231018
0.000161871
-0.00230137
0.000133008
-0.00230023
0.000106349
-0.00231047
8.3538e-05
-0.00233176
6.31477e-05
-0.00236136
4.45075e-05
-0.00239687
2.78066e-05
-0.00243863
1.29919e-05
-0.0024865
-6.86107e-07
-0.00254025
-1.2143e-05
-0.00259986
-2.15381e-05
-0.00266366
-2.78155e-05
-0.00272768
-2.88967e-05
-0.00278501
-2.16392e-05
-0.0028249
-1.959e-06
-0.00283543
3.86617e-05
-0.00280392
0.000108675
-0.00270714
0.000216625
-0.00251236
0.00037853
-0.00219231
0.000615179
-0.00173199
0.000926223
-0.0011077
0.00122516
-0.000139357
0.00118656
0.00116268
0.000562498
0.0015733
-0.000607972
-0.00215771
-0.00794807
-0.0107983
-0.00568621
-0.00422832
-0.0038077
-0.00373014
-0.00376053
-0.00379534
-0.00378103
-0.00370387
-0.0035699
-0.00339238
-0.00319434
-0.00300969
-0.00285093
-0.00272147
-0.00261902
-0.00253966
-0.00248088
-0.00244087
-0.00241763
-0.00240922
-0.00241448
-0.00243115
-0.00245716
-0.00248935
-0.00252253
-0.00254835
-0.00255436
-0.00251961
-0.0024147
-0.0022017
-0.00182667
-0.00121486
-0.000291916
0.000929998
0.00211322
0.00267219
0.00206044
)
;

boundaryField
{
    floor
    {
        type            calculated;
        value           nonuniform List<scalar> 
29
(
0
0
0
0
0
0
0
0
0
0
0
0
0
0
0
0
0
0
0
0
-3.99566e-06
-1.01643e-05
-1.53809e-05
-2.00502e-05
-1.66318e-06
-2.98384e-06
-8.6898e-06
-9.49882e-06
-8.38751e-06
)
;
    }
    ceiling
    {
        type            calculated;
        value           nonuniform List<scalar> 
43
(
-4.6635e-05
-4.53591e-05
-4.40877e-05
-2.29789e-05
-1.42539e-05
-9.39006e-06
-6.27039e-06
-3.9761e-06
-2.24549e-06
-9.45628e-07
1.3398e-07
1.06158e-06
1.86732e-06
2.55203e-06
3.1094e-06
3.55186e-06
3.90132e-06
4.17211e-06
4.36978e-06
4.4988e-06
4.56827e-06
4.59028e-06
4.57525e-06
4.52998e-06
4.46496e-06
4.38315e-06
4.2865e-06
4.17615e-06
4.05236e-06
3.91372e-06
3.77046e-06
3.62885e-06
3.49419e-06
3.37389e-06
3.28175e-06
3.24874e-06
3.34291e-06
3.52627e-06
3.77662e-06
4.81638e-06
1.02665e-05
7.21925e-06
-5.63514e-05
)
;
    }
    sWall
    {
        type            calculated;
        value           uniform -0.000271479;
    }
    nWall
    {
        type            calculated;
        value           nonuniform List<scalar> 6(-4.86712e-05 -5.82199e-05 -6.27044e-05 -7.50258e-05 -8.23556e-05 -0.000102082);
    }
    sideWalls
    {
        type            empty;
        value           nonuniform 0();
    }
    glass1
    {
        type            calculated;
        value           nonuniform List<scalar> 9(-5.73565e-05 -0.000154547 -0.00023644 -0.000306153 -0.00036533 -0.000415201 -0.00045976 -0.000513694 -0.000574062);
    }
    glass2
    {
        type            calculated;
        value           nonuniform List<scalar> 2(-0.000258824 -0.000286778);
    }
    sun
    {
        type            calculated;
        value           uniform 0;
    }
    heatsource1
    {
        type            calculated;
        value           nonuniform List<scalar> 3(2.04201e-07 2.04142e-07 2.04159e-07);
    }
    heatsource2
    {
        type            calculated;
        value           nonuniform List<scalar> 4(5.11925e-08 5.12793e-08 0 0);
    }
    Table_master
    {
        type            calculated;
        value           nonuniform List<scalar> 9(-1.53147e-07 -1.53236e-07 -1.53269e-07 -1.5329e-07 -1.53306e-07 -1.53317e-07 -1.53322e-07 -1.53317e-07 -1.53287e-07);
    }
    Table_slave
    {
        type            calculated;
        value           nonuniform List<scalar> 9(1.53023e-07 1.53042e-07 1.5302e-07 1.53003e-07 1.52996e-07 1.52999e-07 1.53014e-07 1.53056e-07 1.53137e-07);
    }
    inlet
    {
        type            calculated;
        value           uniform -0.00662646;
    }
    outlet
    {
        type            calculated;
        value           nonuniform List<scalar> 2(0.00826619 0.00289555);
    }
}


// ************************************************************************* //
