/*--------------------------------*- C++ -*----------------------------------*\
  =========                 |
  \\      /  F ield         | OpenFOAM: The Open Source CFD Toolbox
   \\    /   O peration     | Website:  https://openfoam.org
    \\  /    A nd           | Version:  6
     \\/     M anipulation  |
\*---------------------------------------------------------------------------*/
FoamFile
{
    version     2.0;
    format      ascii;
    class       volScalarField;
    location    "200";
    object      alphat;
}
// * * * * * * * * * * * * * * * * * * * * * * * * * * * * * * * * * * * * * //

dimensions      [1 -1 -1 0 0 0 0];

internalField   nonuniform List<scalar> 
459
(
0.000856754
0.000869333
0.000739381
0.000758733
0.000787042
0.00081546
0.00084334
0.000871075
0.000899657
0.00092863
0.000953472
0.000972768
0.000985578
0.000991235
0.000984374
0.000439569
0.000481086
0.00049271
0.000401645
0.000310186
0.000279292
0.000272111
0.000270962
0.000282925
0.000307292
0.000340154
0.00037586
0.000411623
0.000446575
0.000494105
0.000548279
0.000578567
0.000567915
0.000504748
0.00155064
0.00283049
0.00173957
0.00253517
0.00277871
0.00297679
0.00318316
0.00337853
0.00353581
0.00363928
0.00367913
0.00361778
0.00339375
0.00290748
0.00206587
0.00106997
0.000734985
0.000588436
0.00128459
0.00149147
0.00151138
0.0013122
0.000717391
0.000382865
0.000365891
0.00046397
0.00065167
0.000891241
0.00114489
0.00140863
0.0016509
0.00185766
0.00210815
0.00198101
0.00190792
0.000637344
0.00215623
0.00501349
0.00194873
0.00334602
0.00418721
0.00446391
0.00467583
0.00485594
0.00499031
0.0050733
0.0050843
0.00497691
0.00467876
0.00409616
0.00318312
0.00210273
0.00115903
0.00103389
0.00282459
0.00260146
0.00228695
0.00179181
0.00125752
0.000419074
0.000366919
0.000419104
0.000471981
0.000526665
0.000586005
0.00065356
0.000735142
0.000840012
0.00203774
0.00180442
0.00142978
0.000831831
0.00270881
0.00757301
0.00262782
0.00324828
0.00485095
0.00527967
0.00550744
0.00570154
0.00586682
0.00599072
0.00608761
0.00611493
0.00598703
0.0055717
0.00472523
0.0034473
0.00210843
0.00132973
0.00332551
0.00339864
0.00308755
0.00247874
0.0018803
0.0013097
0.000856837
0.000859845
0.000864113
0.000867865
0.000872252
0.000879933
0.000895402
0.00092627
0.00101058
0.00307959
0.00370273
0.00368678
0.00124516
0.0032028
0.0101372
0.00392808
0.00299614
0.00483306
0.00548637
0.00575643
0.00596956
0.00616617
0.00635392
0.00660309
0.00690616
0.007213
0.00744905
0.00752249
0.00735606
0.00695513
0.0064592
0.00636142
0.00601431
0.00558892
0.00520785
0.00487935
0.00460974
0.00439796
0.00428175
0.00416487
0.00404953
0.0039556
0.00391103
0.00393861
0.00404584
0.00422924
0.00447897
0.00462587
0.00456281
0.00395978
0.00169067
0.00150043
0.00130827
0.00365283
0.0122902
0.00612066
0.00340617
0.0041479
0.00495533
0.00538879
0.00566571
0.00585569
0.00603259
0.00635774
0.00681448
0.00736647
0.00795049
0.0084724
0.00882156
0.00890329
0.00871286
0.00836406
0.00792488
0.00748477
0.00709668
0.00676165
0.00646247
0.00617337
0.00587794
0.00556917
0.00526125
0.00498637
0.00478704
0.00469258
0.00469701
0.00475673
0.00480876
0.00481117
0.00470802
0.00431744
0.00350224
0.00261969
0.00136084
0.00404936
0.0137163
0.00939353
0.00555049
0.00402067
0.00412702
0.00470365
0.00515986
0.00533336
0.00548247
0.00574942
0.00615806
0.00672381
0.00741897
0.0081503
0.008777
0.00915282
0.00923116
0.00908132
0.0088073
0.00849797
0.00820168
0.00792613
0.00765685
0.00736805
0.00704082
0.00666967
0.00626253
0.0058451
0.00546276
0.00515748
0.00494016
0.00477361
0.0046207
0.00442073
0.00410189
0.00360552
0.00297822
0.00235298
0.00133266
0.00409802
0.01308
0.0109256
0.00900268
0.00672928
0.00537733
0.00506928
0.00524202
0.00528641
0.00528465
0.00534521
0.00550754
0.00581592
0.00631352
0.00699171
0.00774802
0.00835737
0.0087048
0.00882488
0.00878994
0.00867815
0.00854613
0.00841981
0.0082995
0.00816728
0.00799969
0.00777674
0.00748925
0.00714321
0.00677529
0.00641811
0.00603538
0.00562419
0.00516992
0.00468566
0.00420138
0.00374025
0.00327967
0.00286697
0.0016833
0.00393123
0.00459296
0.00793304
0.00846559
0.00769819
0.00673614
0.00601598
0.00557568
0.00529428
0.0051335
0.00506269
0.00505896
0.00512875
0.00530855
0.00564682
0.00615086
0.00672494
0.00723318
0.00759896
0.00781905
0.00793367
0.00799237
0.00803499
0.00808618
0.00815575
0.0082404
0.00831915
0.0083704
0.00836421
0.00825285
0.00802121
0.00775734
0.00754359
0.00746006
0.00751773
0.00740085
0.00645605
0.00533117
0.00530243
0.00186313
0.0153796
0.0158654
0.00998316
0.00797058
0.00687898
0.00618097
0.00570336
0.00535608
0.00508845
0.004881
0.0047277
0.00463637
0.00462951
0.00473697
0.00497033
0.00529923
0.00566088
0.00599523
0.00627214
0.00649277
0.00667672
0.00684987
0.00703766
0.00726216
0.00753599
0.00785195
0.00817094
0.00838133
0.00842894
0.00834402
0.00819123
0.0080449
0.00793776
0.00780005
0.00730005
0.0062741
0.0057448
0.00181336
0.00656675
0.0139772
0.00993322
0.00803923
0.00691403
0.00613064
0.00554922
0.00509596
0.00471098
0.00437722
0.00409497
0.00386486
0.0036897
0.00357607
0.00353302
0.00356686
0.00367472
0.00384146
0.0040435
0.00425699
0.00446552
0.00466431
0.00486105
0.00507505
0.0053341
0.00566475
0.00607405
0.00650106
0.00686316
0.00709668
0.00718244
0.00713905
0.00699015
0.00671182
0.00604463
0.00509236
0.00465475
0.00159304
0.00311455
0.00390258
0.00507348
0.00467366
0.00385456
0.0032865
0.00287152
0.00255155
0.00229483
0.00208269
0.00190685
0.00175854
0.00163096
0.00151992
0.0014228
0.00133792
0.00126423
0.00120103
0.00114776
0.00110382
0.00106843
0.00104062
0.00101937
0.00100379
0.000993397
0.000988327
0.000989598
0.000999169
0.00101974
0.00106
0.00112285
0.00120167
0.00128082
0.00134213
0.00137259
0.00136546
0.00134355
0.00130851
0.00130571
0.00123519
)
;

boundaryField
{
    floor
    {
        type            compressible::alphatWallFunction;
        Prt             0.85;
        value           nonuniform List<scalar> 
29
(
0.000140036
5.98002e-05
6.62219e-05
6.8007e-05
5.38631e-05
3.92341e-05
3.41704e-05
3.29829e-05
3.27906e-05
3.4765e-05
3.87572e-05
4.40762e-05
4.97802e-05
5.54237e-05
6.08802e-05
6.8216e-05
7.64723e-05
8.10443e-05
7.9439e-05
6.98516e-05
6.98507e-05
8.98257e-05
0.000118259
0.000176312
0.000140035
5.97994e-05
8.25257e-05
0.000146959
0.000187873
)
;
    }
    ceiling
    {
        type            compressible::alphatWallFunction;
        Prt             0.85;
        value           nonuniform List<scalar> 
43
(
0.000418962
0.000515742
0.000656012
0.000608488
0.000509845
0.000440199
0.000388542
0.00034818
0.00031541
0.000288035
0.000265115
0.000245605
0.000228676
0.000213822
0.00020073
0.000189206
0.000179133
0.000170441
0.000163073
0.000156966
0.000152025
0.000148129
0.000145143
0.000142949
0.000141482
0.000140766
0.000140944
0.000142292
0.000145187
0.000150832
0.000159595
0.000170507
0.000181381
0.000189751
0.000193893
0.000192924
0.000189942
0.000185162
0.000184778
0.000175114
0.000519171
0.000598831
0.000830377
)
;
    }
    sWall
    {
        type            compressible::alphatWallFunction;
        Prt             0.85;
        value           uniform 0.00041788;
    }
    nWall
    {
        type            compressible::alphatWallFunction;
        Prt             0.85;
        value           nonuniform List<scalar> 6(0.000184741 0.000191907 0.000188073 0.000252411 0.000223202 0.000174763);
    }
    sideWalls
    {
        type            empty;
    }
    glass1
    {
        type            compressible::alphatWallFunction;
        Prt             0.85;
        value           nonuniform List<scalar> 9(0.000118276 0.000212511 0.000291147 0.000361008 0.000422313 0.000477381 0.000525376 0.000531394 0.000511558);
    }
    glass2
    {
        type            compressible::alphatWallFunction;
        Prt             0.85;
        value           nonuniform List<scalar> 2(0.000233619 0.000257249);
    }
    sun
    {
        type            compressible::alphatWallFunction;
        Prt             0.85;
        value           nonuniform List<scalar> 
14
(
0.000121908
0.00012369
0.000104911
0.000107731
0.000111842
0.00011595
0.000119964
0.000123941
0.000128025
0.000132148
0.000135671
0.0001384
0.000140208
0.000141005
)
;
    }
    heatsource1
    {
        type            compressible::alphatWallFunction;
        Prt             0.85;
        value           nonuniform List<scalar> 3(0.000236597 0.000211186 0.00018515);
    }
    heatsource2
    {
        type            compressible::alphatWallFunction;
        Prt             0.85;
        value           nonuniform List<scalar> 4(0.000152237 0.000104445 0.000104444 0.000164624);
    }
    Table_master
    {
        type            compressible::alphatWallFunction;
        Prt             0.85;
        value           nonuniform List<scalar> 9(5.6818e-05 4.85715e-05 5.68154e-05 6.50356e-05 7.34148e-05 8.23853e-05 9.24621e-05 0.000104464 0.00011966);
    }
    Table_slave
    {
        type            compressible::alphatWallFunction;
        Prt             0.85;
        value           nonuniform List<scalar> 9(0.000122082 0.000122513 0.000123125 0.000123663 0.000124292 0.000125391 0.000127601 0.000131996 0.000143916);
    }
    inlet
    {
        type            fixedValue;
        value           uniform 1.94e-05;
    }
    outlet
    {
        type            zeroGradient;
    }
}


// ************************************************************************* //
