// -*- C++ -*-
// File generated by PyFoam - sorry for the ugliness

FoamFile
{
 version 2.0;
 format ascii;
 class volVectorField;
 location "200";
 object U;
}

dimensions [ 0 1 -1 0 0 0 0 ];

internalField nonuniform List<vector> 459
(
  (0.110612 0.0656904 0)
  (-0.136511 -0.0022916 0)
  (-0.105737 0.000710975 0)
  (-0.111505 0.00308711 0)
  (-0.11886 0.00337525 0)
  (-0.12614 0.00259157 0)
  (-0.132062 0.00114393 0)
  (-0.135755 -0.000831356 0)
  (-0.136482 -0.00331 0)
  (-0.133483 -0.00637823 0)
  (-0.125661 -0.0101867 0)
  (-0.11136 -0.0149816 0)
  (-0.0898035 -0.0216772 0)
  (-0.0673194 -0.0318946 0)
  (-0.0679842 -0.0443497 0)
  (0.0224573 0.0161703 0)
  (-0.045824 -0.00930204 0)
  (-0.032448 -0.00937857 0)
  (-0.0297165 -0.00506212 0)
  (-0.0281594 -0.00394025 0)
  (-0.0252563 -0.0063751 0)
  (-0.0168642 -0.0120468 0)
  (-0.00979871 -0.0158683 0)
  (0.00694754 -0.010414 0)
  (0.0140534 -0.00767187 0)
  (0.0197472 -0.00587723 0)
  (0.024222 -0.0046173 0)
  (0.0277373 -0.00351904 0)
  (0.0305332 -0.0020685 0)
  (0.0325007 -0.00094835 0)
  (0.0347366 -0.00205817 0)
  (0.0383854 -0.00520835 0)
  (0.0487176 -0.00175084 0)
  (-0.0152771 0.0200762 0)
  (0.316702 0.144873 0)
  (-0.163486 0.00952883 0)
  (-0.0976086 0.00710738 0)
  (-0.10947 0.0108377 0)
  (-0.118038 0.0117674 0)
  (-0.125752 0.010615 0)
  (-0.131916 0.0080246 0)
  (-0.135962 0.00425587 0)
  (-0.137293 -0.00063801 0)
  (-0.135316 -0.00670049 0)
  (-0.129409 -0.0138959 0)
  (-0.118686 -0.022286 0)
  (-0.102808 -0.0326421 0)
  (-0.0835869 -0.0463285 0)
  (-0.0651861 -0.061457 0)
  (-0.0487465 -0.0675651 0)
  (0.0347722 0.00958467 0)
  (0.136308 0.0235692 0)
  (0.0511406 0.0140548 0)
  (0.0180162 0.00607655 0)
  (0.00503431 0.00380422 0)
  (-0.000149167 0.0050532 0)
  (-0.00945063 0.00376001 0)
  (-0.00588879 -0.012072 0)
  (-0.0121095 -0.0171291 0)
  (-0.00739904 -0.011106 0)
  (-0.00617997 -0.00734345 0)
  (-0.00646163 -0.00527922 0)
  (-0.00738185 -0.00356652 0)
  (-0.00879387 -0.00144647 0)
  (-0.0113459 0.000340346 0)
  (-0.0126551 -0.00226552 0)
  (-0.0110237 -0.0109962 0)
  (-0.006232 -0.0182327 0)
  (0.0270666 -0.0045098 0)
  (-0.104308 0.0475969 0)
  (0.483761 0.22117 0)
  (-0.209006 0.0344309 0)
  (-0.0817216 0.0199064 0)
  (-0.102054 0.0199367 0)
  (-0.111983 0.0196031 0)
  (-0.120133 0.016974 0)
  (-0.126698 0.0124166 0)
  (-0.131417 0.00617197 0)
  (-0.133929 -0.00164088 0)
  (-0.133718 -0.0109089 0)
  (-0.130812 -0.0216223 0)
  (-0.125151 -0.0336582 0)
  (-0.117131 -0.0470484 0)
  (-0.107823 -0.0612794 0)
  (-0.0987268 -0.073178 0)
  (-0.0929825 -0.0767288 0)
  (-0.0995925 -0.0702843 0)
  (0.0821204 0.00794319 0)
  (-0.0400448 0.0120341 0)
  (-0.0328735 0.0131077 0)
  (-0.0275693 0.008749 0)
  (-0.0204016 0.0044775 0)
  (-0.0186814 -0.0011629 0)
  (0.0116323 -0.0100356 0)
  (-0.0216282 -0.014494 0)
  (-0.0342456 -0.00934469 0)
  (-0.0419913 -0.00675563 0)
  (-0.0472828 -0.0052825 0)
  (-0.0508895 -0.00432672 0)
  (-0.0531445 -0.00372705 0)
  (-0.0540542 -0.00376814 0)
  (-0.0526819 -0.00550031 0)
  (-0.0430269 -0.00766984 0)
  (-0.0520363 -0.000756269 0)
  (-0.0798927 0.0114011 0)
  (-0.165812 0.0250383 0)
  (0.615818 0.283877 0)
  (-0.251875 0.0647717 0)
  (-0.0624161 0.0357764 0)
  (-0.0913213 0.0308463 0)
  (-0.102503 0.0286231 0)
  (-0.110148 0.0244655 0)
  (-0.116199 0.0183606 0)
  (-0.120667 0.0103686 0)
  (-0.123476 0.000558125 0)
  (-0.12435 -0.0108261 0)
  (-0.123808 -0.0233295 0)
  (-0.122689 -0.0365244 0)
  (-0.12205 -0.0499213 0)
  (-0.123194 -0.0622236 0)
  (-0.127942 -0.0702015 0)
  (-0.139657 -0.067835 0)
  (-0.157522 -0.0439 0)
  (-0.151331 0.0153181 0)
  (-0.109984 0.00927299 0)
  (-0.104116 0.0104733 0)
  (-0.0900376 0.00618135 0)
  (-0.0840582 0.000855983 0)
  (-0.0810942 -0.0051742 0)
  (-0.0799456 -0.0106144 0)
  (-0.0759897 -0.00979769 0)
  (-0.0653 -0.0101695 0)
  (-0.0543411 -0.0108699 0)
  (-0.0431049 -0.0111515 0)
  (-0.0321631 -0.0109331 0)
  (-0.0220935 -0.0102302 0)
  (-0.0132065 -0.00919608 0)
  (-0.00512008 -0.00803506 0)
  (0.0057806 -0.00618978 0)
  (0.00334763 -0.0102062 0)
  (0.0138693 -0.00454669 0)
  (0.0314236 -0.00413835 0)
  (-0.0898589 -0.0099599 0)
  (0.718062 0.335255 0)
  (-0.286775 0.0979879 0)
  (-0.0440007 0.0522358 0)
  (-0.0778208 0.0420207 0)
  (-0.0902949 0.0368783 0)
  (-0.0963295 0.0306744 0)
  (-0.100333 0.0229334 0)
  (-0.102743 0.0134986 0)
  (-0.103756 0.00231781 0)
  (-0.103333 -0.0101936 0)
  (-0.102605 -0.0229922 0)
  (-0.102753 -0.0353909 0)
  (-0.104817 -0.0470112 0)
  (-0.10957 -0.057096 0)
  (-0.117509 -0.0641458 0)
  (-0.128114 -0.065655 0)
  (-0.136851 -0.0569149 0)
  (-0.137522 -0.0336556 0)
  (-0.128687 -0.01491 0)
  (-0.116637 -0.00496675 0)
  (-0.104849 -0.00341196 0)
  (-0.0962 -0.00505056 0)
  (-0.0896844 -0.00848877 0)
  (-0.0846716 -0.0119493 0)
  (-0.0791986 -0.0132529 0)
  (-0.0723604 -0.0147954 0)
  (-0.0651233 -0.0157616 0)
  (-0.0578453 -0.0159494 0)
  (-0.0508931 -0.0152625 0)
  (-0.0445754 -0.013886 0)
  (-0.038899 -0.0123681 0)
  (-0.0332979 -0.0115829 0)
  (-0.0267431 -0.0124552 0)
  (-0.0190562 -0.0167907 0)
  (-0.00533783 -0.0198236 0)
  (0.0254231 -0.0216685 0)
  (0.0531393 -0.0228982 0)
  (0.0991505 -0.0292219 0)
  (0.134474 2.93884e-05 0)
  (-0.0413887 0.0613339 0)
  (0.781518 0.381397 0)
  (-0.314721 0.128602 0)
  (-0.0314935 0.06239 0)
  (-0.0587519 0.0533587 0)
  (-0.0735686 0.0444583 0)
  (-0.0781485 0.0346767 0)
  (-0.0789829 0.0246956 0)
  (-0.0778035 0.013847 0)
  (-0.0751113 0.00157853 0)
  (-0.0713334 -0.0114818 0)
  (-0.0688836 -0.0234161 0)
  (-0.0686339 -0.0337596 0)
  (-0.071328 -0.0426121 0)
  (-0.0771566 -0.0496833 0)
  (-0.0857921 -0.0538498 0)
  (-0.0958307 -0.0531363 0)
  (-0.103801 -0.045695 0)
  (-0.10645 -0.0333681 0)
  (-0.103571 -0.0220165 0)
  (-0.0973318 -0.0146829 0)
  (-0.0904117 -0.011871 0)
  (-0.0845022 -0.0119933 0)
  (-0.0799424 -0.0139954 0)
  (-0.0765639 -0.0164776 0)
  (-0.0736129 -0.018346 0)
  (-0.07068 -0.0199117 0)
  (-0.0679521 -0.0207782 0)
  (-0.0656844 -0.020592 0)
  (-0.0642043 -0.0192494 0)
  (-0.0637744 -0.0171044 0)
  (-0.0644037 -0.0150325 0)
  (-0.065765 -0.0142887 0)
  (-0.067254 -0.0164096 0)
  (-0.0677299 -0.0228124 0)
  (-0.063942 -0.0333379 0)
  (-0.0519882 -0.0491662 0)
  (-0.0340535 -0.0706751 0)
  (-0.0104734 -0.0837139 0)
  (0.102859 -0.00541812 0)
  (-0.0812534 0.123375 0)
  (0.797804 0.424588 0)
  (-0.325778 0.129699 0)
  (-0.0135075 0.0395697 0)
  (-0.0138457 0.063469 0)
  (-0.0377749 0.055099 0)
  (-0.046799 0.0351534 0)
  (-0.04536 0.020846 0)
  (-0.0404573 0.00851238 0)
  (-0.0324452 -0.00451369 0)
  (-0.0264832 -0.0165366 0)
  (-0.0231145 -0.0258171 0)
  (-0.0229136 -0.0327242 0)
  (-0.026197 -0.038146 0)
  (-0.0327779 -0.0424241 0)
  (-0.0418869 -0.0449427 0)
  (-0.0519736 -0.0442575 0)
  (-0.0604965 -0.0393332 0)
  (-0.0653667 -0.0317085 0)
  (-0.066381 -0.0242596 0)
  (-0.0647926 -0.018884 0)
  (-0.0622029 -0.0161429 0)
  (-0.0598112 -0.0155363 0)
  (-0.0582053 -0.0164292 0)
  (-0.0575434 -0.0179566 0)
  (-0.0576427 -0.019409 0)
  (-0.0584116 -0.0204443 0)
  (-0.0600272 -0.020529 0)
  (-0.0628473 -0.0192007 0)
  (-0.0674648 -0.0163965 0)
  (-0.0745368 -0.01278 0)
  (-0.0844374 -0.00965515 0)
  (-0.0968744 -0.00831356 0)
  (-0.111119 -0.0103863 0)
  (-0.126072 -0.0174436 0)
  (-0.14072 -0.0315709 0)
  (-0.153104 -0.0545483 0)
  (-0.158568 -0.0823227 0)
  (-0.149405 -0.0926255 0)
  (-0.124092 -0.0294554 0)
  (-0.162793 0.227296 0)
  (0.898279 0.447874 0)
  (-0.126136 0.107713 0)
  (0.0684417 -0.0184667 0)
  (0.104164 0.0404784 0)
  (0.0612683 0.050112 0)
  (0.0324605 0.0245623 0)
  (0.027082 0.00490482 0)
  (0.0281669 -0.00753145 0)
  (0.0335132 -0.0167581 0)
  (0.035802 -0.0238033 0)
  (0.035476 -0.0285344 0)
  (0.0328086 -0.0313868 0)
  (0.0277074 -0.0331308 0)
  (0.0201691 -0.0343357 0)
  (0.0105518 -0.0350198 0)
  (-0.000303405 -0.0344534 0)
  (-0.0101309 -0.0316914 0)
  (-0.017226 -0.0272925 0)
  (-0.021501 -0.0227072 0)
  (-0.0236193 -0.0190576 0)
  (-0.0245946 -0.0168353 0)
  (-0.0253124 -0.0159625 0)
  (-0.0263577 -0.0161238 0)
  (-0.0280296 -0.0168055 0)
  (-0.0303827 -0.017474 0)
  (-0.0334275 -0.0176087 0)
  (-0.0372673 -0.0164892 0)
  (-0.0420993 -0.0133543 0)
  (-0.0484354 -0.00773743 0)
  (-0.0568359 0.000149051 0)
  (-0.0685524 0.00889221 0)
  (-0.0865974 0.0154553 0)
  (-0.112425 0.0161309 0)
  (-0.146269 0.00713992 0)
  (-0.186338 -0.0127566 0)
  (-0.228193 -0.0407484 0)
  (-0.264049 -0.0703958 0)
  (-0.296602 -0.0943118 0)
  (-0.364065 -0.098507 0)
  (-0.630492 -0.0584112 0)
  (1.03761 0.41336 0)
  (0.497934 0.251694 0)
  (0.40887 0.183611 0)
  (0.379346 0.177057 0)
  (0.269579 0.139737 0)
  (0.202054 0.0898915 0)
  (0.172329 0.0503385 0)
  (0.154471 0.0227823 0)
  (0.136505 0.00273831 0)
  (0.119987 -0.0110035 0)
  (0.106825 -0.0191467 0)
  (0.0958392 -0.0232443 0)
  (0.0858389 -0.0248055 0)
  (0.0759895 -0.0249462 0)
  (0.0657868 -0.0243576 0)
  (0.0551875 -0.023374 0)
  (0.0449257 -0.0218997 0)
  (0.0360447 -0.0198439 0)
  (0.0290823 -0.0175653 0)
  (0.0239004 -0.0155687 0)
  (0.0199394 -0.0141876 0)
  (0.016575 -0.0134932 0)
  (0.0133079 -0.0133787 0)
  (0.00982034 -0.0135891 0)
  (0.00599646 -0.0137824 0)
  (0.00186908 -0.0135235 0)
  (-0.00244621 -0.0121381 0)
  (-0.00647547 -0.00888729 0)
  (-0.00988706 -0.00316203 0)
  (-0.0119653 0.0054027 0)
  (-0.0138316 0.0164112 0)
  (-0.0157216 0.0281227 0)
  (-0.0183802 0.0371656 0)
  (-0.0220586 0.0398374 0)
  (-0.0259759 0.0333401 0)
  (-0.0324895 0.0162158 0)
  (-0.0463027 -0.0112702 0)
  (-0.0342381 -0.053963 0)
  (-0.0401314 -0.149825 0)
  (-0.531023 -0.273587 0)
  (-1.23711 0.144848 0)
  (0.207244 0.19225 0)
  (0.13389 0.138327 0)
  (0.139451 0.0908924 0)
  (0.158042 0.0548872 0)
  (0.166072 0.0298353 0)
  (0.164523 0.0131332 0)
  (0.158516 0.00200332 0)
  (0.150685 -0.00549534 0)
  (0.142108 -0.0100656 0)
  (0.133179 -0.0123546 0)
  (0.124171 -0.0130037 0)
  (0.115193 -0.0125984 0)
  (0.106235 -0.0116552 0)
  (0.0973826 -0.0105386 0)
  (0.0889425 -0.00946025 0)
  (0.0812782 -0.00857868 0)
  (0.0745533 -0.00800471 0)
  (0.0686632 -0.00777076 0)
  (0.0633492 -0.0078348 0)
  (0.0583326 -0.0081071 0)
  (0.0534022 -0.00844873 0)
  (0.0484708 -0.00866754 0)
  (0.0436028 -0.00849898 0)
  (0.0390472 -0.00755996 0)
  (0.0353222 -0.00533666 0)
  (0.0332015 -0.00134003 0)
  (0.033461 0.00493215 0)
  (0.0365804 0.0134634 0)
  (0.0427951 0.0226864 0)
  (0.05124 0.0293932 0)
  (0.0603492 0.0299087 0)
  (0.0684502 0.0223476 0)
  (0.0742398 0.00835116 0)
  (0.0769815 -0.0071541 0)
  (0.0834638 -0.0242274 0)
  (0.140349 -0.0824545 0)
  (-0.160686 -0.210125 0)
  (-0.585161 0.153111 0)
  (0.214783 0.0968569 0)
  (0.0830421 0.0651379 0)
  (0.107827 0.0480405 0)
  (0.145729 0.0289172 0)
  (0.167263 0.0125947 0)
  (0.175243 0.000402431 0)
  (0.176395 -0.00848132 0)
  (0.173946 -0.0144216 0)
  (0.169327 -0.018062 0)
  (0.163403 -0.0200415 0)
  (0.156892 -0.0208714 0)
  (0.150318 -0.020951 0)
  (0.143956 -0.0205781 0)
  (0.137873 -0.0199555 0)
  (0.132031 -0.0192013 0)
  (0.12637 -0.0183694 0)
  (0.120844 -0.0174675 0)
  (0.115421 -0.0164782 0)
  (0.110083 -0.0153787 0)
  (0.104816 -0.0141497 0)
  (0.0996199 -0.0127667 0)
  (0.0945304 -0.0111864 0)
  (0.0896505 -0.00932384 0)
  (0.0852069 -0.00701122 0)
  (0.0816495 -0.00394982 0)
  (0.0797689 0.000210326 0)
  (0.0803444 0.00562297 0)
  (0.0843983 0.0121781 0)
  (0.0925061 0.0189889 0)
  (0.103951 0.0240812 0)
  (0.116661 0.0251566 0)
  (0.12771 0.0211224 0)
  (0.134267 0.0124351 0)
  (0.13339 -0.0019556 0)
  (0.123888 -0.023478 0)
  (0.153824 -0.067266 0)
  (-0.196904 -0.148451 0)
  (0.189935 -0.127383 0)
  (-0.132731 -0.0226127 0)
  (-0.260922 0.178683 0)
  (0.191864 0.0612049 0)
  (0.111657 0.0482702 0)
  (0.120989 0.0471725 0)
  (0.154675 0.042928 0)
  (0.177547 0.0394585 0)
  (0.187384 0.0379185 0)
  (0.18967 0.0380029 0)
  (0.188148 0.0387206 0)
  (0.184608 0.0397412 0)
  (0.179991 0.0410393 0)
  (0.175006 0.0425093 0)
  (0.170231 0.0439801 0)
  (0.166047 0.0452377 0)
  (0.162628 0.0460421 0)
  (0.159982 0.0461508 0)
  (0.157992 0.0453565 0)
  (0.156461 0.043528 0)
  (0.155162 0.040631 0)
  (0.153886 0.0367152 0)
  (0.152479 0.0318801 0)
  (0.150851 0.0262396 0)
  (0.148989 0.0199002 0)
  (0.146955 0.012961 0)
  (0.144915 0.00554959 0)
  (0.143178 -0.00209489 0)
  (0.142354 -0.00956832 0)
  (0.14291 -0.0161999 0)
  (0.145768 -0.0211515 0)
  (0.151819 -0.0240674 0)
  (0.161138 -0.0257043 0)
  (0.172261 -0.0278221 0)
  (0.182217 -0.032145 0)
  (0.187864 -0.0397555 0)
  (0.18447 -0.0494817 0)
  (0.16864 -0.0619602 0)
  (0.180193 -0.081442 0)
  (-0.211071 -0.124181 0)
)
;

boundaryField
{
  floor
  {
    type noSlip;
  }
  ceiling
  {
    type noSlip;
  }
  sWall
  {
    type noSlip;
  }
  nWall
  {
    type noSlip;
  }
  sideWalls
  {
    type empty;
  }
  glass1
  {
    type noSlip;
  }
  glass2
  {
    type noSlip;
  }
  sun
  {
    type noSlip;
  }
  heatsource1
  {
    type noSlip;
  }
  heatsource2
  {
    type noSlip;
  }
  Table_master
  {
    type noSlip;
  }
  Table_slave
  {
    type noSlip;
  }
  inlet
  {
    type fixedValue;
    value uniform (0.0382683 -0.092388 0);
  }
  outlet
  {
    type zeroGradient;
  }
} 	// ************************************************************************* //

