/*--------------------------------*- C++ -*----------------------------------*\
  =========                 |
  \\      /  F ield         | OpenFOAM: The Open Source CFD Toolbox
   \\    /   O peration     | Website:  https://openfoam.org
    \\  /    A nd           | Version:  6
     \\/     M anipulation  |
\*---------------------------------------------------------------------------*/
FoamFile
{
    version     2.0;
    format      ascii;
    class       volScalarField;
    location    "400";
    object      alphat;
}
// * * * * * * * * * * * * * * * * * * * * * * * * * * * * * * * * * * * * * //

dimensions      [1 -1 -1 0 0 0 0];

internalField   nonuniform List<scalar> 
459
(
0.000998126
0.00106013
0.00105786
0.00109508
0.00112719
0.00115488
0.00117946
0.00120235
0.00122522
0.00124091
0.00124611
0.00123684
0.00121046
0.00116946
0.00112269
0.000413466
0.000475429
0.000462916
0.000404303
0.000354296
0.000320561
0.000296904
0.000277737
0.000264203
0.000261431
0.000266282
0.000275787
0.000287524
0.000297313
0.000304945
0.000315559
0.000369262
0.000584948
0.000491532
0.00143659
0.00272819
0.00240872
0.00275959
0.00302117
0.00329906
0.00357273
0.00380903
0.00395681
0.00408975
0.00417996
0.00418201
0.00402758
0.00359053
0.00260442
0.00111836
0.000822896
0.000612886
0.000825914
0.000871771
0.00091922
0.000986658
0.0010278
0.000941083
0.000881115
0.000866238
0.000887053
0.000927539
0.000972762
0.00101403
0.00105033
0.0010842
0.00108858
0.000969785
0.00145395
0.000624536
0.00181611
0.0037841
0.00273273
0.00366264
0.00391173
0.00406976
0.00417654
0.00425377
0.00431277
0.00438909
0.00446391
0.00451152
0.00451418
0.00446215
0.00427718
0.00352979
0.00116039
0.000880348
0.00117589
0.00123415
0.00138236
0.00158662
0.0016127
0.000536128
0.000489888
0.000458058
0.000435327
0.000418663
0.000406378
0.000397258
0.000390517
0.000388053
0.000495729
0.000601534
0.00141455
0.000754598
0.00219499
0.00522124
0.00259665
0.00390112
0.00414599
0.00414978
0.00409998
0.00406295
0.00407211
0.00412277
0.00418528
0.00422886
0.00425321
0.00431836
0.00449337
0.0046054
0.00410629
0.00108046
0.00160796
0.00177553
0.00198535
0.00224578
0.00245751
0.00225714
0.000609757
0.00059914
0.000617153
0.000647563
0.000678745
0.000701027
0.000705375
0.000688445
0.000665827
0.00068502
0.000753874
0.00164948
0.000802245
0.00258278
0.00716672
0.00285092
0.00367892
0.00414111
0.00407606
0.003939
0.00384982
0.00385951
0.00393201
0.00401493
0.00404937
0.00402079
0.00401731
0.00420316
0.00447966
0.00447767
0.00375896
0.00312954
0.00292069
0.0029178
0.0030195
0.00311146
0.00308965
0.00282015
0.0028722
0.00299726
0.00311935
0.003204
0.0032273
0.00316877
0.0029749
0.00255929
0.00207738
0.00160149
0.00139336
0.00149457
0.000890921
0.000920525
0.00106463
0.00298725
0.00930931
0.00429876
0.00323532
0.00390058
0.00397868
0.00385799
0.00373738
0.00372815
0.00385534
0.00398014
0.00402012
0.0039355
0.00382329
0.00394261
0.0042321
0.00431674
0.00399919
0.00365061
0.0034794
0.0033661
0.00329353
0.00330683
0.0033692
0.00344808
0.00357855
0.00371182
0.00382141
0.00389169
0.0039114
0.00387412
0.00377571
0.00351781
0.00309141
0.00254723
0.00181248
0.00167599
0.00144677
0.00185832
0.00115129
0.00339993
0.0110339
0.00728937
0.00398785
0.00327653
0.00335635
0.00357869
0.00372856
0.00373393
0.00389332
0.00402193
0.0040507
0.00391393
0.00370345
0.00373961
0.0040422
0.00417123
0.00394977
0.0037485
0.00355832
0.00326549
0.00314726
0.0032489
0.00342354
0.0035946
0.00374535
0.00386577
0.00395875
0.00402544
0.00406511
0.00408049
0.00408054
0.00404002
0.00377487
0.00333533
0.00282266
0.00255906
0.00246128
0.00243024
0.00139498
0.00350886
0.0108592
0.00880999
0.0067892
0.005137
0.00418535
0.00391203
0.00400578
0.00402385
0.00407012
0.00412866
0.00410517
0.00388127
0.00355476
0.00354264
0.00392036
0.00411867
0.00391536
0.00366983
0.00323334
0.00287664
0.00292637
0.00319948
0.00344403
0.00360293
0.00370417
0.00378185
0.00385191
0.00391826
0.00398538
0.00406764
0.00419241
0.0043914
0.00457638
0.00441344
0.00443934
0.00480953
0.00508626
0.00544833
0.00191984
0.00344489
0.00419433
0.00476055
0.00493234
0.00479241
0.00449478
0.00426474
0.00415414
0.00412661
0.00416992
0.00421583
0.00412859
0.00375398
0.00327668
0.00327865
0.00384482
0.00413611
0.00389184
0.00335571
0.00273028
0.00249767
0.00280968
0.00322915
0.00345741
0.00352914
0.00354789
0.00357014
0.00360084
0.00363003
0.00365073
0.00366049
0.00365844
0.00364243
0.00361662
0.00357815
0.00350912
0.0033273
0.00302503
0.00274167
0.00177198
0.00258376
0.00414059
0.00459931
0.00465534
0.00462244
0.00459565
0.00455937
0.00449711
0.00436455
0.00402929
0.00336576
0.00273749
0.00288281
0.00381684
0.00422558
0.00363393
0.00285561
0.00229855
0.00225921
0.00283368
0.00337737
0.00349195
0.00340977
0.00334644
0.00333593
0.00335151
0.00337746
0.00340736
0.0034369
0.00346618
0.00349872
0.00351655
0.00347736
0.00335244
0.00309526
0.00272019
0.00229279
0.00141317
0.00271907
0.00481149
0.0051549
0.00505939
0.0049215
0.00474734
0.00453835
0.00422092
0.00378954
0.00319977
0.0024224
0.00184426
0.00217446
0.00323231
0.00339897
0.00303287
0.00254702
0.00213895
0.00207139
0.00271816
0.00315702
0.00316241
0.00295022
0.00280584
0.00275662
0.00276787
0.00283009
0.00293867
0.00307518
0.00321759
0.00338414
0.00353435
0.00362321
0.00363527
0.00351335
0.00333452
0.00293968
0.00143422
0.00237568
0.00249513
0.00259749
0.00274131
0.00256735
0.00232857
0.00213678
0.00195125
0.00176733
0.00160783
0.00146772
0.00132654
0.00112996
0.000816735
0.000832986
0.000881662
0.000870281
0.000836457
0.000788969
0.000726186
0.000739369
0.000775202
0.000800309
0.000792552
0.000790996
0.000802357
0.000826403
0.000861093
0.000905598
0.000960288
0.00102723
0.00110962
0.00120185
0.00130212
0.00140539
0.00153519
0.00155925
0.00150978
0.00140028
0.00128468
)
;

boundaryField
{
    floor
    {
        type            compressible::alphatWallFunction;
        Prt             0.85;
        value           nonuniform List<scalar> 
29
(
0.000159434
5.58044e-05
6.54338e-05
6.35062e-05
5.43643e-05
4.64317e-05
4.09985e-05
3.71437e-05
3.39895e-05
3.17441e-05
3.12818e-05
3.20882e-05
3.36636e-05
3.55988e-05
3.72039e-05
3.84497e-05
4.01758e-05
4.88064e-05
8.20661e-05
6.78932e-05
6.78924e-05
8.79905e-05
0.000107141
0.000114056
0.000159433
5.58037e-05
8.62649e-05
0.0001253
0.000153558
)
;
    }
    ceiling
    {
        type            compressible::alphatWallFunction;
        Prt             0.85;
        value           nonuniform List<scalar> 
43
(
0.0003255
0.000340733
0.000353728
0.000371989
0.000350036
0.000319617
0.000294929
0.000270814
0.000246658
0.000225487
0.000206695
0.000187553
0.00016046
0.000116284
0.000118639
0.000125617
0.000123984
0.000119136
0.000112301
0.000103139
0.00010504
0.000110259
0.00011391
0.000112803
0.000112572
0.000114212
0.00011768
0.000122664
0.000129023
0.000136789
0.000146224
0.00015774
0.000170516
0.000184279
0.000198329
0.000215827
0.000219051
0.000212415
0.000197639
0.000181899
0.000459782
0.00055101
0.000369017
)
;
    }
    sWall
    {
        type            compressible::alphatWallFunction;
        Prt             0.85;
        value           uniform 0.000324271;
    }
    nWall
    {
        type            compressible::alphatWallFunction;
        Prt             0.85;
        value           nonuniform List<scalar> 6(0.000151112 0.000163167 0.000196549 0.000199034 0.000201878 0.00018155);
    }
    sideWalls
    {
        type            empty;
    }
    glass1
    {
        type            compressible::alphatWallFunction;
        Prt             0.85;
        value           nonuniform List<scalar> 9(0.0001382 0.000197683 0.000247664 0.000296532 0.0003457 0.000396217 0.000447068 0.000460516 0.000452918);
    }
    glass2
    {
        type            compressible::alphatWallFunction;
        Prt             0.85;
        value           nonuniform List<scalar> 2(0.000264624 0.000245359);
    }
    sun
    {
        type            compressible::alphatWallFunction;
        Prt             0.85;
        value           nonuniform List<scalar> 
14
(
0.000142041
0.000150727
0.00015041
0.000155608
0.000160075
0.000163915
0.000167317
0.000170476
0.000173627
0.000175783
0.000176496
0.00017522
0.000171587
0.000165923
)
;
    }
    heatsource1
    {
        type            compressible::alphatWallFunction;
        Prt             0.85;
        value           nonuniform List<scalar> 3(0.000126962 0.000131175 0.000151493);
    }
    heatsource2
    {
        type            compressible::alphatWallFunction;
        Prt             0.85;
        value           nonuniform List<scalar> 4(0.000158979 0.000117173 0.000117172 0.000164793);
    }
    Table_master
    {
        type            compressible::alphatWallFunction;
        Prt             0.85;
        value           nonuniform List<scalar> 9(7.48617e-05 6.78003e-05 6.28907e-05 5.93583e-05 5.6754e-05 5.48253e-05 5.33888e-05 5.23238e-05 5.19334e-05);
    }
    Table_slave
    {
        type            compressible::alphatWallFunction;
        Prt             0.85;
        value           nonuniform List<scalar> 9(8.5949e-05 8.43597e-05 8.70532e-05 9.15788e-05 9.61924e-05 9.94738e-05 0.000100114 9.76239e-05 9.42865e-05);
    }
    inlet
    {
        type            fixedValue;
        value           uniform 1.94e-05;
    }
    outlet
    {
        type            zeroGradient;
    }
}


// ************************************************************************* //
