/*--------------------------------*- C++ -*----------------------------------*\
  =========                 |
  \\      /  F ield         | OpenFOAM: The Open Source CFD Toolbox
   \\    /   O peration     | Website:  https://openfoam.org
    \\  /    A nd           | Version:  6
     \\/     M anipulation  |
\*---------------------------------------------------------------------------*/
FoamFile
{
    version     2.0;
    format      ascii;
    class       surfaceScalarField;
    location    "1000";
    object      phi;
}
// * * * * * * * * * * * * * * * * * * * * * * * * * * * * * * * * * * * * * //

dimensions      [1 0 -1 0 0 0 0];

internalField   nonuniform List<scalar> 
852
(
-0.00299559
0.00305309
-0.0040799
0.00108434
-0.00488747
0.000807592
-0.00548681
0.00059937
-0.00583915
0.00035236
-0.00591171
7.25851e-05
-0.00567521
-0.000236484
-0.00512454
-0.000550647
-0.00430983
-0.000814683
-0.00332916
-0.000980652
-0.00230224
-0.00102689
-0.00134913
-0.000953084
-0.000587011
-0.000762104
-0.000130704
-0.000456287
-0.000128732
-0.000832993
0.000836079
-0.000620065
-0.000212918
-4.10355e-05
-0.00057902
0.000486251
-0.000527278
0.000870713
-0.000384455
0.0011306
-0.000259879
0.00127661
-0.000146008
0.00134521
-6.85863e-05
0.00138213
-3.69226e-05
0.00140469
-2.25548e-05
0.00141755
-1.28509e-05
0.00142266
-5.10869e-06
0.00141904
3.62711e-06
0.0013994
1.96386e-05
0.00134289
5.65125e-05
0.00121418
0.00012872
0.00100251
0.000211663
0.000736264
0.000266249
0.000740326
-0.00215076
0.00535884
-0.00320566
0.00213926
-0.00404264
0.00164459
-0.00464431
0.00120106
-0.0050022
0.000710274
-0.00508925
0.00015966
-0.00487535
-0.000450355
-0.00436754
-0.00105844
-0.00363295
-0.00154925
-0.00277582
-0.00183775
-0.00190476
-0.00189793
-0.00111171
-0.00174612
-0.000464682
-0.00140911
-7.30138e-06
-0.000913649
0.000279216
-0.000415233
0.000287171
-7.98986e-06
0.000287136
0.00013191
0.000713299
0.000519215
-0.000600212
0.000822672
-0.000882467
0.00107103
-0.00077563
0.00127227
-0.000585687
0.00140814
-0.000395739
0.00143525
-0.000173118
0.0014413
-7.46248e-05
0.00144844
-4.40626e-05
0.00145439
-2.84977e-05
0.00145825
-1.67077e-05
0.00146035
-7.20734e-06
0.0014602
3.7815e-06
0.00145473
2.5116e-05
0.00141664
9.45962e-05
0.00125063
0.000294738
0.000967854
0.000494437
0.000621967
0.000612136
0.00137275
-0.00151293
0.00710914
-0.00242157
0.00304793
-0.00317372
0.00239677
-0.00370124
0.0017286
-0.00402164
0.00103071
-0.00409605
0.000234095
-0.00386957
-0.000676811
-0.00336623
-0.00156176
-0.00268405
-0.0022314
-0.00193436
-0.00258742
-0.00120773
-0.00262453
-0.000563104
-0.00239073
-3.05607e-05
-0.00194163
0.000388008
-0.0013322
0.000662124
-0.000689333
0.000687992
-3.38418e-05
0.000975144
0.0014663
-0.000742551
0.0016822
-0.000816103
0.00163015
-0.000830407
0.00161716
-0.00076263
0.00164699
-0.000615512
0.0017103
-0.000459043
0.00153734
0.00146287
0.00141897
0.00139062
0.00137407
0.00136702
0.00137096
0.00139623
0.00149098
0.00121203
0.000573691
0.000887426
0.000819041
0.000505538
0.000994022
0.00189412
-0.0010566
0.00847355
-0.00177242
0.00376377
-0.00228491
0.00290929
-0.00264522
0.00208893
-0.00286294
0.00124845
-0.00285969
0.00023087
-0.00255768
-0.000978803
-0.0020376
-0.00208181
-0.00142724
-0.00284173
-0.000823131
-0.0031915
-0.000280782
-0.00316686
0.000178885
-0.00285037
0.00055563
-0.00231836
0.000888408
-0.00166496
0.00118692
-0.000987835
0.00151775
-0.000364649
0.00239355
9.93534e-05
0.00254631
-0.000143865
0.00223887
-0.000435093
0.00207944
-0.000656663
0.00192045
-0.000671402
0.00177859
-0.000620761
0.00168213
-0.000519052
0.00159114
-0.000368053
0.00174863
-0.000157646
0.00183769
-8.92094e-05
0.00190515
-6.76185e-05
0.00195508
-5.00918e-05
0.00197312
-1.81999e-05
0.00193725
3.57142e-05
0.00182155
0.000115539
0.00159211
0.000229278
0.00119294
0.000399001
0.00102823
0.000738401
0.000718387
0.00112888
0.000269485
0.00144292
0.00218429
-0.000733622
0.00957506
-0.00126726
0.00429743
-0.00139852
0.00304058
-0.00149202
0.00218245
-0.00153687
0.00129332
-0.00133376
2.77806e-05
-0.000884299
-0.00142824
-0.000371497
-0.00259458
0.000100409
-0.00331361
0.000484431
-0.00357549
0.000772206
-0.00345461
0.000982131
-0.00306028
0.00114857
-0.00248478
0.00130404
-0.00182043
0.00147548
-0.00115926
0.00170394
-0.000593093
0.00202523
-0.000221934
0.00208198
-0.000200601
0.00199113
-0.000344229
0.00179924
-0.000464764
0.00161442
-0.000486578
0.00144918
-0.000455522
0.00131976
-0.000389633
0.00124329
-0.000291588
0.00126928
-0.000183642
0.0013107
-0.000130632
0.00135787
-0.000114801
0.00140849
-0.000100723
0.001452
-6.17239e-05
0.00146731
2.03943e-05
0.00143205
0.000150786
0.00133327
0.00032804
0.00117479
0.00055747
0.00102752
0.000885658
0.000866335
0.00129006
0.000508251
0.001801
0.000411499
0.00228104
-0.00099166
0.00140294
-0.00144264
0.000450758
-0.00139409
-0.000628464
0.0106222
-0.000977571
0.00464656
-0.000569602
0.00263263
-0.000224466
0.00183734
0.00011255
0.000956325
0.000618684
-0.000478339
0.00114573
-0.00195526
0.00154435
-0.00299317
0.00177492
-0.00354415
0.00186135
-0.0036619
0.00184309
-0.00343633
0.00175581
-0.00297298
0.00164406
-0.00237302
0.00154665
-0.00172301
0.001491
-0.00110361
0.0014942
-0.000596289
0.00154158
-0.000269307
0.00151316
-0.000172172
0.00138685
-0.00021792
0.00120202
-0.000279938
0.00102156
-0.00030611
0.000866003
-0.000299974
0.000747227
-0.000270863
0.000680349
-0.00022472
0.000675762
-0.000179067
0.000708879
-0.000163761
0.000764468
-0.000170405
0.000836522
-0.000172794
0.000919068
-0.000144286
0.000998465
-5.90199e-05
0.00105466
9.45705e-05
0.00108215
0.000300535
0.00108994
0.000549673
0.00112041
0.000855173
0.00121981
0.00119065
0.00140272
0.00161808
0.00186306
0.00182069
0.00214581
0.00112018
0.00178006
0.000816503
0.000444107
-0.000687015
0.0117737
-0.000541159
0.00450073
0.000594017
0.00149748
0.00137603
0.00105535
0.00214464
0.000187726
0.00291267
-0.00124635
0.00339432
-0.00243689
0.00356399
-0.00316281
0.00346867
-0.00344879
0.0031806
-0.0033738
0.00277576
-0.00303147
0.00232153
-0.00251874
0.00187885
-0.00193034
0.00149115
-0.00133531
0.00118479
-0.000797252
0.000975039
-0.000386545
0.000844914
-0.000139185
0.000731951
-5.92129e-05
0.000594881
-8.0853e-05
0.00044156
-0.000126623
0.000294631
-0.00015919
0.000168847
-0.000174201
7.47258e-05
-0.000176755
2.32496e-05
-0.000173258
1.89551e-05
-0.000174789
4.94015e-05
-0.000194226
0.000103143
-0.000224166
0.000177347
-0.000247017
0.000275573
-0.000242532
0.00040305
-0.000186517
0.000547134
-4.95331e-05
0.000693638
0.000154012
0.000852327
0.000390967
0.00105814
0.000649344
0.00135515
0.000893621
0.00181185
0.00116137
0.00249496
0.00113757
0.00305159
0.000563537
0.00307161
0.00079648
0.00357687
0.0026863
0.00960671
0.00341435
0.00377271
0.00369211
0.00121973
0.00444452
0.000302955
0.00536752
-0.000735263
0.00589123
-0.00177002
0.00593344
-0.00247906
0.0055743
-0.00280362
0.00492991
-0.00280437
0.00411878
-0.00256264
0.00324386
-0.00215654
0.00238537
-0.00166025
0.00161383
-0.00115881
0.000967726
-0.000689215
0.000471093
-0.000300632
0.000141035
-5.64996e-05
-4.98391e-05
5.16771e-05
-0.000167276
5.82129e-05
-0.000268499
2.03583e-05
-0.000372345
-2.27905e-05
-0.000473419
-5.81297e-05
-0.00056218
-8.54573e-05
-0.000630636
-0.000108317
-0.000672458
-0.000131455
-0.000687163
-0.000160105
-0.000683894
-0.000197516
-0.000670201
-0.00023788
-0.000646635
-0.000270605
-0.000605338
-0.000283852
-0.00052728
-0.000264596
-0.00038103
-0.000195804
-0.000176291
-5.07468e-05
6.56831e-05
0.000148974
0.000354633
0.000360376
0.000689592
0.000558647
0.00110278
0.000748167
0.00151502
0.000725324
0.00164285
0.000435696
0.000915718
0.0015236
0.00475225
0.010178
0.0139443
0.012381
0.00278305
0.0115424
0.00114155
0.0107284
7.88045e-05
0.0096346
-0.00067615
0.00829357
-0.00113795
0.00683236
-0.00134235
0.00535228
-0.00132425
0.00393399
-0.00114434
0.00263753
-0.000860091
0.00149119
-0.00051392
0.000536688
-0.000204322
-0.000188591
3.60377e-05
-0.000643044
0.0001538
-0.000869268
0.000169707
-0.000972384
0.000154777
-0.00103511
0.000120927
-0.00109315
7.83761e-05
-0.00115448
3.85198e-05
-0.001219
6.37158e-06
-0.00128376
-2.07237e-05
-0.00134443
-4.76659e-05
-0.00139868
-7.72332e-05
-0.00144964
-0.000109164
-0.00150645
-0.000140733
-0.00157827
-0.000166079
-0.00167362
-0.000175282
-0.00180182
-0.000155673
-0.00197366
-9.27699e-05
-0.00219603
2.65436e-05
-0.00245956
0.000212764
-0.00279105
0.000480445
-0.00327385
0.000843161
-0.00400526
0.00129004
-0.00503843
0.00178132
-0.00647899
0.00216587
-0.0081866
0.00214329
-0.00759113
0.000928108
-0.00255143
0.00502944
0.00442192
0.00377533
0.00239583
0.00396292
-0.00010857
0.00390863
-0.000621769
0.00337628
-0.000605578
0.00258174
-0.00054783
0.00166829
-0.00041084
0.000722084
-0.000198169
-0.000179185
4.11225e-05
-0.00090235
0.00020921
-0.00136214
0.000255442
-0.00159354
0.00026741
-0.00168997
0.000250216
-0.00173682
0.00021653
-0.00176245
0.000180389
-0.00178641
0.000144866
-0.00181863
0.000110573
-0.00185966
7.95195e-05
-0.00190606
5.27493e-05
-0.0019558
2.89924e-05
-0.00201033
6.83832e-06
-0.0020718
-1.57922e-05
-0.00214264
-3.8345e-05
-0.0022266
-5.67978e-05
-0.00232486
-6.78411e-05
-0.00243651
-6.36572e-05
-0.00255715
-3.50491e-05
-0.00267856
2.86159e-05
-0.00278975
0.000137721
-0.00288752
0.000310508
-0.00297896
0.00057187
-0.00307103
0.000935208
-0.00315997
0.00137896
-0.00318651
0.00180786
-0.00306821
0.00204754
-0.00258462
0.00165969
-0.00132652
-0.000330008
-0.00380381
-0.000391855
0.00487427
0.000748249
0.00125585
0.000382979
0.00025677
-0.00019853
-4.03017e-05
-0.000794818
-9.34453e-06
-0.00139192
4.92138e-05
-0.00191763
0.000114826
-0.00229683
0.000180988
-0.00248966
0.000233924
-0.00253899
0.000258509
-0.00252986
0.000246287
-0.00248169
0.000219209
-0.00242123
0.000189737
-0.00236862
0.000163889
-0.00233129
0.000143036
-0.00231158
0.000125131
-0.00230892
0.00010788
-0.00231964
9.02121e-05
-0.00233887
7.19598e-05
-0.00236317
5.32606e-05
-0.00239072
3.4358e-05
-0.00242286
1.63275e-05
-0.00246073
-5.03635e-07
-0.00250399
-1.35597e-05
-0.00255101
-2.08521e-05
-0.00259562
-1.90631e-05
-0.00262693
-3.76742e-06
-0.00263226
3.39289e-05
-0.00259732
0.000102762
-0.00249763
0.000210791
-0.00230004
0.000374261
-0.00197972
0.000614872
-0.00152757
0.000926794
-0.000916865
0.00119713
3.01429e-05
0.00110052
0.00121828
0.00047153
0.0015244
-0.000636149
-0.00219803
0.000384606
-0.0108569
-0.00593808
-0.00466039
-0.00439155
-0.00442462
-0.00442945
-0.00437756
-0.00426148
-0.00408036
-0.00384727
-0.00359043
-0.00334654
-0.00313034
-0.00294413
-0.0027842
-0.0026455
-0.00252502
-0.00242205
-0.00233693
-0.00227017
-0.00222214
-0.00219296
-0.00218171
-0.00218715
-0.00220547
-0.00223088
-0.0022543
-0.00226221
-0.00223219
-0.00213311
-0.00192579
-0.00155479
-0.00094301
-1.91704e-05
0.00117506
0.00227259
0.00274092
0.00210129
)
;

boundaryField
{
    floor
    {
        type            calculated;
        value           nonuniform List<scalar> 
29
(
0
0
0
0
0
0
0
0
0
0
0
0
0
0
0
0
0
0
0
0
-4.063e-06
-1.04564e-05
-1.58366e-05
-2.0686e-05
-1.95856e-06
-3.07707e-06
-9.12098e-06
-1.04372e-05
-8.88016e-06
)
;
    }
    ceiling
    {
        type            calculated;
        value           nonuniform List<scalar> 
43
(
-2.2746e-05
-4.38881e-05
-4.45541e-05
-2.18816e-05
-1.21203e-05
-7.27751e-06
-4.56003e-06
-2.70587e-06
-1.29515e-06
-1.58776e-07
7.9968e-07
1.63605e-06
2.36868e-06
2.98582e-06
3.49797e-06
3.93003e-06
4.30165e-06
4.6203e-06
4.87971e-06
5.06607e-06
5.16999e-06
5.19392e-06
5.14959e-06
5.05068e-06
4.90898e-06
4.73289e-06
4.53888e-06
4.33202e-06
4.11483e-06
3.88693e-06
3.66076e-06
3.44522e-06
3.24608e-06
3.07092e-06
2.93428e-06
2.87799e-06
2.9744e-06
3.18252e-06
3.45734e-06
4.52386e-06
9.32981e-06
6.43816e-06
-6.04151e-05
)
;
    }
    sWall
    {
        type            calculated;
        value           uniform -0.0002298;
    }
    nWall
    {
        type            calculated;
        value           nonuniform List<scalar> 6(-4.87574e-05 -5.81523e-05 -6.117e-05 -7.41554e-05 -8.14043e-05 -0.000101282);
    }
    sideWalls
    {
        type            empty;
        value           nonuniform 0();
    }
    glass1
    {
        type            calculated;
        value           nonuniform List<scalar> 9(-5.74798e-05 -0.000154964 -0.000237342 -0.000307784 -0.000367861 -0.00041867 -0.000464395 -0.000519333 -0.000580625);
    }
    glass2
    {
        type            calculated;
        value           nonuniform List<scalar> 2(-0.000259668 -0.000287471);
    }
    sun
    {
        type            calculated;
        value           uniform 0;
    }
    heatsource1
    {
        type            calculated;
        value           nonuniform List<scalar> 3(2.04325e-07 2.04221e-07 2.04242e-07);
    }
    heatsource2
    {
        type            calculated;
        value           nonuniform List<scalar> 4(5.1237e-08 5.13062e-08 0 0);
    }
    Table_master
    {
        type            calculated;
        value           nonuniform List<scalar> 9(-1.53232e-07 -1.53341e-07 -1.53379e-07 -1.53405e-07 -1.53423e-07 -1.53436e-07 -1.53442e-07 -1.53439e-07 -1.53411e-07);
    }
    Table_slave
    {
        type            calculated;
        value           nonuniform List<scalar> 9(1.53079e-07 1.53102e-07 1.53078e-07 1.53058e-07 1.5305e-07 1.53051e-07 1.53067e-07 1.53111e-07 1.53197e-07);
    }
    inlet
    {
        type            calculated;
        value           uniform -0.00666824;
    }
    outlet
    {
        type            calculated;
        value           nonuniform List<scalar> 2(-0.000132096 0.0112854);
    }
}


// ************************************************************************* //
