/*--------------------------------*- C++ -*----------------------------------*\
  =========                 |
  \\      /  F ield         | OpenFOAM: The Open Source CFD Toolbox
   \\    /   O peration     | Website:  https://openfoam.org
    \\  /    A nd           | Version:  6
     \\/     M anipulation  |
\*---------------------------------------------------------------------------*/
FoamFile
{
    version     2.0;
    format      ascii;
    class       volScalarField;
    location    "300";
    object      nut;
}
// * * * * * * * * * * * * * * * * * * * * * * * * * * * * * * * * * * * * * //

dimensions      [0 2 -1 0 0 0 0];

internalField   nonuniform List<scalar> 
459
(
0.000868605
0.000925243
0.000929608
0.000965856
0.000997676
0.00102591
0.00105193
0.00107725
0.00110167
0.00111964
0.00112746
0.00112043
0.00109443
0.00104955
0.000993751
0.000329226
0.00036664
0.0003897
0.000373829
0.000360172
0.00036021
0.000365094
0.000365197
0.000358961
0.000344889
0.000322333
0.000293991
0.000263606
0.000239602
0.000235952
0.000264476
0.000388336
0.000616206
0.00049091
0.00123871
0.0023222
0.00205009
0.00234904
0.00258645
0.00284083
0.00309062
0.00330134
0.00345677
0.0036067
0.0037281
0.00378777
0.00374209
0.00350218
0.00275477
0.00100791
0.000535159
0.000374228
0.000776815
0.000868535
0.00103737
0.00120497
0.00132843
0.00136393
0.00139318
0.00140137
0.00136136
0.00125201
0.00108312
0.000872087
0.000652728
0.000498937
0.000530864
0.000812464
0.00162457
0.000645991
0.00156062
0.00318564
0.00229394
0.00303264
0.00323291
0.00336478
0.00345773
0.00353193
0.00360549
0.00370108
0.00379649
0.00387228
0.00393106
0.00400343
0.00405272
0.0036516
0.000856742
0.000722526
0.000858529
0.000887087
0.000910428
0.000956807
0.00100361
0.000523307
0.000495972
0.00047388
0.00045363
0.000433522
0.000411616
0.000387343
0.000361491
0.000337536
0.000454886
0.000820895
0.00219599
0.000749766
0.00188514
0.00438897
0.00214646
0.00317552
0.00333786
0.00332768
0.00328906
0.00328061
0.00332538
0.00340846
0.00349047
0.00354164
0.00358141
0.00371386
0.0040228
0.00423016
0.00355411
0.00105523
0.00122447
0.00132195
0.00138573
0.00144035
0.001519
0.00155903
0.000600826
0.000588982
0.000598357
0.000621957
0.000652418
0.000680401
0.000693722
0.000678803
0.000654534
0.00073554
0.00100788
0.00203418
0.000839399
0.00222066
0.00605193
0.00233167
0.00296575
0.0032716
0.00318972
0.00308095
0.00305011
0.00312068
0.0032438
0.00334466
0.00336991
0.00333839
0.00340272
0.00369668
0.0039606
0.00383696
0.00323595
0.00289574
0.00276963
0.00274161
0.00281715
0.00299926
0.00321445
0.00321313
0.00333284
0.00347188
0.00358923
0.00366995
0.00369795
0.00364759
0.00348559
0.00304171
0.00252899
0.00202645
0.00172947
0.00204021
0.00105874
0.000967605
0.000927783
0.00257333
0.00790544
0.00354943
0.00258327
0.00306377
0.00306896
0.00294387
0.00289396
0.00301685
0.00320631
0.00333688
0.00334114
0.00324109
0.00323292
0.00346809
0.0037209
0.00375067
0.00364602
0.00363822
0.00372515
0.00387388
0.00408505
0.00431536
0.00450401
0.00459965
0.00464675
0.00466235
0.00467065
0.00468337
0.00468176
0.00463451
0.00451562
0.00427163
0.00385317
0.00335733
0.00283551
0.00269042
0.0024979
0.002608
0.00120016
0.00293779
0.00941451
0.00613974
0.00323411
0.0025871
0.00261405
0.00279261
0.00287494
0.00308248
0.00328095
0.00339946
0.0033662
0.00320168
0.00313146
0.00336863
0.00367193
0.00378482
0.00390034
0.00417267
0.00446768
0.00469556
0.00485747
0.0049573
0.0049962
0.00497454
0.0049255
0.00489344
0.00490784
0.00495938
0.00500998
0.0050316
0.00502511
0.0050004
0.0048884
0.00462767
0.0043728
0.00418879
0.00385991
0.00352068
0.00142254
0.00303767
0.00933121
0.00752486
0.00572894
0.00429061
0.00348374
0.00330496
0.00334833
0.00339707
0.00347846
0.00352519
0.0034044
0.00313786
0.0030237
0.00334642
0.00377443
0.00399194
0.00432062
0.0046454
0.00483892
0.00491225
0.00491117
0.00486453
0.00478858
0.00471047
0.00466523
0.00468448
0.0047588
0.00485315
0.0049361
0.00500181
0.00507868
0.00522289
0.00548174
0.00577742
0.00593867
0.00592075
0.00514515
0.00483959
0.00153605
0.00298909
0.00364411
0.00411587
0.00423946
0.00409475
0.00383886
0.00367429
0.00358882
0.00359792
0.00365563
0.00364473
0.00337426
0.00295928
0.00284446
0.00338819
0.0040161
0.00434869
0.00452679
0.00462204
0.00461652
0.00456857
0.00449856
0.00441099
0.00432502
0.004274
0.0042839
0.00434602
0.00442864
0.00449667
0.00451906
0.0044761
0.00435937
0.00417656
0.00395292
0.00369349
0.0034029
0.00299761
0.00256849
0.00229005
0.00146474
0.00219146
0.00351442
0.00393511
0.00401174
0.00402327
0.00403572
0.00401502
0.0039388
0.00369329
0.00310207
0.00252741
0.00253738
0.00351972
0.00438994
0.0044484
0.00431119
0.00415482
0.00405586
0.00400317
0.0039767
0.00396573
0.00397031
0.00399651
0.00404877
0.00412443
0.00421491
0.0043055
0.00438534
0.00444967
0.00448124
0.00445838
0.00434511
0.00412945
0.00379915
0.00335653
0.00286685
0.00237615
0.0013162
0.00231524
0.00410329
0.00443493
0.00436821
0.00425301
0.00409835
0.00391135
0.00355889
0.00302987
0.0022604
0.00173266
0.00200527
0.00322633
0.00366013
0.00369266
0.00361929
0.00355036
0.00351288
0.00350156
0.00350805
0.00352685
0.00355461
0.00358853
0.0036256
0.0036641
0.00370705
0.00376455
0.0038512
0.00396968
0.0041187
0.00427174
0.00439126
0.0044428
0.00437631
0.00412979
0.00379883
0.00307676
0.00134806
0.00203714
0.00213662
0.0022223
0.00235432
0.00220528
0.00199308
0.00181655
0.00164529
0.00147346
0.00133964
0.00121402
0.00102326
0.000734698
0.000740529
0.000777436
0.000782986
0.000770536
0.000760376
0.000756757
0.000757629
0.000761609
0.000767943
0.000776266
0.000786391
0.000798162
0.000811494
0.000826716
0.000845352
0.000871145
0.000910128
0.000969183
0.00105097
0.00115333
0.00127469
0.00139043
0.00147152
0.00149908
0.00144237
0.0013382
0.00121787
)
;

boundaryField
{
    floor
    {
        type            nutkWallFunction;
        Cmu             0.09;
        kappa           0.41;
        E               9.8;
        value           nonuniform List<scalar> 
29
(
0.000119985
3.73612e-05
4.23649e-05
4.54153e-05
4.33203e-05
4.15085e-05
4.1516e-05
4.21667e-05
4.218e-05
4.13482e-05
3.94658e-05
3.64291e-05
3.25746e-05
2.8389e-05
2.5041e-05
2.45338e-05
2.85255e-05
4.52472e-05
7.43649e-05
5.85541e-05
5.85541e-05
7.80676e-05
9.08085e-05
0.000101632
0.000119986
3.73612e-05
4.33732e-05
8.74871e-05
0.000127202
)
;
    }
    ceiling
    {
        type            nutkWallFunction;
        Cmu             0.09;
        kappa           0.41;
        E               9.8;
        value           nonuniform List<scalar> 
43
(
0.000237305
0.000248081
0.000257322
0.000271571
0.000255596
0.000232619
0.000213294
0.000194349
0.000175121
0.000159976
0.000145606
0.000123465
8.89715e-05
8.96777e-05
9.41605e-05
9.48341e-05
9.33256e-05
9.20919e-05
9.16517e-05
9.17572e-05
9.224e-05
9.30083e-05
9.40171e-05
9.52431e-05
9.66674e-05
9.82791e-05
0.000100117
0.000102362
0.000105456
0.000110109
0.000117108
0.00012672
0.00013863
0.000152603
0.000165779
0.000174943
0.000178047
0.000171658
0.000159849
0.000146075
0.000338939
0.000406668
0.000267233
)
;
    }
    sWall
    {
        type            nutkWallFunction;
        Cmu             0.09;
        kappa           0.41;
        E               9.8;
        value           uniform 0.00023737;
    }
    nWall
    {
        type            nutkWallFunction;
        Cmu             0.09;
        kappa           0.41;
        E               9.8;
        value           nonuniform List<scalar> 6(0.000112182 0.000144041 0.000169408 0.000157355 0.000160987 0.000146086);
    }
    sideWalls
    {
        type            empty;
    }
    glass1
    {
        type            nutkWallFunction;
        Cmu             0.09;
        kappa           0.41;
        E               9.8;
        value           nonuniform List<scalar> 9(0.000105168 0.000148612 0.000185179 0.0002212 0.000257738 0.000295512 0.00033398 0.000344443 0.000339379);
    }
    glass2
    {
        type            nutkWallFunction;
        Cmu             0.09;
        kappa           0.41;
        E               9.8;
        value           nonuniform List<scalar> 2(0.000182229 0.000174217);
    }
    sun
    {
        type            nutkWallFunction;
        Cmu             0.09;
        kappa           0.41;
        E               9.8;
        value           nonuniform List<scalar> 
14
(
0.000105137
0.000111883
0.000112401
0.000116691
0.000120443
0.00012376
0.000126808
0.000129765
0.000132609
0.000134698
0.000135606
0.00013479
0.000131769
0.000126532
)
;
    }
    heatsource1
    {
        type            nutkWallFunction;
        Cmu             0.09;
        kappa           0.41;
        E               9.8;
        value           nonuniform List<scalar> 3(0.000127609 0.000116918 0.000112176);
    }
    heatsource2
    {
        type            nutkWallFunction;
        Cmu             0.09;
        kappa           0.41;
        E               9.8;
        value           nonuniform List<scalar> 4(0.000121649 6.42086e-05 6.42086e-05 0.000103724);
    }
    Table_master
    {
        type            nutkWallFunction;
        Cmu             0.09;
        kappa           0.41;
        E               9.8;
        value           nonuniform List<scalar> 9(6.26997e-05 5.92155e-05 5.63821e-05 5.37705e-05 5.11625e-05 4.83039e-05 4.51142e-05 4.16896e-05 3.84893e-05);
    }
    Table_slave
    {
        type            nutkWallFunction;
        Cmu             0.09;
        kappa           0.41;
        E               9.8;
        value           nonuniform List<scalar> 9(7.24563e-05 7.09755e-05 7.21458e-05 7.50839e-05 7.88566e-05 8.23033e-05 8.39365e-05 8.21002e-05 7.91085e-05);
    }
    inlet
    {
        type            calculated;
        value           uniform 0.000100623;
    }
    outlet
    {
        type            calculated;
        value           nonuniform List<scalar> 2(0.00203714 0.00213662);
    }
}


// ************************************************************************* //
