/*--------------------------------*- C++ -*----------------------------------*\
  =========                 |
  \\      /  F ield         | OpenFOAM: The Open Source CFD Toolbox
   \\    /   O peration     | Website:  https://openfoam.org
    \\  /    A nd           | Version:  6
     \\/     M anipulation  |
\*---------------------------------------------------------------------------*/
FoamFile
{
    version     2.0;
    format      ascii;
    class       volScalarField;
    location    "800";
    object      epsilon;
}
// * * * * * * * * * * * * * * * * * * * * * * * * * * * * * * * * * * * * * //

dimensions      [0 2 -3 0 0 0 0];

internalField   nonuniform List<scalar> 
459
(
0.000625753
0.000839821
0.000921719
0.00107857
0.00124905
0.00144458
0.00163258
0.00176259
0.00179588
0.00171447
0.00151893
0.00109192
0.000779002
0.000498755
0.000308675
5.51751e-05
8.91164e-05
0.000143902
0.000184383
0.000190737
0.000177809
0.00014674
0.000117565
9.48285e-05
7.75928e-05
6.44326e-05
5.42548e-05
4.62363e-05
3.98367e-05
3.45572e-05
2.99731e-05
2.56784e-05
2.17944e-05
1.61222e-05
0.00142615
0.00189758
0.000779087
0.000779921
0.000855897
0.00098964
0.00115202
0.00127894
0.00131763
0.00125118
0.00109751
0.000853731
0.000655976
0.000491948
0.000362166
0.000576721
0.000293777
5.21652e-05
8.69766e-05
0.000136585
0.00015383
0.000152749
0.000145484
0.000149042
0.000120816
9.42262e-05
7.34727e-05
5.78536e-05
4.61729e-05
3.73542e-05
3.0644e-05
2.55517e-05
2.23291e-05
2.07851e-05
3.05659e-05
2.48032e-05
0.00244147
0.00418646
0.000907573
0.000765046
0.000870661
0.00106835
0.00128659
0.00142964
0.00145988
0.00138064
0.00120832
0.000987315
0.000784976
0.000611498
0.000463688
0.000426118
0.000547024
0.00012502
0.000167726
0.000183413
0.000184478
0.000175047
0.000172801
0.000375387
0.000245806
0.00016622
0.000116681
8.49435e-05
6.39524e-05
4.96518e-05
3.98826e-05
3.3523e-05
2.51614e-05
2.10212e-05
4.39608e-05
3.21476e-05
0.00376061
0.00828162
0.00132747
0.000819958
0.000954581
0.00127012
0.00154484
0.00167104
0.00167062
0.00156142
0.00136531
0.00112642
0.000891884
0.000696267
0.000544307
0.000456708
0.000455334
0.000785536
0.000510367
0.000364924
0.000291002
0.000248221
0.000217729
0.000210228
0.000550899
0.000407151
0.000315953
0.000252918
0.000205838
0.0001677
0.000134987
0.000105822
7.85804e-05
4.24389e-05
2.64123e-05
6.33258e-05
3.90588e-05
0.00550741
0.0144835
0.00243932
0.00102781
0.00118385
0.00174611
0.00200447
0.0020527
0.00198975
0.00183076
0.00158185
0.00127447
0.000971214
0.000725183
0.000551928
0.000447008
0.00041815
0.00045605
0.00040882
0.000363268
0.000326443
0.000290496
0.000252894
0.00021995
0.00021508
0.000196895
0.000177692
0.000158233
0.00013827
0.0001179
9.77707e-05
7.87619e-05
6.13251e-05
4.25146e-05
2.93371e-05
4.97146e-05
3.9004e-05
6.34891e-05
0.000112919
0.000160958
0.00787381
0.0214964
0.00530277
0.0019186
0.00224295
0.00270795
0.00273413
0.00262402
0.00245682
0.00220937
0.0018632
0.00144804
0.00104657
0.000731798
0.000527118
0.000421769
0.00039668
0.000411072
0.000412837
0.000398291
0.000366915
0.000323137
0.00027413
0.000228471
0.000196089
0.000174388
0.000157309
0.000140462
0.000122555
0.00010407
8.59393e-05
6.92734e-05
5.49071e-05
4.23648e-05
3.46194e-05
4.10992e-05
4.17929e-05
5.06257e-05
0.000210629
0.000183823
0.0104639
0.0257807
0.0107917
0.00553204
0.00492479
0.00433391
0.00382251
0.00342543
0.00308263
0.00269441
0.00220475
0.0016391
0.00111231
0.000723039
0.00049614
0.000405517
0.000399561
0.000422755
0.000431702
0.000412426
0.000370612
0.000317314
0.000262577
0.000214964
0.000181045
0.000160498
0.000146356
0.000133571
0.000120352
0.000107231
9.4391e-05
8.23302e-05
7.16809e-05
6.27467e-05
5.99581e-05
6.63238e-05
8.31243e-05
0.00013115
0.000299283
0.000285085
0.0110002
0.0268031
0.0156562
0.0109544
0.0080582
0.00620791
0.00507708
0.00437223
0.00383495
0.00326051
0.00256579
0.00178207
0.00109914
0.000648083
0.000444605
0.000394798
0.000401204
0.000416326
0.000409484
0.000376543
0.000326888
0.000272878
0.000224129
0.000186369
0.000161611
0.000147867
0.000140726
0.000137424
0.000137674
0.000141609
0.000148625
0.000158236
0.00017204
0.000195628
0.000238573
0.000356131
0.000643187
0.00122645
0.00372694
0.00103805
0.0101721
0.0167281
0.0133095
0.01035
0.00812784
0.00673661
0.00587699
0.00526023
0.00461648
0.00376433
0.0027333
0.00158472
0.000812551
0.000512917
0.000405378
0.00037612
0.0003726
0.000366399
0.000343465
0.000305547
0.000261298
0.000218887
0.000183562
0.000157842
0.000141746
0.000133521
0.000131528
0.000135634
0.00014712
0.000168151
0.000201628
0.000251413
0.000324025
0.000430166
0.000579695
0.000777897
0.00100686
0.00121586
0.00138237
0.000864289
0.003833
0.00529607
0.0066123
0.00664222
0.00624224
0.00547116
0.00419585
0.0025339
0.00145098
0.000836565
0.000540379
0.000414094
0.000363593
0.000342849
0.00032867
0.000308963
0.000280569
0.000247372
0.000215042
0.000187375
0.000165685
0.000149646
0.000138245
0.000130694
0.000127138
0.000128598
0.000136645
0.000153391
0.000181735
0.000225736
0.000290876
0.000383437
0.000506569
0.000651637
0.000788408
0.000876161
0.000839576
0.000536892
0.00269195
0.00762184
0.00768874
0.00584056
0.0042819
0.00295281
0.00189593
0.00118284
0.000762667
0.000538731
0.000430833
0.000381269
0.000358275
0.000345945
0.000336338
0.000325797
0.000313532
0.000300516
0.000287941
0.000276447
0.000266096
0.000256592
0.000247525
0.000238621
0.000230009
0.000222514
0.000217841
0.000218598
0.000228217
0.000250897
0.000291387
0.000353703
0.000437579
0.000537726
0.000606278
0.000689453
0.000776553
0.000581755
0.00196741
0.00230805
0.00257291
0.00316009
0.00258501
0.00221294
0.001865
0.00149328
0.00115569
0.000897481
0.000723401
0.000617081
0.000553191
0.000511893
0.00048054
0.000451094
0.00041897
0.000383083
0.000345516
0.000309676
0.000278211
0.000252108
0.000231029
0.000214109
0.000200588
0.000190142
0.000182963
0.000179652
0.000181073
0.000188249
0.000202362
0.000224906
0.000257885
0.000303617
0.000362879
0.000446687
0.000463441
0.000414773
0.00035322
0.00029785
)
;

boundaryField
{
    floor
    {
        Cmu             0.09;
        kappa           0.41;
        E               9.8;
        type            epsilonWallFunction;
        value           nonuniform List<scalar> 
29
(
0.000308675
5.51751e-05
8.91164e-05
0.000143902
0.000184383
0.000190737
0.000177809
0.00014674
0.000117565
9.48285e-05
7.75928e-05
6.44326e-05
5.42548e-05
4.62363e-05
3.98367e-05
3.45572e-05
2.99731e-05
2.56784e-05
2.17944e-05
1.61222e-05
1.61222e-05
2.48032e-05
3.21476e-05
3.90588e-05
0.000308675
5.51751e-05
5.21652e-05
0.00012502
0.000785536
)
;
    }
    ceiling
    {
        Cmu             0.09;
        kappa           0.41;
        E               9.8;
        type            epsilonWallFunction;
        value           nonuniform List<scalar> 
43
(
0.00196741
0.00230805
0.00257291
0.00316009
0.00258501
0.00221294
0.001865
0.00149328
0.00115569
0.000897481
0.000723401
0.000617081
0.000553191
0.000511893
0.00048054
0.000451094
0.00041897
0.000383083
0.000345516
0.000309676
0.000278211
0.000252108
0.000231029
0.000214109
0.000200588
0.000190142
0.000182963
0.000179652
0.000181073
0.000188249
0.000202362
0.000224906
0.000257885
0.000303617
0.000362879
0.000446687
0.000463441
0.000414773
0.00035322
0.00029785
0.0101721
0.0167281
0.00269195
)
;
    }
    sWall
    {
        Cmu             0.09;
        kappa           0.41;
        E               9.8;
        type            epsilonWallFunction;
        value           uniform 0.00196741;
    }
    nWall
    {
        Cmu             0.09;
        kappa           0.41;
        E               9.8;
        type            epsilonWallFunction;
        value           nonuniform List<scalar> 6(0.000160958 0.000183823 0.000285085 0.000536892 0.000581755 0.00029785);
    }
    sideWalls
    {
        type            empty;
    }
    glass1
    {
        Cmu             0.09;
        kappa           0.41;
        E               9.8;
        type            epsilonWallFunction;
        value           nonuniform List<scalar> 9(0.000625753 0.00142615 0.00244147 0.00376061 0.00550741 0.00787381 0.0104639 0.0110002 0.0101721);
    }
    glass2
    {
        Cmu             0.09;
        kappa           0.41;
        E               9.8;
        type            epsilonWallFunction;
        value           nonuniform List<scalar> 2(0.00103805 0.000864289);
    }
    sun
    {
        Cmu             0.09;
        kappa           0.41;
        E               9.8;
        type            epsilonWallFunction;
        value           nonuniform List<scalar> 
14
(
0.000625753
0.000839821
0.000921719
0.00107857
0.00124905
0.00144458
0.00163258
0.00176259
0.00179588
0.00171447
0.00151893
0.00109192
0.000779002
0.000498755
)
;
    }
    heatsource1
    {
        Cmu             0.09;
        kappa           0.41;
        E               9.8;
        type            epsilonWallFunction;
        value           nonuniform List<scalar> 3(6.34891e-05 0.000112919 0.000160958);
    }
    heatsource2
    {
        Cmu             0.09;
        kappa           0.41;
        E               9.8;
        type            epsilonWallFunction;
        value           nonuniform List<scalar> 4(0.000576721 0.000293777 0.000293777 0.000547024);
    }
    Table_master
    {
        Cmu             0.09;
        kappa           0.41;
        E               9.8;
        type            epsilonWallFunction;
        value           nonuniform List<scalar> 9(0.000375387 0.000245806 0.00016622 0.000116681 8.49435e-05 6.39524e-05 4.96518e-05 3.98826e-05 3.3523e-05);
    }
    Table_slave
    {
        Cmu             0.09;
        kappa           0.41;
        E               9.8;
        type            epsilonWallFunction;
        value           nonuniform List<scalar> 9(0.000550899 0.000407151 0.000315953 0.000252918 0.000205838 0.0001677 0.000134987 0.000105822 7.85804e-05);
    }
    inlet
    {
        type            turbulentMixingLengthDissipationRateInlet;
        mixingLength    0.01;
        phi             phi;
        k               k;
        value           uniform 0.000101881;
    }
    outlet
    {
        type            zeroGradient;
    }
}


// ************************************************************************* //
