/*--------------------------------*- C++ -*----------------------------------*\
  =========                 |
  \\      /  F ield         | OpenFOAM: The Open Source CFD Toolbox
   \\    /   O peration     | Website:  https://openfoam.org
    \\  /    A nd           | Version:  6
     \\/     M anipulation  |
\*---------------------------------------------------------------------------*/
FoamFile
{
    version     2.0;
    format      ascii;
    class       volScalarField;
    location    "1300";
    object      epsilon;
}
// * * * * * * * * * * * * * * * * * * * * * * * * * * * * * * * * * * * * * //

dimensions      [0 2 -3 0 0 0 0];

internalField   nonuniform List<scalar> 
459
(
0.000424859
0.000550223
0.000581639
0.000668733
0.000756785
0.000846549
0.000942381
0.00104085
0.00111427
0.00114402
0.00111394
0.00101794
0.000864067
0.000676458
0.000493501
3.50784e-05
5.9691e-05
8.59326e-05
8.81768e-05
8.07515e-05
7.08652e-05
5.85864e-05
4.76321e-05
3.89369e-05
3.21809e-05
2.69062e-05
2.27436e-05
1.94272e-05
1.67492e-05
1.45184e-05
1.25713e-05
1.07575e-05
9.75034e-06
7.50006e-06
0.00107528
0.00157464
0.000516536
0.00049953
0.000521578
0.000560306
0.000620017
0.000699838
0.000776656
0.000825153
0.000824932
0.000769873
0.000668223
0.000542173
0.000438203
0.000520031
0.000121708
3.99326e-05
9.42963e-05
0.000104889
9.81657e-05
8.55217e-05
7.28909e-05
6.66447e-05
5.38985e-05
4.25475e-05
3.3592e-05
2.67194e-05
2.14678e-05
1.74491e-05
1.43881e-05
1.21422e-05
1.07609e-05
1.01693e-05
2.63045e-05
1.78399e-05
0.00196071
0.00387832
0.000635148
0.000472893
0.000492921
0.000552199
0.000642845
0.000758786
0.000866501
0.000931638
0.000936335
0.000881166
0.000777783
0.000651618
0.000533388
0.000475538
0.00056358
0.000266765
0.000208821
0.000165907
0.000132886
0.000107309
9.17752e-05
0.000168581
0.000116858
8.36134e-05
6.17964e-05
4.70743e-05
3.68551e-05
2.95833e-05
2.43273e-05
2.0541e-05
1.56844e-05
1.31696e-05
4.98516e-05
2.85673e-05
0.00317728
0.00807588
0.00100296
0.000474673
0.000477363
0.000560321
0.000696669
0.000870273
0.00100791
0.00107547
0.0010688
0.000998357
0.000875485
0.000729975
0.000601418
0.000517701
0.000498924
0.000904512
0.000522961
0.000321275
0.000218794
0.000160041
0.000123391
0.000106201
0.000244403
0.000187625
0.000153047
0.000129774
0.000111826
9.6553e-05
8.32266e-05
7.05639e-05
5.75141e-05
3.43657e-05
2.23295e-05
8.28836e-05
3.95659e-05
0.00485289
0.0144499
0.00198495
0.000554102
0.000478696
0.00058806
0.000832628
0.00109556
0.00124382
0.00128868
0.00124965
0.00114489
0.000988767
0.000806889
0.000630765
0.000486412
0.000387788
0.000346254
0.00028421
0.000227918
0.000182634
0.000147143
0.000119715
0.00010076
9.72436e-05
9.10018e-05
8.49592e-05
7.89232e-05
7.23584e-05
6.51278e-05
5.78952e-05
5.10155e-05
4.46837e-05
3.59665e-05
2.7682e-05
5.92862e-05
4.57584e-05
7.45507e-05
0.000130498
0.000184828
0.00718706
0.0215214
0.00448404
0.00103403
0.000670822
0.00077781
0.00127488
0.00154614
0.00162773
0.00160365
0.00150975
0.00135475
0.00114578
0.000907062
0.000674656
0.000483216
0.000351748
0.000278037
0.000233568
0.000198001
0.000165573
0.000137417
0.000114793
9.88777e-05
9.09992e-05
8.78895e-05
8.6337e-05
8.43303e-05
8.06479e-05
7.43373e-05
6.5265e-05
5.57381e-05
4.70013e-05
3.91983e-05
3.40829e-05
4.49167e-05
4.71216e-05
5.75185e-05
0.000241211
0.000211424
0.0099699
0.0257747
0.00936893
0.00342785
0.00218482
0.00214482
0.00236909
0.00235442
0.00222917
0.00206408
0.00186852
0.00162845
0.00133927
0.00102511
0.000727487
0.000490127
0.000334758
0.000250947
0.000206434
0.000174753
0.000147021
0.000123934
0.000106969
9.69168e-05
9.37841e-05
9.53898e-05
9.88278e-05
0.000102361
0.000104754
0.000104279
9.76379e-05
8.64714e-05
7.53817e-05
6.60058e-05
6.22915e-05
6.971e-05
8.8853e-05
0.000141838
0.000326038
0.000316746
0.010655
0.0287495
0.0156186
0.00994267
0.0070381
0.00544371
0.0043151
0.00355527
0.00303848
0.00265474
0.00231206
0.00194784
0.00154169
0.00112555
0.000746911
0.000462612
0.000293352
0.000210156
0.000170039
0.000143472
0.000122492
0.00010738
9.85798e-05
9.59187e-05
9.86604e-05
0.000105426
0.000114961
0.000126869
0.000141223
0.00015792
0.00017591
0.00018752
0.000197663
0.000219386
0.000264002
0.000396894
0.000732139
0.00137926
0.00401339
0.00118512
0.00990481
0.0168703
0.0135383
0.0102243
0.00779791
0.00614246
0.00502339
0.00425822
0.00370698
0.00324249
0.00276644
0.00223183
0.00164572
0.00109434
0.000622065
0.000331783
0.000210422
0.000156719
0.000128634
0.000110141
9.75596e-05
9.04197e-05
8.84229e-05
9.10523e-05
9.77043e-05
0.000107913
0.000121689
0.000139745
0.000163469
0.000194919
0.000236857
0.000293238
0.000370554
0.000486207
0.00065601
0.000885823
0.00114801
0.00137616
0.00155206
0.000969867
0.00495557
0.00666111
0.00668393
0.00618686
0.00550603
0.00485531
0.00421249
0.0035138
0.00274475
0.0019293
0.00106126
0.00056309
0.000300035
0.000177723
0.00012494
9.91567e-05
8.46341e-05
7.58289e-05
7.08806e-05
6.92941e-05
7.07108e-05
7.47569e-05
8.12279e-05
9.0187e-05
0.000102058
0.000117691
0.000138451
0.000166409
0.000204815
0.000258654
0.000333278
0.000435748
0.000569268
0.000721087
0.000850492
0.000903539
0.000846974
0.000535502
0.00342687
0.0067337
0.00663975
0.00533898
0.00450912
0.00384262
0.00299951
0.00210106
0.00133665
0.000781946
0.000427957
0.000239543
0.000145023
0.000100683
7.98499e-05
6.92219e-05
6.35892e-05
6.09977e-05
6.06645e-05
6.21812e-05
6.52952e-05
6.99964e-05
7.64399e-05
8.48945e-05
9.58616e-05
0.000110161
0.000129078
0.00015458
0.000189404
0.000237159
0.00030276
0.000391094
0.000502611
0.000628816
0.000722192
0.000817267
0.000762392
0.000562312
0.00217925
0.00254454
0.00284012
0.00314488
0.00234205
0.00180814
0.0015802
0.00137636
0.00111226
0.000836936
0.000581044
0.000384021
0.000251632
0.000171473
0.000125695
9.90975e-05
8.28133e-05
7.26743e-05
6.6804e-05
6.42216e-05
6.42558e-05
6.64278e-05
7.0491e-05
7.64576e-05
8.41539e-05
9.38354e-05
0.00010591
0.000120983
0.000139987
0.000164449
0.000195142
0.000233592
0.000282083
0.000343515
0.000420703
0.000528505
0.000565431
0.00052319
0.000430114
0.000344
)
;

boundaryField
{
    floor
    {
        Cmu             0.09;
        kappa           0.41;
        E               9.8;
        type            epsilonWallFunction;
        value           nonuniform List<scalar> 
29
(
0.000493501
3.50784e-05
5.9691e-05
8.59326e-05
8.81768e-05
8.07515e-05
7.08652e-05
5.85864e-05
4.76321e-05
3.89369e-05
3.21809e-05
2.69062e-05
2.27436e-05
1.94272e-05
1.67492e-05
1.45184e-05
1.25713e-05
1.07575e-05
9.75034e-06
7.50006e-06
7.50006e-06
1.78399e-05
2.85673e-05
3.95659e-05
0.000493501
3.50784e-05
3.99326e-05
0.000266765
0.000904512
)
;
    }
    ceiling
    {
        Cmu             0.09;
        kappa           0.41;
        E               9.8;
        type            epsilonWallFunction;
        value           nonuniform List<scalar> 
43
(
0.00217925
0.00254454
0.00284012
0.00314488
0.00234205
0.00180814
0.0015802
0.00137636
0.00111226
0.000836936
0.000581044
0.000384021
0.000251632
0.000171473
0.000125695
9.90975e-05
8.28133e-05
7.26743e-05
6.6804e-05
6.42216e-05
6.42558e-05
6.64278e-05
7.0491e-05
7.64576e-05
8.41539e-05
9.38354e-05
0.00010591
0.000120983
0.000139987
0.000164449
0.000195142
0.000233592
0.000282083
0.000343515
0.000420703
0.000528505
0.000565431
0.00052319
0.000430114
0.000344
0.00990481
0.0168703
0.00342687
)
;
    }
    sWall
    {
        Cmu             0.09;
        kappa           0.41;
        E               9.8;
        type            epsilonWallFunction;
        value           uniform 0.00217925;
    }
    nWall
    {
        Cmu             0.09;
        kappa           0.41;
        E               9.8;
        type            epsilonWallFunction;
        value           nonuniform List<scalar> 6(0.000184828 0.000211424 0.000316746 0.000535502 0.000562312 0.000344);
    }
    sideWalls
    {
        type            empty;
    }
    glass1
    {
        Cmu             0.09;
        kappa           0.41;
        E               9.8;
        type            epsilonWallFunction;
        value           nonuniform List<scalar> 9(0.000424859 0.00107528 0.00196071 0.00317728 0.00485289 0.00718706 0.0099699 0.010655 0.00990481);
    }
    glass2
    {
        Cmu             0.09;
        kappa           0.41;
        E               9.8;
        type            epsilonWallFunction;
        value           nonuniform List<scalar> 2(0.00118512 0.000969867);
    }
    sun
    {
        Cmu             0.09;
        kappa           0.41;
        E               9.8;
        type            epsilonWallFunction;
        value           nonuniform List<scalar> 
14
(
0.000424859
0.000550223
0.000581639
0.000668733
0.000756785
0.000846549
0.000942381
0.00104085
0.00111427
0.00114402
0.00111394
0.00101794
0.000864067
0.000676458
)
;
    }
    heatsource1
    {
        Cmu             0.09;
        kappa           0.41;
        E               9.8;
        type            epsilonWallFunction;
        value           nonuniform List<scalar> 3(7.45507e-05 0.000130498 0.000184828);
    }
    heatsource2
    {
        Cmu             0.09;
        kappa           0.41;
        E               9.8;
        type            epsilonWallFunction;
        value           nonuniform List<scalar> 4(0.000520031 0.000121708 0.000121708 0.00056358);
    }
    Table_master
    {
        Cmu             0.09;
        kappa           0.41;
        E               9.8;
        type            epsilonWallFunction;
        value           nonuniform List<scalar> 9(0.000168581 0.000116858 8.36134e-05 6.17964e-05 4.70743e-05 3.68551e-05 2.95833e-05 2.43273e-05 2.0541e-05);
    }
    Table_slave
    {
        Cmu             0.09;
        kappa           0.41;
        E               9.8;
        type            epsilonWallFunction;
        value           nonuniform List<scalar> 9(0.000244403 0.000187625 0.000153047 0.000129774 0.000111826 9.6553e-05 8.32266e-05 7.05639e-05 5.75141e-05);
    }
    inlet
    {
        type            turbulentMixingLengthDissipationRateInlet;
        mixingLength    0.01;
        phi             phi;
        k               k;
        value           uniform 0.000101881;
    }
    outlet
    {
        type            zeroGradient;
    }
}


// ************************************************************************* //
