// -*- C++ -*-
// File generated by PyFoam - sorry for the ugliness

FoamFile
{
 version 2.0;
 format ascii;
 class volScalarField;
 location "1300";
 object T;
}

dimensions [ 0 0 0 1 0 0 0 ];

internalField nonuniform List<scalar> 459
(
  303.386
  303.123
  303.11
  303.106
  303.103
  303.099
  303.094
  303.088
  303.08
  303.068
  303.056
  303.045
  303.038
  303.037
  303.043
  303.129
  303.109
  303.101
  303.104
  303.107
  303.111
  303.115
  303.119
  303.123
  303.127
  303.13
  303.134
  303.138
  303.141
  303.145
  303.149
  303.153
  303.158
  303.177
  303.565
  303.165
  303.142
  303.145
  303.148
  303.149
  303.147
  303.14
  303.123
  303.098
  303.071
  303.047
  303.031
  303.023
  303.022
  303.019
  303.016
  303.131
  303.094
  303.087
  303.089
  303.094
  303.098
  303.1
  303.101
  303.103
  303.104
  303.105
  303.106
  303.107
  303.108
  303.11
  303.114
  303.12
  303.129
  303.161
  303.752
  303.216
  303.179
  303.19
  303.205
  303.216
  303.221
  303.215
  303.188
  303.144
  303.095
  303.055
  303.029
  303.018
  303.017
  303.018
  303.018
  303.083
  303.076
  303.079
  303.088
  303.097
  303.105
  303.104
  303.104
  303.104
  303.104
  303.104
  303.104
  303.104
  303.104
  303.105
  303.107
  303.111
  303.119
  303.153
  303.941
  303.278
  303.215
  303.235
  303.265
  303.294
  303.313
  303.308
  303.266
  303.196
  303.119
  303.06
  303.025
  303.012
  303.013
  303.018
  303.023
  303.033
  303.045
  303.062
  303.081
  303.099
  303.115
  303.128
  303.138
  303.147
  303.155
  303.161
  303.167
  303.171
  303.175
  303.177
  303.178
  303.156
  303.136
  303.127
  303.153
  304.124
  303.356
  303.255
  303.271
  303.313
  303.362
  303.403
  303.398
  303.335
  303.234
  303.131
  303.058
  303.017
  303.004
  303.01
  303.022
  303.035
  303.05
  303.068
  303.089
  303.112
  303.133
  303.152
  303.167
  303.181
  303.192
  303.201
  303.208
  303.213
  303.215
  303.214
  303.21
  303.203
  303.186
  303.161
  303.14
  303.15
  303.224
  303.269
  303.276
  304.29
  303.456
  303.32
  303.312
  303.352
  303.412
  303.476
  303.456
  303.365
  303.241
  303.125
  303.041
  303
  302.992
  303.007
  303.031
  303.055
  303.079
  303.105
  303.131
  303.156
  303.178
  303.197
  303.212
  303.225
  303.235
  303.243
  303.248
  303.251
  303.25
  303.245
  303.237
  303.226
  303.208
  303.183
  303.158
  303.153
  303.184
  303.201
  303.236
  304.438
  303.616
  303.472
  303.436
  303.454
  303.51
  303.539
  303.477
  303.347
  303.198
  303.073
  302.995
  302.967
  302.978
  303.012
  303.053
  303.091
  303.125
  303.156
  303.184
  303.208
  303.228
  303.244
  303.257
  303.267
  303.275
  303.28
  303.283
  303.284
  303.28
  303.272
  303.26
  303.246
  303.228
  303.205
  303.181
  303.169
  303.176
  303.187
  303.216
  304.656
  304.04
  303.876
  303.772
  303.724
  303.707
  303.61
  303.437
  303.238
  303.067
  302.957
  302.913
  302.927
  302.975
  303.038
  303.099
  303.15
  303.188
  303.218
  303.241
  303.26
  303.276
  303.288
  303.297
  303.304
  303.308
  303.31
  303.311
  303.309
  303.304
  303.296
  303.284
  303.27
  303.253
  303.236
  303.219
  303.213
  303.225
  303.245
  303.372
  304.966
  304.679
  304.413
  304.182
  303.995
  303.776
  303.446
  303.127
  302.897
  302.783
  302.767
  302.821
  302.916
  303.015
  303.11
  303.183
  303.226
  303.254
  303.275
  303.291
  303.305
  303.315
  303.323
  303.329
  303.332
  303.334
  303.334
  303.333
  303.331
  303.328
  303.326
  303.326
  303.328
  303.335
  303.349
  303.373
  303.406
  303.439
  303.461
  303.515
  297.035
  299.168
  300.287
  300.736
  301.172
  301.605
  302.01
  302.355
  302.633
  302.857
  303.052
  303.16
  303.225
  303.265
  303.29
  303.308
  303.322
  303.332
  303.34
  303.346
  303.35
  303.353
  303.355
  303.357
  303.357
  303.358
  303.359
  303.36
  303.362
  303.364
  303.368
  303.377
  303.391
  303.41
  303.434
  303.457
  303.476
  303.497
  297.472
  299.35
  300.286
  300.98
  301.572
  302.096
  302.506
  302.792
  302.991
  303.126
  303.214
  303.266
  303.299
  303.321
  303.335
  303.346
  303.354
  303.36
  303.365
  303.368
  303.37
  303.372
  303.374
  303.375
  303.376
  303.378
  303.379
  303.38
  303.382
  303.384
  303.388
  303.394
  303.403
  303.417
  303.433
  303.451
  303.449
  303.479
  299.529
  299.459
  299.454
  301.227
  302.088
  302.532
  302.784
  302.962
  303.091
  303.179
  303.243
  303.286
  303.314
  303.333
  303.345
  303.353
  303.359
  303.364
  303.367
  303.37
  303.372
  303.374
  303.376
  303.378
  303.38
  303.381
  303.383
  303.385
  303.386
  303.388
  303.39
  303.392
  303.394
  303.398
  303.403
  303.414
  303.423
  303.429
  303.431
  303.47
)
;

boundaryField
{
  floor
  {
    type wallHeatTransfer;
    Tinf uniform 305.2;
    alphaWall uniform 0.24;
    value nonuniform List<scalar> 29
(
  303.265
  303.528
  303.467
  303.432
  303.431
  303.441
  303.455
  303.473
  303.493
  303.514
  303.533
  303.552
  303.57
  303.588
  303.605
  303.621
  303.638
  303.657
  303.671
  303.711
  303.711
  303.614
  303.565
  303.537
  303.265
  303.528
  303.518
  303.337
  303.224
)
;
  }
  ceiling
  {
    type wallHeatTransfer;
    Tinf uniform 303.2;
    alphaWall uniform 0.24;
    value nonuniform List<scalar> 43
(
  299.783
  299.707
  299.696
  301.351
  302.164
  302.581
  302.816
  302.98
  303.1
  303.181
  303.238
  303.276
  303.3
  303.315
  303.324
  303.33
  303.334
  303.337
  303.339
  303.341
  303.343
  303.345
  303.347
  303.349
  303.351
  303.353
  303.356
  303.358
  303.36
  303.363
  303.365
  303.368
  303.371
  303.376
  303.382
  303.392
  303.401
  303.406
  303.406
  303.439
  304.884
  304.619
  297.821
)
;
  }
  sWall
  {
    type wallHeatTransfer;
    Tinf uniform 315.2;
    alphaWall uniform 0.36;
    value uniform 301.107;
  }
  nWall
  {
    type wallHeatTransfer;
    Tinf uniform 307.2;
    alphaWall uniform 0.36;
    value nonuniform List<scalar> 6
(
  304.001
  303.947
  303.866
  304.031
  304.009
  304.067
)
;
  }
  sideWalls
  {
    type empty;
  }
  glass1
  {
    type wallHeatTransfer;
    Tinf uniform 315.2;
    alphaWall uniform 4.3;
    value nonuniform List<scalar> 9
(
  311.498
  310.861
  310.459
  310.152
  309.896
  309.663
  309.482
  309.547
  309.769
)
;
  }
  glass2
  {
    type wallHeatTransfer;
    Tinf uniform 307.2;
    alphaWall uniform 4.3;
    value nonuniform List<scalar> 2
(
  305.735
  305.839
)
;
  }
  sun
  {
    type wallHeatTransfer;
    Tinf uniform 305.2;
    alphaWall uniform 0.24;
    value nonuniform List<scalar> 14
(
  303.58
  303.331
  303.316
  303.306
  303.296
  303.287
  303.278
  303.268
  303.256
  303.245
  303.234
  303.229
  303.231
  303.242
)
;
  }
  heatsource1
  {
    type fixedGradient;
    gradient uniform 0;
  }
  heatsource2
  {
    type fixedGradient;
    gradient uniform 0;
  }
  Table_master
  {
    type zeroGradient;
  }
  Table_slave
  {
    type zeroGradient;
  }
  inlet
  {
    type fixedValue;
    value uniform 293.15;
  }
  outlet
  {
    type zeroGradient;
  }
} 	// ************************************************************************* //

