/*--------------------------------*- C++ -*----------------------------------*\
  =========                 |
  \\      /  F ield         | OpenFOAM: The Open Source CFD Toolbox
   \\    /   O peration     | Website:  https://openfoam.org
    \\  /    A nd           | Version:  6
     \\/     M anipulation  |
\*---------------------------------------------------------------------------*/
FoamFile
{
    version     2.0;
    format      ascii;
    class       volScalarField;
    location    "800";
    object      alphat;
}
// * * * * * * * * * * * * * * * * * * * * * * * * * * * * * * * * * * * * * //

dimensions      [1 -1 -1 0 0 0 0];

internalField   nonuniform List<scalar> 
459
(
0.00124289
0.00135626
0.00138159
0.00144755
0.00150882
0.00156676
0.00162455
0.0016788
0.00171611
0.00172903
0.00171062
0.00165601
0.00156263
0.00143266
0.00128132
0.00054131
0.00064494
0.000728988
0.000738344
0.000718544
0.000688981
0.000646763
0.000603475
0.000564037
0.000529093
0.000498223
0.000470869
0.000446599
0.000424889
0.000404958
0.000385828
0.000366182
0.00035472
0.000325366
0.00169223
0.00402722
0.00381257
0.00442163
0.00501849
0.00561496
0.00612763
0.00653215
0.00690559
0.00721292
0.00741235
0.00746222
0.00731363
0.00685075
0.00558431
0.00130509
0.000825542
0.00056277
0.00119287
0.00168033
0.00205542
0.00228102
0.00229353
0.00180224
0.00154501
0.00136355
0.00122547
0.00111657
0.00102843
0.000953209
0.000883366
0.000815862
0.000755931
0.000703077
0.000842921
0.000434703
0.00206508
0.00546309
0.00464947
0.00577984
0.00629588
0.00667208
0.0069678
0.00723487
0.0075428
0.00787351
0.0081873
0.00842618
0.00853867
0.00843287
0.00785815
0.00600583
0.0013568
0.00104583
0.00153826
0.00202197
0.00250045
0.00286055
0.00282636
0.000917627
0.00081078
0.000724133
0.000653911
0.000596597
0.000549387
0.000510215
0.000477754
0.00045147
0.000488846
0.000565156
0.000958275
0.000509492
0.00242248
0.00698315
0.00459544
0.00603022
0.00641056
0.00650455
0.00659293
0.00675285
0.00701605
0.00736429
0.00775775
0.00811342
0.0083747
0.00846272
0.0083286
0.00765453
0.00506487
0.00158258
0.0019032
0.00244303
0.00304454
0.00358806
0.00396553
0.00377324
0.0010399
0.000951606
0.000889096
0.000841704
0.000801083
0.000762597
0.000725415
0.000686026
0.000639951
0.000599332
0.000607247
0.00112462
0.000567628
0.00278607
0.00896107
0.00496988
0.00576169
0.00627851
0.0062224
0.00618578
0.00631316
0.00655877
0.00691608
0.00735044
0.00773958
0.0080019
0.00809099
0.00801506
0.00774732
0.00708384
0.00601688
0.00566202
0.0056218
0.00569762
0.00578043
0.00579802
0.00561403
0.00475998
0.00434819
0.00410939
0.00392335
0.00372583
0.00344554
0.00305526
0.00257725
0.00204755
0.00152682
0.00112942
0.00113257
0.000774802
0.000700569
0.00084205
0.000946138
0.00317165
0.0111276
0.00682149
0.00559395
0.00610414
0.00626866
0.00610855
0.00621692
0.00641886
0.0067498
0.00717425
0.0075791
0.00783587
0.00787477
0.0077247
0.00749325
0.00729085
0.00717661
0.00721018
0.00725792
0.00723602
0.0071342
0.00695639
0.0066882
0.0062834
0.00592071
0.0056015
0.00529884
0.00499568
0.00467629
0.00427088
0.00375956
0.00314346
0.00246407
0.00185989
0.00137375
0.00106922
0.000921075
0.00131298
0.000991534
0.00353262
0.012685
0.0097549
0.00708982
0.006645
0.00666198
0.00648086
0.00638603
0.00649071
0.00680939
0.00725709
0.0076803
0.0079197
0.0078965
0.00766673
0.00742291
0.00740238
0.00764973
0.00792077
0.0080038
0.00787719
0.00760126
0.00722686
0.00678855
0.00632376
0.00589947
0.00552255
0.005182
0.00487482
0.00460562
0.00437201
0.0040524
0.00358617
0.00300594
0.00244273
0.00192758
0.00157452
0.0014876
0.00153758
0.00114735
0.00360786
0.0114806
0.00997108
0.00884665
0.00815698
0.00736836
0.00673071
0.00648111
0.00662528
0.00705457
0.00759055
0.00802916
0.00819747
0.00805028
0.00771819
0.00749709
0.00765322
0.0080244
0.00815598
0.00798507
0.00759566
0.00707044
0.00648243
0.00590476
0.00539928
0.00498955
0.00466012
0.00439556
0.00419238
0.00405435
0.00398686
0.00396179
0.00375292
0.00339313
0.00307883
0.00294143
0.0031207
0.00365221
0.00444137
0.00176455
0.00351676
0.00420152
0.00474804
0.00491983
0.00493795
0.00506944
0.0054263
0.00603368
0.00682749
0.00764563
0.00829512
0.0086131
0.00849386
0.00803819
0.00760539
0.00754915
0.00764606
0.00764508
0.00740079
0.00692936
0.00630744
0.00563182
0.00499883
0.00447637
0.004081
0.00378874
0.00356614
0.00338922
0.00324221
0.0031127
0.0029904
0.00287313
0.00278033
0.00271351
0.00269199
0.0027039
0.00267707
0.00255108
0.00237174
0.00164215
0.0021698
0.00384342
0.00534082
0.00659195
0.00759866
0.00848621
0.009141
0.00943421
0.00933834
0.00888296
0.00811004
0.00730099
0.00684291
0.0066774
0.00648552
0.00612016
0.00558919
0.00496974
0.00435054
0.00380512
0.00338528
0.00309141
0.00289429
0.00276223
0.00267277
0.00261274
0.00257489
0.00255592
0.00255797
0.00258448
0.00262019
0.00266112
0.00269716
0.00269787
0.00261643
0.00244285
0.00218769
0.00134443
0.0025238
0.00541513
0.00742642
0.00834251
0.00894672
0.00934262
0.00917537
0.00850492
0.00756997
0.00661637
0.00583413
0.00528245
0.00492226
0.00458923
0.00417611
0.00369929
0.00322157
0.0028082
0.00249753
0.00229241
0.00216516
0.00209088
0.00205951
0.00206077
0.00208747
0.00213492
0.00219887
0.00227364
0.00236547
0.00247173
0.00258935
0.00271012
0.00281524
0.00288677
0.00286208
0.0028758
0.00280506
0.00136602
0.00230543
0.00231803
0.00236123
0.00243267
0.00219526
0.00200909
0.00191889
0.00182407
0.00169117
0.001528
0.00134845
0.00117396
0.00102144
0.000900456
0.000812322
0.000749471
0.00070401
0.000671689
0.000651034
0.000641304
0.000641238
0.000649199
0.000663703
0.000683951
0.000708643
0.000737471
0.000770542
0.000808214
0.000851219
0.000900949
0.000956816
0.00101886
0.00108778
0.00116422
0.00124783
0.00135122
0.00137823
0.00134052
0.0012555
0.00116258
)
;

boundaryField
{
    floor
    {
        type            compressible::alphatWallFunction;
        Prt             0.85;
        value           nonuniform List<scalar> 
29
(
0.000181323
7.55327e-05
9.10708e-05
0.000103448
0.000104815
0.000101921
9.75806e-05
9.13425e-05
8.48945e-05
7.89702e-05
7.36782e-05
6.89668e-05
6.47614e-05
6.10042e-05
5.76213e-05
5.44961e-05
5.1478e-05
4.83581e-05
4.65281e-05
4.18056e-05
4.1805e-05
5.91529e-05
7.06903e-05
7.95114e-05
0.000181321
7.55318e-05
7.87775e-05
0.000148727
0.000222056
)
;
    }
    ceiling
    {
        type            compressible::alphatWallFunction;
        Prt             0.85;
        value           nonuniform List<scalar> 
43
(
0.000316604
0.000318107
0.000323635
0.000332878
0.000302484
0.000278389
0.00026663
0.000254197
0.000236643
0.000214875
0.000190617
0.000166689
0.000145439
0.000128319
0.000115678
0.000106563
9.99131e-05
9.51531e-05
9.20966e-05
9.06524e-05
9.06422e-05
9.18235e-05
9.39715e-05
9.69606e-05
0.000100591
0.000104811
0.000109627
0.000115084
0.000121276
0.00012839
0.000136327
0.000145079
0.000154728
0.000165347
0.000176873
0.000191003
0.000194675
0.000189549
0.000177928
0.000165126
0.000468623
0.000551888
0.000344236
)
;
    }
    sWall
    {
        type            compressible::alphatWallFunction;
        Prt             0.85;
        value           uniform 0.000315432;
    }
    nWall
    {
        type            compressible::alphatWallFunction;
        Prt             0.85;
        value           nonuniform List<scalar> 6(0.000134485 0.000140897 0.000162665 0.000189748 0.000192683 0.000164797);
    }
    sideWalls
    {
        type            empty;
    }
    glass1
    {
        type            compressible::alphatWallFunction;
        Prt             0.85;
        value           nonuniform List<scalar> 9(0.000171717 0.000231497 0.000279893 0.00032549 0.000371211 0.000419065 0.000463362 0.000472668 0.000461786);
    }
    glass2
    {
        type            compressible::alphatWallFunction;
        Prt             0.85;
        value           nonuniform List<scalar> 2(0.000244551 0.000228459);
    }
    sun
    {
        type            compressible::alphatWallFunction;
        Prt             0.85;
        value           nonuniform List<scalar> 
14
(
0.000176077
0.000191554
0.000194995
0.000203923
0.000212175
0.000219945
0.000227663
0.000234879
0.000239828
0.000241538
0.000239098
0.000231847
0.000219388
0.000201906
)
;
    }
    heatsource1
    {
        type            compressible::alphatWallFunction;
        Prt             0.85;
        value           nonuniform List<scalar> 3(9.94011e-05 0.000119954 0.00013481);
    }
    heatsource2
    {
        type            compressible::alphatWallFunction;
        Prt             0.85;
        value           nonuniform List<scalar> 4(0.000184707 0.000117581 0.000117579 0.000191755);
    }
    Table_master
    {
        type            compressible::alphatWallFunction;
        Prt             0.85;
        value           nonuniform List<scalar> 9(0.000130759 0.000115448 0.000102855 9.25154e-05 8.3976e-05 7.68657e-05 7.09084e-05 6.59282e-05 6.18641e-05);
    }
    Table_slave
    {
        type            compressible::alphatWallFunction;
        Prt             0.85;
        value           nonuniform List<scalar> 9(0.00014803 0.000135586 0.000126695 0.000119905 0.00011405 0.000108469 0.000103045 9.72621e-05 9.04461e-05);
    }
    inlet
    {
        type            fixedValue;
        value           uniform 1.94e-05;
    }
    outlet
    {
        type            zeroGradient;
    }
}


// ************************************************************************* //
