/*--------------------------------*- C++ -*----------------------------------*\
  =========                 |
  \\      /  F ield         | OpenFOAM: The Open Source CFD Toolbox
   \\    /   O peration     | Website:  https://openfoam.org
    \\  /    A nd           | Version:  6
     \\/     M anipulation  |
\*---------------------------------------------------------------------------*/
FoamFile
{
    version     2.0;
    format      ascii;
    class       volScalarField;
    location    "100";
    object      epsilon;
}
// * * * * * * * * * * * * * * * * * * * * * * * * * * * * * * * * * * * * * //

dimensions      [0 2 -3 0 0 0 0];

internalField   nonuniform List<scalar> 
459
(
0.00120631
0.00172738
0.00199888
0.00246379
0.00305074
0.00355992
0.00385788
0.003515
0.00302703
0.00253259
0.00207391
0.00167365
0.00134959
0.00105188
0.000764593
0.000127822
0.000208778
0.000337366
0.000456225
0.000494855
0.000466526
0.000384473
0.000307829
0.000248544
0.000203842
0.000169854
0.000143654
0.000123042
0.000106488
9.28227e-05
8.08754e-05
6.94777e-05
5.73363e-05
4.27449e-05
0.00249201
0.00293677
0.00162141
0.00176729
0.00217676
0.00252518
0.0026453
0.00242959
0.0020223
0.00163227
0.00131568
0.0010864
0.00092892
0.000803927
0.000666278
0.000886241
0.000569293
0.000118821
0.00016536
0.000277075
0.000332989
0.000352423
0.000352277
0.000375038
0.000306769
0.000240387
0.000188238
0.000149001
0.000119769
9.77929e-05
8.09439e-05
6.7934e-05
5.98155e-05
5.61286e-05
5.57369e-05
5.06832e-05
0.00410212
0.00581512
0.00208967
0.00203025
0.00245224
0.00263362
0.00260131
0.00241677
0.00202079
0.00158768
0.0012361
0.000986193
0.000814525
0.000691699
0.000587552
0.000589661
0.000684863
0.00012161
0.000248226
0.000312288
0.000357235
0.000375241
0.000400506
0.000922201
0.000600069
0.00040187
0.000278881
0.000200583
0.000149286
0.000114804
9.18693e-05
7.83842e-05
5.97825e-05
5.11445e-05
5.25943e-05
5.27231e-05
0.00617454
0.0108333
0.00330211
0.00271952
0.00302243
0.00290772
0.00277135
0.00257865
0.00213401
0.00161436
0.00119799
0.000917083
0.000734657
0.00061473
0.000530977
0.000499371
0.000538323
0.000774642
0.000527331
0.000449217
0.000441286
0.000452055
0.000453445
0.000483775
0.00137564
0.00103833
0.00081519
0.000651173
0.000519124
0.000407339
0.000310482
0.000225791
0.000149798
7.14913e-05
4.70334e-05
4.76679e-05
5.30921e-05
0.00879535
0.0179432
0.00585302
0.00418471
0.00392254
0.00340847
0.00319744
0.00293463
0.00236421
0.00168933
0.0011642
0.000835446
0.000649491
0.000548932
0.000496711
0.000484186
0.000543167
0.000659658
0.000630913
0.000618023
0.00062286
0.000615778
0.00058373
0.000542728
0.000557702
0.000530263
0.000495935
0.000450369
0.000392358
0.000325689
0.000254911
0.000184848
0.000116457
5.93725e-05
4.05646e-05
4.25916e-05
4.67253e-05
4.82399e-05
5.1453e-05
5.43326e-05
0.0119528
0.0255351
0.0108416
0.00669892
0.00505454
0.00419861
0.00384875
0.0034576
0.00267869
0.00177017
0.0011014
0.000728812
0.000567101
0.000509865
0.000505516
0.000544358
0.000643723
0.000749093
0.000811957
0.000845342
0.000839787
0.000790032
0.000707627
0.000614585
0.000539539
0.000481556
0.000432877
0.00038079
0.00032154
0.00025755
0.000192667
0.000130604
8.12931e-05
4.73784e-05
3.85778e-05
4.22918e-05
4.69851e-05
5.69979e-05
0.000200368
0.000144228
0.0141362
0.0294193
0.0165369
0.00947123
0.00644526
0.0052014
0.00468749
0.00410948
0.00300918
0.00177598
0.000970574
0.000628128
0.000536446
0.000532105
0.000577678
0.000664298
0.000794248
0.000921795
0.00100424
0.00101408
0.000959214
0.000856767
0.000730124
0.000601678
0.000491744
0.000415346
0.000356231
0.000299206
0.000241502
0.000185723
0.000135517
9.40305e-05
6.43814e-05
4.75394e-05
4.79146e-05
5.69164e-05
6.83721e-05
9.49811e-05
0.000291261
0.00022763
0.0140245
0.025962
0.0162128
0.0104701
0.00751789
0.0062501
0.00562918
0.00478431
0.00317862
0.00153092
0.000838838
0.000631692
0.000596045
0.000627456
0.000700091
0.000806465
0.000939786
0.00104682
0.00108412
0.00104026
0.000926379
0.000780236
0.00063216
0.000504587
0.000407387
0.000336173
0.000278313
0.000225976
0.000178142
0.000136801
0.000104333
8.25869e-05
7.29053e-05
7.61484e-05
9.2725e-05
0.000126225
0.000209939
0.000526757
0.00216641
0.000332005
0.0124389
0.0179969
0.0137542
0.00995898
0.0078754
0.00707467
0.00640245
0.0050916
0.00258379
0.001236
0.000825525
0.000722866
0.000725002
0.00077178
0.000844511
0.000931044
0.00101198
0.00104946
0.00101951
0.000928474
0.000799616
0.000663289
0.000540173
0.000439894
0.000362465
0.000301755
0.000250969
0.000206675
0.000168601
0.00013803
0.000117382
0.000111482
0.000128913
0.000177124
0.000253848
0.000362066
0.00052392
0.000733294
0.000907081
0.000478267
0.0017134
0.0041307
0.00674928
0.00711095
0.00515099
0.00279478
0.00151913
0.00106676
0.000930033
0.000909264
0.000932918
0.000974918
0.00102208
0.00106122
0.00107589
0.00104984
0.000981879
0.000886761
0.000784109
0.000689447
0.000609875
0.000546133
0.000495398
0.000453713
0.00041799
0.000386428
0.000357721
0.000330359
0.000303112
0.000277268
0.000259917
0.000264192
0.00030342
0.0003848
0.000506522
0.00064272
0.000701901
0.000661143
0.00315158
0.0161275
0.0108026
0.00627693
0.00330777
0.00194432
0.00142293
0.00125437
0.00121554
0.00122441
0.00125101
0.0012839
0.0013169
0.00134373
0.00135696
0.00135007
0.00132145
0.00127585
0.00122108
0.00116492
0.00111292
0.00106844
0.0010333
0.00100836
0.000993384
0.000987177
0.000987105
0.000988383
0.000983731
0.000964384
0.000922288
0.000852031
0.00075649
0.000659026
0.000586396
0.00061459
0.00103813
0.000942803
0.00271976
0.00337591
0.00399892
0.00535112
0.00368942
0.00278863
0.00222822
0.00186868
0.00168482
0.00160342
0.00158006
0.00158866
0.00161158
0.00163498
0.00164667
0.00163607
0.00159617
0.0015268
0.00143643
0.0013383
0.0012445
0.00116238
0.00109443
0.00104003
0.000997209
0.00096378
0.0009377
0.000916797
0.000898261
0.000878374
0.000852821
0.00081781
0.000771962
0.000718083
0.000662096
0.000606961
0.000545618
0.000503517
0.000516971
0.000506545
)
;

boundaryField
{
    floor
    {
        Cmu             0.09;
        kappa           0.41;
        E               9.8;
        type            epsilonWallFunction;
        value           nonuniform List<scalar> 
29
(
0.000764593
0.000127822
0.000208778
0.000337366
0.000456225
0.000494855
0.000466526
0.000384473
0.000307829
0.000248544
0.000203842
0.000169854
0.000143654
0.000123042
0.000106488
9.28227e-05
8.08754e-05
6.94777e-05
5.73363e-05
4.27449e-05
4.27449e-05
5.06832e-05
5.27231e-05
5.30921e-05
0.000764593
0.000127822
0.000118821
0.00012161
0.000774642
)
;
    }
    ceiling
    {
        Cmu             0.09;
        kappa           0.41;
        E               9.8;
        type            epsilonWallFunction;
        value           nonuniform List<scalar> 
43
(
0.00271976
0.00337591
0.00399892
0.00535112
0.00368942
0.00278863
0.00222822
0.00186868
0.00168482
0.00160342
0.00158006
0.00158866
0.00161158
0.00163498
0.00164667
0.00163607
0.00159617
0.0015268
0.00143643
0.0013383
0.0012445
0.00116238
0.00109443
0.00104003
0.000997209
0.00096378
0.0009377
0.000916797
0.000898261
0.000878374
0.000852821
0.00081781
0.000771962
0.000718083
0.000662096
0.000606961
0.000545618
0.000503517
0.000516971
0.000506545
0.0124389
0.0179969
0.00315158
)
;
    }
    sWall
    {
        Cmu             0.09;
        kappa           0.41;
        E               9.8;
        type            epsilonWallFunction;
        value           uniform 0.00271976;
    }
    nWall
    {
        Cmu             0.09;
        kappa           0.41;
        E               9.8;
        type            epsilonWallFunction;
        value           nonuniform List<scalar> 6(5.43326e-05 0.000144228 0.00022763 0.000661143 0.000942803 0.000506545);
    }
    sideWalls
    {
        type            empty;
    }
    glass1
    {
        Cmu             0.09;
        kappa           0.41;
        E               9.8;
        type            epsilonWallFunction;
        value           nonuniform List<scalar> 9(0.00120631 0.00249201 0.00410212 0.00617454 0.00879535 0.0119528 0.0141362 0.0140245 0.0124389);
    }
    glass2
    {
        Cmu             0.09;
        kappa           0.41;
        E               9.8;
        type            epsilonWallFunction;
        value           nonuniform List<scalar> 2(0.000332005 0.000478267);
    }
    sun
    {
        Cmu             0.09;
        kappa           0.41;
        E               9.8;
        type            epsilonWallFunction;
        value           nonuniform List<scalar> 
14
(
0.00120631
0.00172738
0.00199888
0.00246379
0.00305074
0.00355992
0.00385788
0.003515
0.00302703
0.00253259
0.00207391
0.00167365
0.00134959
0.00105188
)
;
    }
    heatsource1
    {
        Cmu             0.09;
        kappa           0.41;
        E               9.8;
        type            epsilonWallFunction;
        value           nonuniform List<scalar> 3(4.82399e-05 5.1453e-05 5.43326e-05);
    }
    heatsource2
    {
        Cmu             0.09;
        kappa           0.41;
        E               9.8;
        type            epsilonWallFunction;
        value           nonuniform List<scalar> 4(0.000886241 0.000569293 0.000569293 0.000684863);
    }
    Table_master
    {
        Cmu             0.09;
        kappa           0.41;
        E               9.8;
        type            epsilonWallFunction;
        value           nonuniform List<scalar> 9(0.000922201 0.000600069 0.00040187 0.000278881 0.000200583 0.000149286 0.000114804 9.18693e-05 7.83842e-05);
    }
    Table_slave
    {
        Cmu             0.09;
        kappa           0.41;
        E               9.8;
        type            epsilonWallFunction;
        value           nonuniform List<scalar> 9(0.00137564 0.00103833 0.00081519 0.000651173 0.000519124 0.000407339 0.000310482 0.000225791 0.000149798);
    }
    inlet
    {
        type            turbulentMixingLengthDissipationRateInlet;
        mixingLength    0.01;
        phi             phi;
        k               k;
        value           uniform 0.000101881;
    }
    outlet
    {
        type            zeroGradient;
    }
}


// ************************************************************************* //
