// -*- C++ -*-
// File generated by PyFoam - sorry for the ugliness

FoamFile
{
 version 2.0;
 format ascii;
 class volVectorField;
 location "600";
 object U;
}

dimensions [ 0 1 -1 0 0 0 0 ];

internalField nonuniform List<vector> 459
(
  (0.0333875 0.0862515 0)
  (-0.167927 0.0257199 0)
  (-0.193098 0.0177116 0)
  (-0.223993 0.0117473 0)
  (-0.245873 0.00516719 0)
  (-0.257507 -0.00184674 0)
  (-0.257068 -0.00933692 0)
  (-0.24362 -0.0172851 0)
  (-0.217986 -0.0247681 0)
  (-0.182574 -0.0303889 0)
  (-0.141536 -0.0330588 0)
  (-0.099548 -0.0322708 0)
  (-0.0609896 -0.0280518 0)
  (-0.030887 -0.0213543 0)
  (-0.0239028 -0.0141795 0)
  (-0.00736573 0.00933 0)
  (-0.0308261 -0.0164499 0)
  (-0.00966016 -0.0266787 0)
  (0.014967 -0.0210635 0)
  (0.0305517 -0.0146554 0)
  (0.0438189 -0.00961074 0)
  (0.0523476 -0.00556551 0)
  (0.0568402 -0.00342256 0)
  (0.0588515 -0.00256994 0)
  (0.0598183 -0.00220787 0)
  (0.0604088 -0.00198314 0)
  (0.0607418 -0.0018011 0)
  (0.0607591 -0.00158426 0)
  (0.0602751 -0.0011666 0)
  (0.0587692 -0.000184991 0)
  (0.0551166 0.00186335 0)
  (0.0481031 0.00401567 0)
  (0.0417977 0.00577128 0)
  (-0.0131366 0.0205035 0)
  (0.207416 0.176748 0)
  (-0.156715 0.0682922 0)
  (-0.155886 0.0532067 0)
  (-0.188008 0.0407926 0)
  (-0.209878 0.0266378 0)
  (-0.221948 0.0106122 0)
  (-0.222298 -0.00750571 0)
  (-0.20995 -0.026751 0)
  (-0.186383 -0.0441554 0)
  (-0.154414 -0.0565883 0)
  (-0.118218 -0.0621063 0)
  (-0.0819293 -0.0603597 0)
  (-0.0490229 -0.0519544 0)
  (-0.0224586 -0.0386189 0)
  (-0.00620652 -0.0239073 0)
  (0.00705567 -0.0066423 0)
  (0.00481827 0.0160421 0)
  (0.0608078 0.0375794 0)
  (0.0219803 -0.0180236 0)
  (0.0315703 -0.0319693 0)
  (0.0429604 -0.0288818 0)
  (0.052188 -0.0211566 0)
  (0.0591871 -0.0135621 0)
  (0.0623299 -0.00584698 0)
  (0.0629891 -0.00137014 0)
  (0.0629536 0.000477742 0)
  (0.063068 0.00127618 0)
  (0.0632846 0.00175799 0)
  (0.0634439 0.00214928 0)
  (0.0635012 0.00261844 0)
  (0.0634151 0.00347892 0)
  (0.0626863 0.00558943 0)
  (0.0590058 0.0114647 0)
  (0.0496803 0.0162927 0)
  (0.0455726 0.01948 0)
  (-0.0503518 0.0443468 0)
  (0.367117 0.264515 0)
  (-0.17296 0.108712 0)
  (-0.117268 0.0861358 0)
  (-0.148647 0.0641131 0)
  (-0.168331 0.040802 0)
  (-0.179693 0.0147408 0)
  (-0.179616 -0.014686 0)
  (-0.166605 -0.0454048 0)
  (-0.143569 -0.0720942 0)
  (-0.11415 -0.0898786 0)
  (-0.0826058 -0.0964843 0)
  (-0.0522163 -0.0924132 0)
  (-0.0250807 -0.0790896 0)
  (-0.00269407 -0.0589521 0)
  (0.013236 -0.0349555 0)
  (0.0235324 -0.00919886 0)
  (0.0269279 0.0270908 0)
  (0.110939 -0.0230657 0)
  (0.0742261 -0.0360772 0)
  (0.0684237 -0.0382106 0)
  (0.0697652 -0.0336168 0)
  (0.0711172 -0.0260447 0)
  (0.0726362 -0.0192605 0)
  (0.0715768 -0.0152878 0)
  (0.0666553 -0.0106656 0)
  (0.0630396 -0.00814466 0)
  (0.0614304 -0.00670629 0)
  (0.060767 -0.00578325 0)
  (0.0604352 -0.00514612 0)
  (0.0604094 -0.00459542 0)
  (0.0611303 -0.00375618 0)
  (0.0637016 -0.000672332 0)
  (0.0616331 0.0161246 0)
  (0.0485204 0.0275431 0)
  (0.0516473 0.0349847 0)
  (-0.083651 0.0688092 0)
  (0.511474 0.335139 0)
  (-0.207049 0.144522 0)
  (-0.0762245 0.114339 0)
  (-0.106234 0.084195 0)
  (-0.120748 0.0541722 0)
  (-0.129009 0.019682 0)
  (-0.125467 -0.0211495 0)
  (-0.109476 -0.0638279 0)
  (-0.086628 -0.0987209 0)
  (-0.0608998 -0.120065 0)
  (-0.0359386 -0.126288 0)
  (-0.0135185 -0.119561 0)
  (0.00640158 -0.101652 0)
  (0.0225359 -0.0773602 0)
  (0.0365113 -0.0498021 0)
  (0.051561 -0.0209011 0)
  (0.0723192 0.0112614 0)
  (0.102596 0.0216573 0)
  (0.106501 -0.0193205 0)
  (0.0925818 -0.0318925 0)
  (0.0833683 -0.0324975 0)
  (0.0778889 -0.0291588 0)
  (0.0736595 -0.0235008 0)
  (0.0706763 -0.016 0)
  (0.0717055 -0.00968651 0)
  (0.0768686 -0.0071669 0)
  (0.0812624 -0.00577781 0)
  (0.0841266 -0.00481051 0)
  (0.0858562 -0.00375286 0)
  (0.0860173 -0.00229027 0)
  (0.0834653 -0.00015631 0)
  (0.0769198 0.00296066 0)
  (0.0638126 0.00761564 0)
  (0.051242 0.0268841 0)
  (0.03883 0.0427521 0)
  (0.0556824 0.0548657 0)
  (-0.119876 0.0901978 0)
  (0.636748 0.389804 0)
  (-0.249136 0.173656 0)
  (-0.0352998 0.130778 0)
  (-0.0616342 0.0958434 0)
  (-0.0684107 0.06196 0)
  (-0.0705918 0.021368 0)
  (-0.0570104 -0.0304201 0)
  (-0.0366498 -0.0833435 0)
  (-0.0158445 -0.122342 0)
  (0.00326109 -0.143412 0)
  (0.0185141 -0.146386 0)
  (0.0302209 -0.135942 0)
  (0.0393282 -0.115863 0)
  (0.04684 -0.0899499 0)
  (0.0539849 -0.0618832 0)
  (0.0626362 -0.0354633 0)
  (0.0754222 -0.0170097 0)
  (0.0856879 -0.0180563 0)
  (0.0863097 -0.0267193 0)
  (0.0797362 -0.0284061 0)
  (0.0712876 -0.0263274 0)
  (0.0641249 -0.0230734 0)
  (0.0585438 -0.018845 0)
  (0.0549623 -0.0135429 0)
  (0.0543933 -0.0075111 0)
  (0.0565715 -0.00455699 0)
  (0.0591978 -0.00350728 0)
  (0.0617246 -0.00272075 0)
  (0.0640675 -0.00111108 0)
  (0.0658747 0.00194555 0)
  (0.0658834 0.00655645 0)
  (0.0634632 0.0128687 0)
  (0.0580067 0.0214826 0)
  (0.051047 0.0365778 0)
  (0.0406438 0.0541035 0)
  (0.0638437 0.0733939 0)
  (-0.0251804 0.101683 0)
  (0.0462225 0.0299118 0)
  (-0.0619762 -0.0340633 0)
  (-0.27283 -0.0568722 0)
  (0.728291 0.435265 0)
  (-0.290574 0.193099 0)
  (-0.00370261 0.127529 0)
  (-0.0157254 0.0973521 0)
  (-0.0120598 0.0645195 0)
  (-0.0044946 0.0160896 0)
  (0.0283605 -0.0503787 0)
  (0.0494803 -0.104127 0)
  (0.0640584 -0.139042 0)
  (0.0723062 -0.154918 0)
  (0.0751041 -0.154155 0)
  (0.0740481 -0.140706 0)
  (0.0706876 -0.118697 0)
  (0.0666565 -0.0921983 0)
  (0.0633811 -0.0648438 0)
  (0.0621721 -0.0403394 0)
  (0.063737 -0.0228634 0)
  (0.064677 -0.0169652 0)
  (0.0613979 -0.0177036 0)
  (0.0543894 -0.018761 0)
  (0.0463589 -0.0181508 0)
  (0.0394436 -0.0164727 0)
  (0.0342243 -0.014063 0)
  (0.0310689 -0.0110188 0)
  (0.0303442 -0.0079982 0)
  (0.031763 -0.00681398 0)
  (0.0342439 -0.00671344 0)
  (0.0373069 -0.00640199 0)
  (0.0407563 -0.00481049 0)
  (0.0443248 -0.00101229 0)
  (0.0476206 0.00533106 0)
  (0.0494072 0.0138339 0)
  (0.0499443 0.0245817 0)
  (0.0505875 0.0389173 0)
  (0.0493351 0.056176 0)
  (0.0724951 0.0782305 0)
  (0.0511286 0.0950978 0)
  (0.0931771 0.066082 0)
  (0.116173 0.043914 0)
  (-0.128802 -0.00683664 0)
  (0.781714 0.476553 0)
  (-0.311518 0.178299 0)
  (0.0241382 0.0776054 0)
  (0.0443902 0.0724912 0)
  (0.0606769 0.0473976 0)
  (0.0948649 -0.0108992 0)
  (0.126355 -0.0743122 0)
  (0.143235 -0.120207 0)
  (0.147431 -0.146195 0)
  (0.141639 -0.154382 0)
  (0.128769 -0.14807 0)
  (0.111793 -0.131208 0)
  (0.0933331 -0.107888 0)
  (0.0756843 -0.081946 0)
  (0.0604176 -0.0564037 0)
  (0.0486763 -0.0344889 0)
  (0.0407565 -0.0191666 0)
  (0.0349052 -0.0122039 0)
  (0.0288433 -0.0109478 0)
  (0.0220204 -0.0114152 0)
  (0.0153439 -0.0114905 0)
  (0.00974733 -0.0110537 0)
  (0.00562199 -0.010277 0)
  (0.00324743 -0.0092839 0)
  (0.00280809 -0.00855285 0)
  (0.00399806 -0.00882926 0)
  (0.00615665 -0.00962409 0)
  (0.00898381 -0.0100245 0)
  (0.0124988 -0.00909887 0)
  (0.0168259 -0.00578727 0)
  (0.0229007 0.000960677 0)
  (0.0291714 0.0102912 0)
  (0.0350986 0.0211699 0)
  (0.0425254 0.0339449 0)
  (0.0504572 0.0481476 0)
  (0.0729075 0.0659103 0)
  (0.0861385 0.0725266 0)
  (0.118918 0.0496498 0)
  (0.158518 0.0427664 0)
  (-0.033222 0.0936379 0)
  (0.887015 0.478602 0)
  (-0.0681349 0.157603 0)
  (0.107964 0.00313621 0)
  (0.172373 -0.021778 0)
  (0.193263 -0.0438657 0)
  (0.227912 -0.0780346 0)
  (0.246258 -0.109398 0)
  (0.245294 -0.13043 0)
  (0.228269 -0.139156 0)
  (0.200252 -0.136303 0)
  (0.166253 -0.123979 0)
  (0.130377 -0.104872 0)
  (0.0957045 -0.0820685 0)
  (0.0647512 -0.0586895 0)
  (0.0387612 -0.036847 0)
  (0.0191756 -0.0194724 0)
  (0.00617629 -0.00874198 0)
  (-0.00196946 -0.00454278 0)
  (-0.00778341 -0.0043796 0)
  (-0.0129659 -0.00539785 0)
  (-0.0176464 -0.00633032 0)
  (-0.0215596 -0.00703379 0)
  (-0.0245281 -0.00761413 0)
  (-0.0264055 -0.00820658 0)
  (-0.0271737 -0.00906175 0)
  (-0.0271214 -0.0103697 0)
  (-0.0266514 -0.0118464 0)
  (-0.0259153 -0.0130042 0)
  (-0.024773 -0.0133065 0)
  (-0.0228254 -0.012139 0)
  (-0.019083 -0.00874936 0)
  (-0.010253 -0.0024231 0)
  (-0.00098893 0.00593003 0)
  (0.0100111 0.0142755 0)
  (0.0218165 0.021037 0)
  (0.0414578 0.0279155 0)
  (0.0593259 0.0203846 0)
  (0.0777747 -0.00647843 0)
  (0.13611 0.0412124 0)
  (-0.41822 0.208366 0)
  (1.03316 0.429913 0)
  (0.497401 0.284779 0)
  (0.503979 0.189847 0)
  (0.514765 0.116004 0)
  (0.490008 0.0616557 0)
  (0.444123 0.00687125 0)
  (0.391714 -0.0402535 0)
  (0.335972 -0.0716653 0)
  (0.276651 -0.0860877 0)
  (0.216448 -0.0863648 0)
  (0.158938 -0.07686 0)
  (0.106465 -0.061308 0)
  (0.0604778 -0.0430266 0)
  (0.0226434 -0.0250897 0)
  (-0.00785889 -0.00948397 0)
  (-0.0260143 -0.00139593 0)
  (-0.0354263 0.00126909 0)
  (-0.0404548 0.00122047 0)
  (-0.0437855 -5.50975e-05 0)
  (-0.0467907 -0.00157354 0)
  (-0.0498195 -0.00296729 0)
  (-0.0526969 -0.00426917 0)
  (-0.0553394 -0.00554198 0)
  (-0.0577009 -0.00684532 0)
  (-0.0598825 -0.00824681 0)
  (-0.0621706 -0.00972643 0)
  (-0.0649203 -0.0110406 0)
  (-0.0684514 -0.0117851 0)
  (-0.0731001 -0.0114098 0)
  (-0.0793208 -0.00920354 0)
  (-0.087688 -0.00433695 0)
  (-0.0982653 0.00381373 0)
  (-0.109186 0.0147487 0)
  (-0.124832 0.0285436 0)
  (-0.149537 0.0451229 0)
  (-0.185767 0.0631799 0)
  (-0.236658 0.0785658 0)
  (-0.29388 0.0885781 0)
  (-0.361623 0.0934089 0)
  (-0.621359 0.0941305 0)
  (-0.141714 0.080134 0)
  (0.132199 0.0545826 0)
  (0.211983 -0.00397597 0)
  (0.195201 -0.0359424 0)
  (0.177908 -0.046905 0)
  (0.153427 -0.0484346 0)
  (0.119326 -0.0443741 0)
  (0.0799734 -0.0361834 0)
  (0.0403369 -0.0250935 0)
  (0.00124775 -0.0113943 0)
  (-0.032661 0.000513505 0)
  (-0.0534835 0.0065923 0)
  (-0.0652064 0.00885833 0)
  (-0.0701905 0.00846 0)
  (-0.072868 0.00740411 0)
  (-0.0746337 0.00624765 0)
  (-0.0762894 0.00515868 0)
  (-0.0781131 0.00422589 0)
  (-0.080106 0.00334447 0)
  (-0.082421 0.00235829 0)
  (-0.0850628 0.00119087 0)
  (-0.0879958 -5.4305e-05 0)
  (-0.091301 -0.00125287 0)
  (-0.095095 -0.00222791 0)
  (-0.0994599 -0.00270131 0)
  (-0.104403 -0.00233393 0)
  (-0.10983 -0.000749495 0)
  (-0.115509 0.00243327 0)
  (-0.120844 0.00765422 0)
  (-0.125062 0.0156298 0)
  (-0.128565 0.0274675 0)
  (-0.131616 0.0435051 0)
  (-0.135074 0.0627082 0)
  (-0.139431 0.0812631 0)
  (-0.141372 0.0893791 0)
  (-0.123033 0.0666398 0)
  (-0.0735192 -0.0268186 0)
  (-0.279243 -0.205684 0)
  (-0.01665 0.229169 0)
  (0.0612279 0.0949404 0)
  (0.0317735 0.0144675 0)
  (0.0195516 -0.00764101 0)
  (0.00584996 -0.0102823 0)
  (-0.0159642 -0.00891922 0)
  (-0.0416652 -0.00546334 0)
  (-0.0661398 -0.000722404 0)
  (-0.0853418 0.00372228 0)
  (-0.0970742 0.00621188 0)
  (-0.101499 0.00574041 0)
  (-0.102701 0.00344037 0)
  (-0.10199 0.00059021 0)
  (-0.100695 -0.00260351 0)
  (-0.0997609 -0.00575307 0)
  (-0.0994073 -0.00880108 0)
  (-0.0996786 -0.0116596 0)
  (-0.100461 -0.0141327 0)
  (-0.101583 -0.0160316 0)
  (-0.102924 -0.0172628 0)
  (-0.104465 -0.0178566 0)
  (-0.106276 -0.017912 0)
  (-0.108363 -0.0175135 0)
  (-0.110733 -0.0168473 0)
  (-0.113297 -0.0158084 0)
  (-0.115835 -0.0141619 0)
  (-0.117977 -0.0115305 0)
  (-0.119194 -0.00734887 0)
  (-0.118912 -0.00134498 0)
  (-0.116105 0.00703563 0)
  (-0.109323 0.0186784 0)
  (-0.0973471 0.0343339 0)
  (-0.0800215 0.0534294 0)
  (-0.0582237 0.071436 0)
  (-0.0351666 0.0813875 0)
  (0.00644958 0.0642165 0)
  (0.142285 -0.00601195 0)
  (-0.207097 -0.115683 0)
  (-0.104923 -0.349556 0)
  (-0.440708 -0.121317 0)
  (-0.311859 0.0938116 0)
  (-0.231806 -0.0202992 0)
  (-0.186622 -0.0391005 0)
  (-0.17411 -0.0264957 0)
  (-0.172 -0.0140225 0)
  (-0.172535 -0.0046283 0)
  (-0.171328 0.00297375 0)
  (-0.167846 0.0098665 0)
  (-0.161753 0.0161716 0)
  (-0.153536 0.0216888 0)
  (-0.144338 0.0261999 0)
  (-0.135486 0.0300459 0)
  (-0.12762 0.033707 0)
  (-0.121012 0.0374074 0)
  (-0.115573 0.0412334 0)
  (-0.111111 0.0449771 0)
  (-0.107517 0.0482796 0)
  (-0.104729 0.0507593 0)
  (-0.102711 0.0521437 0)
  (-0.101424 0.0523425 0)
  (-0.100822 0.0514371 0)
  (-0.100859 0.0496054 0)
  (-0.101468 0.0471104 0)
  (-0.102529 0.0444131 0)
  (-0.103875 0.0416635 0)
  (-0.105226 0.0389772 0)
  (-0.106142 0.0364414 0)
  (-0.105926 0.0341364 0)
  (-0.103293 0.0328361 0)
  (-0.0962991 0.0332176 0)
  (-0.0824599 0.0360417 0)
  (-0.060088 0.0422059 0)
  (-0.0303524 0.0521337 0)
  (0.0197704 0.0653573 0)
  (0.0627065 0.0655208 0)
  (0.104839 0.0505714 0)
  (0.164216 0.0215685 0)
  (-0.214373 -0.0335047 0)
)
;

boundaryField
{
  floor
  {
    type noSlip;
  }
  ceiling
  {
    type noSlip;
  }
  sWall
  {
    type noSlip;
  }
  nWall
  {
    type noSlip;
  }
  sideWalls
  {
    type empty;
  }
  glass1
  {
    type noSlip;
  }
  glass2
  {
    type noSlip;
  }
  sun
  {
    type noSlip;
  }
  heatsource1
  {
    type noSlip;
  }
  heatsource2
  {
    type noSlip;
  }
  Table_master
  {
    type noSlip;
  }
  Table_slave
  {
    type noSlip;
  }
  inlet
  {
    type fixedValue;
    value uniform (0.3 0 0);
  }
  outlet
  {
    type zeroGradient;
  }
} 	// ************************************************************************* //

