/*--------------------------------*- C++ -*----------------------------------*\
  =========                 |
  \\      /  F ield         | OpenFOAM: The Open Source CFD Toolbox
   \\    /   O peration     | Website:  https://openfoam.org
    \\  /    A nd           | Version:  6
     \\/     M anipulation  |
\*---------------------------------------------------------------------------*/
FoamFile
{
    version     2.0;
    format      ascii;
    class       surfaceScalarField;
    location    "1300";
    object      phi;
}
// * * * * * * * * * * * * * * * * * * * * * * * * * * * * * * * * * * * * * //

dimensions      [1 0 -1 0 0 0 0];

internalField   nonuniform List<scalar> 
852
(
-0.0029572
0.00301455
-0.00399522
0.00103802
-0.00479488
0.00079966
-0.00541881
0.000623939
-0.00583366
0.000414849
-0.00601152
0.000177858
-0.00592432
-8.7197e-05
-0.00554974
-0.000374582
-0.00490256
-0.000647183
-0.00404652
-0.000856036
-0.00308047
-0.000966044
-0.00211561
-0.000964868
-0.00125344
-0.000862167
-0.000554858
-0.000698579
-0.000553194
-0.00077632
0.000779304
-0.000520477
-0.000255841
7.35902e-05
-0.000594067
0.00057338
-0.000499789
0.000920132
-0.000346751
0.00114615
-0.00022602
0.00127215
-0.000125999
0.00133319
-6.10354e-05
0.00136699
-3.38e-05
0.00138779
-2.0796e-05
0.00139958
-1.17899e-05
0.00140391
-4.32487e-06
0.00139946
4.44729e-06
0.00137879
2.06713e-05
0.00132092
5.78766e-05
0.0011906
0.000130319
0.000975913
0.000214687
0.000713204
0.000262711
0.000717199
-0.00211839
0.00528746
-0.00313731
0.00205694
-0.00396592
0.00162827
-0.00458605
0.00124406
-0.00499913
0.000827935
-0.00518633
0.00036506
-0.0051163
-0.000157228
-0.00477072
-0.000720163
-0.0041767
-0.0012412
-0.00340881
-0.00162393
-0.00256443
-0.00181042
-0.0017384
-0.0017909
-0.00101145
-0.00158912
-0.000458882
-0.00125114
-0.000192394
-0.000819682
0.000109144
-0.000301588
0.000109094
0.000256544
0.000531449
0.000660674
-0.00065997
0.000926609
-0.000860001
0.0011501
-0.000723274
0.00132775
-0.000524408
0.00144238
-0.00034065
0.00146274
-0.000146352
0.00146778
-6.60746e-05
0.00147388
-3.99051e-05
0.00147901
-2.59245e-05
0.00148242
-1.51915e-05
0.00148425
-6.15824e-06
0.00148389
4.80652e-06
0.00147816
2.64072e-05
0.00143946
9.6574e-05
0.00127352
0.000296263
0.000984863
0.000503347
0.000623066
0.00062451
0.00135042
-0.00148899
0.00701286
-0.00237099
0.00293895
-0.00311148
0.00236876
-0.0036479
0.00178048
-0.00401486
0.0011949
-0.00418859
0.000538783
-0.00411517
-0.000230645
-0.00376756
-0.00106777
-0.00319813
-0.00181063
-0.00249964
-0.00232242
-0.0017667
-0.00254335
-0.00107281
-0.0024848
-0.000470377
-0.00219155
4.66263e-06
-0.00172618
0.000318319
-0.00113334
0.00046279
-0.000446058
0.000571885
0.00149303
-0.000952088
0.00171278
-0.000879714
0.00167131
-0.000818525
0.00166056
-0.000712531
0.00168546
-0.000549301
0.00172655
-0.000381744
0.00158035
0.00151443
0.00147468
0.00144891
0.00143388
0.00142787
0.00143283
0.0014594
0.00155612
0.0012861
0.000566292
0.000954771
0.000834674
0.000536307
0.00104297
0.0019021
-0.00104286
0.00836182
-0.00174482
0.00364091
-0.00224284
0.00286678
-0.00260253
0.00214017
-0.0028559
0.00144828
-0.00296726
0.00065014
-0.00284022
-0.000357678
-0.00245513
-0.00145287
-0.0019115
-0.00235426
-0.0013121
-0.00292182
-0.000732597
-0.00312286
-0.000213967
-0.00300343
0.000227482
-0.002633
0.000591258
-0.00208996
0.000915435
-0.00145751
0.00128113
-0.000811756
0.00212555
-0.000272533
0.00248996
-0.000356023
0.00213777
-0.000599892
0.00200443
-0.000746376
0.00187795
-0.000692048
0.0017645
-0.00059908
0.00169321
-0.000478004
0.0016373
-0.000325831
0.00177888
-0.000141734
0.00186656
-8.78325e-05
0.00193726
-7.08533e-05
0.00199272
-5.56087e-05
0.00201875
-2.61832e-05
0.00199355
2.50508e-05
0.00189157
0.000101821
0.00167937
0.000212055
0.00130192
0.000377291
0.00114114
0.000727074
0.000828552
0.00114727
0.000360244
0.00151129
0.00228239
-0.000728842
0.00945594
-0.00126287
0.00417494
-0.00138568
0.00298959
-0.00148026
0.00223475
-0.00154421
0.00151222
-0.00151138
0.000617309
-0.00124463
-0.000624425
-0.000807984
-0.00188951
-0.000333093
-0.00282916
0.000100361
-0.00335527
0.00045657
-0.00347906
0.000730001
-0.00327686
0.000941201
-0.0028442
0.00112018
-0.00226893
0.00130126
-0.0016386
0.00153224
-0.00104274
0.00185666
-0.000596949
0.00196495
-0.000464307
0.00188406
-0.000519
0.00170946
-0.000571775
0.00155312
-0.000535711
0.00141975
-0.000465713
0.0013228
-0.000381051
0.00127819
-0.000281217
0.00132263
-0.000186178
0.00137804
-0.000143234
0.00143771
-0.000130524
0.00149831
-0.000116204
0.00154932
-7.71906e-05
0.00157028
4.09113e-06
0.00153949
0.00013261
0.00144487
0.000306677
0.00128735
0.000534809
0.00114013
0.000874299
0.000974504
0.00131289
0.000618269
0.00186752
0.000516143
0.00238451
-0.000989293
0.00150523
-0.00145335
0.000463859
-0.0014049
-0.000631174
0.0105022
-0.000998446
0.00454221
-0.000605643
0.00259679
-0.000315193
0.00194431
-0.00010406
0.00130109
0.000211762
0.000301488
0.000686183
-0.00109885
0.00112384
-0.00232717
0.00143941
-0.00314472
0.00161706
-0.00353292
0.00168074
-0.00354274
0.00166323
-0.00325934
0.00159629
-0.00277726
0.00151743
-0.00219007
0.00146019
-0.00158136
0.00144974
-0.00103229
0.00147968
-0.000626895
0.00144788
-0.000432504
0.00132378
-0.000394901
0.00114615
-0.000394144
0.000983554
-0.000373111
0.000854651
-0.000336808
0.000767486
-0.000293885
0.000732693
-0.000246423
0.000753492
-0.000206976
0.00080487
-0.000194611
0.000872752
-0.000198404
0.000951343
-0.000194793
0.00103475
-0.000160597
0.00111163
-7.2785e-05
0.0011634
8.08405e-05
0.00118408
0.000285997
0.00118255
0.000536344
0.00120322
0.000853631
0.0012924
0.00122372
0.00146646
0.00169346
0.00190386
0.00194712
0.0021625
0.00124659
0.00177284
0.000853524
0.000426152
-0.000718346
0.0116803
-0.000605446
0.00442931
0.00046772
0.00152362
0.00113873
0.0012733
0.00170034
0.000739477
0.00233953
-0.000337704
0.00289732
-0.00165663
0.00320835
-0.00263821
0.00326595
-0.00320232
0.00311518
-0.00338216
0.0028193
-0.00324686
0.00244238
-0.00288242
0.00203895
-0.00237383
0.00165735
-0.00180847
0.0013309
-0.0012549
0.00107974
-0.000781127
0.00090135
-0.000448506
0.000749646
-0.000280799
0.000589417
-0.000234671
0.000428387
-0.000233112
0.000289873
-0.000234596
0.000185201
-0.000232134
0.00011875
-0.000227432
9.48539e-05
-0.000222526
0.000111777
-0.000223898
0.000155865
-0.000238697
0.000216554
-0.000259092
0.000291965
-0.000270201
0.000386141
-0.000254771
0.000504195
-0.000190837
0.000634856
-4.98188e-05
0.000765973
0.000154883
0.000906741
0.000395578
0.00109524
0.000665135
0.00137773
0.000941226
0.0018201
0.00125109
0.00248757
0.00127966
0.00302996
0.000704196
0.00304964
0.00083385
0.00353853
0.00259976
0.00959417
0.00327568
0.00375339
0.003436
0.0013633
0.00388053
0.000828772
0.00456158
5.84298e-05
0.0052533
-0.00102943
0.00554106
-0.00194439
0.00542474
-0.00252188
0.0049894
-0.00276698
0.00433841
-0.00273117
0.00357359
-0.00248204
0.00278176
-0.00209059
0.00202282
-0.00161489
0.00135198
-0.00113763
0.000797245
-0.000700172
0.000380354
-0.000364235
0.000101157
-0.000169308
-8.53165e-05
-9.43245e-05
-0.000228249
-9.17378e-05
-0.000348574
-0.000112786
-0.000447518
-0.000135651
-0.000522929
-0.000156722
-0.000573893
-0.000176467
-0.000600013
-0.000196405
-0.000604389
-0.00021952
-0.000595781
-0.000247305
-0.000580182
-0.000274689
-0.000557082
-0.0002933
-0.000518419
-0.000293431
-0.000445539
-0.000263716
-0.00030792
-0.000187436
-0.000118906
-3.41288e-05
0.000102997
0.000173676
0.000377272
0.000390863
0.000714648
0.000603851
0.00115573
0.000810004
0.00163179
0.000803598
0.00182471
0.000511275
0.00107365
0.00158492
0.00487101
0.0101579
0.0139041
0.012223
0.00304437
0.0113109
0.00174089
0.0105759
0.00079347
0.00969438
-0.000147947
0.0085558
-0.000805815
0.00726661
-0.00123269
0.00592075
-0.00142112
0.00458648
-0.0013969
0.00332649
-0.00122205
0.00219249
-0.000956591
0.00119403
-0.000616434
0.00037398
-0.000317574
-0.000232853
-9.33377e-05
-0.000613376
1.6289e-05
-0.000821282
3.85991e-05
-0.000940726
2.5121e-05
-0.00102954
-2.91867e-06
-0.00110862
-3.37077e-05
-0.00118069
-6.35827e-05
-0.00124544
-9.19638e-05
-0.00130328
-0.000118624
-0.00135579
-0.000143896
-0.00140694
-0.000168368
-0.00146401
-0.00019023
-0.00153451
-0.000204191
-0.00162589
-0.000201917
-0.00174733
-0.000171992
-0.00191053
-0.000100513
-0.00212325
2.52865e-05
-0.00237225
0.000214871
-0.00268177
0.000483194
-0.00313782
0.000846918
-0.00383639
0.00130243
-0.00484223
0.00181585
-0.0062692
0.00223056
-0.00798693
0.00222901
-0.00747836
0.00107635
-0.00232056
0.00510463
0.00456634
0.00410865
0.00273687
0.00451723
0.000384881
0.00456105
-0.000191769
0.00415745
-0.000402225
0.00347861
-0.000553848
0.00263434
-0.00057685
0.00171661
-0.00047917
0.000800207
-0.000305647
-6.24004e-05
-9.39822e-05
-0.0007681
8.92669e-05
-0.00123427
0.000148599
-0.00148947
0.000161862
-0.00161535
0.000142171
-0.00168482
0.000108069
-0.00173379
7.40916e-05
-0.00177947
4.27649e-05
-0.00182886
1.56848e-05
-0.00188526
-7.1805e-06
-0.00194865
-2.85703e-05
-0.00201861
-4.8668e-05
-0.00209641
-6.60962e-05
-0.00218347
-8.13053e-05
-0.00228202
-9.16728e-05
-0.00239325
-9.29609e-05
-0.002516
-7.91609e-05
-0.00264564
-4.23507e-05
-0.00277335
2.71988e-05
-0.00288692
0.000138854
-0.00298389
0.000311846
-0.00307272
0.000572019
-0.00316037
0.000934577
-0.0032446
0.00138665
-0.00327896
0.00185021
-0.00320457
0.00215617
-0.00284182
0.00186626
-0.00156884
-0.000196625
-0.00381432
-0.000444325
0.00506702
0.00085827
0.00143427
0.000837191
0.000405958
0.000577429
6.79913e-05
0.000211717
-3.65123e-05
-0.000303717
-3.84112e-05
-0.000892909
1.23442e-05
-0.00144845
7.63734e-05
-0.00188829
0.00013419
-0.00216091
0.000178642
-0.00227157
0.000199931
-0.00231017
0.000187199
-0.00231013
0.000161823
-0.00230084
0.000132883
-0.00229892
0.000106146
-0.00230812
8.32965e-05
-0.0023283
6.29475e-05
-0.00235704
4.44283e-05
-0.00239209
2.78728e-05
-0.00243394
1.32789e-05
-0.00248241
-2.01033e-07
-0.00253702
-1.14752e-05
-0.00259758
-2.07494e-05
-0.00266224
-2.70068e-05
-0.002727
-2.81998e-05
-0.00278497
-2.11911e-05
-0.00282545
-1.86385e-06
-0.00283659
3.83395e-05
-0.00280573
0.000107995
-0.00270961
0.000215727
-0.00251528
0.000377691
-0.00219538
0.000614674
-0.00173489
0.000926173
-0.00111028
0.0012256
-0.000141228
0.00118712
0.00116264
0.00056239
0.00157468
-0.000608655
-0.00215724
-0.00794753
-0.0107978
-0.00568666
-0.00422942
-0.00380921
-0.00373184
-0.00376208
-0.00379652
-0.00378194
-0.00370462
-0.00357057
-0.003393
-0.00319494
-0.0030103
-0.0028516
-0.00272227
-0.00262004
-0.00254092
-0.00248234
-0.00244241
-0.00241911
-0.00241042
-0.0024152
-0.00243121
-0.00245643
-0.00248783
-0.00252033
-0.00254571
-0.00255164
-0.00251723
-0.00241302
-0.00220093
-0.00182675
-0.00121547
-0.000292588
0.000929747
0.00211351
0.00267237
0.00205992
)
;

boundaryField
{
    floor
    {
        type            calculated;
        value           nonuniform List<scalar> 
29
(
0
0
0
0
0
0
0
0
0
0
0
0
0
0
0
0
0
0
0
0
-3.9941e-06
-1.01578e-05
-1.53706e-05
-2.00364e-05
-1.66263e-06
-2.9834e-06
-8.68801e-06
-9.49671e-06
-8.38551e-06
)
;
    }
    ceiling
    {
        type            calculated;
        value           nonuniform List<scalar> 
43
(
-4.6631e-05
-4.53561e-05
-4.40857e-05
-2.29732e-05
-1.42461e-05
-9.38221e-06
-6.26306e-06
-3.96895e-06
-2.23887e-06
-9.38919e-07
1.40814e-07
1.06882e-06
1.87538e-06
2.56127e-06
3.11954e-06
3.56196e-06
3.91018e-06
4.17886e-06
4.37425e-06
4.50166e-06
4.5706e-06
4.59314e-06
4.57959e-06
4.53624e-06
4.4734e-06
4.39379e-06
4.29917e-06
4.19056e-06
4.06814e-06
3.93048e-06
3.78771e-06
3.64601e-06
3.51072e-06
3.38943e-06
3.29615e-06
3.26186e-06
3.35559e-06
3.53908e-06
3.79002e-06
4.83135e-06
1.02658e-05
7.21953e-06
-5.63596e-05
)
;
    }
    sWall
    {
        type            calculated;
        value           uniform -0.00027146;
    }
    nWall
    {
        type            calculated;
        value           nonuniform List<scalar> 6(-4.86557e-05 -5.82107e-05 -6.27363e-05 -7.50702e-05 -8.2409e-05 -0.000102145);
    }
    sideWalls
    {
        type            empty;
        value           nonuniform 0();
    }
    glass1
    {
        type            calculated;
        value           nonuniform List<scalar> 9(-5.73517e-05 -0.000154528 -0.000236405 -0.000306103 -0.00036527 -0.000415137 -0.000459702 -0.000513637 -0.000574007);
    }
    glass2
    {
        type            calculated;
        value           nonuniform List<scalar> 2(-0.000258832 -0.000286792);
    }
    sun
    {
        type            calculated;
        value           uniform 0;
    }
    heatsource1
    {
        type            calculated;
        value           nonuniform List<scalar> 3(2.042e-07 2.04141e-07 2.04158e-07);
    }
    heatsource2
    {
        type            calculated;
        value           nonuniform List<scalar> 4(5.11923e-08 5.12792e-08 0 0);
    }
    Table_master
    {
        type            calculated;
        value           nonuniform List<scalar> 9(-1.53146e-07 -1.53236e-07 -1.53268e-07 -1.5329e-07 -1.53305e-07 -1.53316e-07 -1.53321e-07 -1.53316e-07 -1.53286e-07);
    }
    Table_slave
    {
        type            calculated;
        value           nonuniform List<scalar> 9(1.53023e-07 1.53042e-07 1.5302e-07 1.53002e-07 1.52995e-07 1.52998e-07 1.53012e-07 1.53054e-07 1.53136e-07);
    }
    inlet
    {
        type            calculated;
        value           uniform -0.0066266;
    }
    outlet
    {
        type            calculated;
        value           nonuniform List<scalar> 2(0.00826562 0.0028956);
    }
}


// ************************************************************************* //
