// -*- C++ -*-
// File generated by PyFoam - sorry for the ugliness

FoamFile
{
 version 2.0;
 format ascii;
 class volVectorField;
 location "1300";
 object U;
}

dimensions [ 0 1 -1 0 0 0 0 ];

internalField nonuniform List<vector> 459
(
  (0.0343708 0.0858554 0)
  (-0.167009 0.0254461 0)
  (-0.191692 0.0178557 0)
  (-0.22271 0.0121853 0)
  (-0.245208 0.00592727 0)
  (-0.258101 -0.000731137 0)
  (-0.259712 -0.00786095 0)
  (-0.248736 -0.0154899 0)
  (-0.225745 -0.0229432 0)
  (-0.192589 -0.0288966 0)
  (-0.152957 -0.0322485 0)
  (-0.111224 -0.0324557 0)
  (-0.0716211 -0.0296886 0)
  (-0.0393385 -0.0251126 0)
  (-0.0283008 -0.0205694 0)
  (-0.00621337 0.00890504 0)
  (-0.0291196 -0.0166811 0)
  (-0.00746298 -0.0265241 0)
  (0.0161138 -0.0204637 0)
  (0.0316343 -0.0140572 0)
  (0.0443888 -0.00912957 0)
  (0.0524429 -0.00531676 0)
  (0.0566383 -0.00331485 0)
  (0.0585329 -0.00251266 0)
  (0.0594719 -0.0021668 0)
  (0.0600556 -0.00195157 0)
  (0.0603843 -0.00177712 0)
  (0.0604001 -0.00156628 0)
  (0.0599186 -0.00115325 0)
  (0.0584171 -0.000173209 0)
  (0.0547712 0.00187884 0)
  (0.0477533 0.00404855 0)
  (0.0414683 0.00577213 0)
  (-0.0134947 0.0202985 0)
  (0.209053 0.17592 0)
  (-0.156282 0.0673239 0)
  (-0.154642 0.0530246 0)
  (-0.186819 0.0412582 0)
  (-0.209168 0.0279011 0)
  (-0.22236 0.0128363 0)
  (-0.224678 -0.00426514 0)
  (-0.214646 -0.0228423 0)
  (-0.193432 -0.0403251 0)
  (-0.163304 -0.0536166 0)
  (-0.128093 -0.0605799 0)
  (-0.0918731 -0.0605492 0)
  (-0.0582165 -0.0541298 0)
  (-0.0305961 -0.0429458 0)
  (-0.0130005 -0.0294057 0)
  (0.000901244 -0.0113597 0)
  (-0.000225315 0.0156168 0)
  (0.0613949 0.0363795 0)
  (0.0247437 -0.0179592 0)
  (0.0332892 -0.0313027 0)
  (0.0444362 -0.0279176 0)
  (0.0533919 -0.0201381 0)
  (0.0599909 -0.0126426 0)
  (0.0628627 -0.00539225 0)
  (0.063424 -0.00122773 0)
  (0.0633798 0.000508754 0)
  (0.0634911 0.00127574 0)
  (0.0636976 0.00174614 0)
  (0.0638486 0.00213422 0)
  (0.0639022 0.00260548 0)
  (0.0638149 0.00347132 0)
  (0.0630831 0.00559354 0)
  (0.0594026 0.0114965 0)
  (0.0500552 0.0164097 0)
  (0.0457301 0.0196543 0)
  (-0.0498174 0.0440894 0)
  (0.369357 0.263297 0)
  (-0.173297 0.107301 0)
  (-0.116157 0.0858514 0)
  (-0.147571 0.0648355 0)
  (-0.167517 0.0428232 0)
  (-0.179864 0.0183432 0)
  (-0.181905 -0.00947977 0)
  (-0.171228 -0.0392432 0)
  (-0.150258 -0.0663627 0)
  (-0.122182 -0.0857748 0)
  (-0.0910449 -0.0947584 0)
  (-0.0603753 -0.0931576 0)
  (-0.0324747 -0.0824022 0)
  (-0.00948727 -0.0647437 0)
  (0.00772224 -0.0413256 0)
  (0.018998 -0.0148754 0)
  (0.0233825 0.0223365 0)
  (0.110379 -0.0269777 0)
  (0.0744402 -0.0376743 0)
  (0.0689887 -0.0382725 0)
  (0.0705302 -0.0328667 0)
  (0.0719227 -0.0249404 0)
  (0.07327 -0.0179848 0)
  (0.0720176 -0.0143896 0)
  (0.0673784 -0.0101641 0)
  (0.0640041 -0.00785291 0)
  (0.0624786 -0.0065272 0)
  (0.0618274 -0.00567445 0)
  (0.0614966 -0.00508325 0)
  (0.0614736 -0.00456301 0)
  (0.0621943 -0.00374747 0)
  (0.0647645 -0.000693206 0)
  (0.0627549 0.0160794 0)
  (0.0497299 0.0277218 0)
  (0.0521355 0.0355355 0)
  (-0.0817853 0.0688473 0)
  (0.514045 0.333603 0)
  (-0.208197 0.142781 0)
  (-0.0752593 0.113834 0)
  (-0.105402 0.0849607 0)
  (-0.119911 0.056749 0)
  (-0.129096 0.0246484 0)
  (-0.128258 -0.0137282 0)
  (-0.114533 -0.0552826 0)
  (-0.0931276 -0.0913232 0)
  (-0.068052 -0.115214 0)
  (-0.0427696 -0.124697 0)
  (-0.01974 -0.120924 0)
  (0.000776189 -0.106085 0)
  (0.017717 -0.0835219 0)
  (0.0320474 -0.0568086 0)
  (0.0473396 -0.0277861 0)
  (0.068991 0.0039407 0)
  (0.0997026 0.0157718 0)
  (0.104983 -0.023038 0)
  (0.0914038 -0.033551 0)
  (0.0825278 -0.0327425 0)
  (0.0775567 -0.0286005 0)
  (0.0738562 -0.0225442 0)
  (0.0714035 -0.0148534 0)
  (0.0727268 -0.00902899 0)
  (0.0777211 -0.00679412 0)
  (0.0819809 -0.00555492 0)
  (0.0848314 -0.0046699 0)
  (0.0865941 -0.00367024 0)
  (0.0868193 -0.00226431 0)
  (0.084375 -0.000196271 0)
  (0.0780068 0.00283739 0)
  (0.0652237 0.00736527 0)
  (0.0528943 0.0266293 0)
  (0.0406839 0.0429057 0)
  (0.056273 0.0557605 0)
  (-0.115225 0.0910646 0)
  (0.639296 0.388077 0)
  (-0.250853 0.171782 0)
  (-0.0345144 0.130019 0)
  (-0.0612403 0.0965155 0)
  (-0.0677128 0.0648779 0)
  (-0.0709337 0.027769 0)
  (-0.0614972 -0.020175 0)
  (-0.0424837 -0.0726733 0)
  (-0.0219688 -0.114101 0)
  (-0.0027036 -0.138679 0)
  (0.0136907 -0.145662 0)
  (0.0262029 -0.138249 0)
  (0.0360348 -0.12069 0)
  (0.043951 -0.0965051 0)
  (0.0512544 -0.0691916 0)
  (0.0599248 -0.0425376 0)
  (0.0726961 -0.0228027 0)
  (0.0834177 -0.0216189 0)
  (0.0846198 -0.0292221 0)
  (0.0783137 -0.0299445 0)
  (0.0701886 -0.0269645 0)
  (0.0635238 -0.0230544 0)
  (0.058514 -0.0184636 0)
  (0.0555079 -0.0130929 0)
  (0.0553701 -0.00737979 0)
  (0.0577715 -0.00460521 0)
  (0.0605444 -0.00359843 0)
  (0.0631876 -0.00280668 0)
  (0.0656031 -0.00120255 0)
  (0.0674441 0.0018189 0)
  (0.0674685 0.00636083 0)
  (0.0650662 0.0125783 0)
  (0.0596459 0.0211054 0)
  (0.0527214 0.0362783 0)
  (0.0425215 0.0542652 0)
  (0.064639 0.0743444 0)
  (-0.0216694 0.103307 0)
  (0.0462491 0.0320749 0)
  (-0.0622119 -0.0345638 0)
  (-0.27264 -0.0572339 0)
  (0.730382 0.433517 0)
  (-0.292465 0.191337 0)
  (-0.00330199 0.126624 0)
  (-0.0161725 0.0978148 0)
  (-0.0120969 0.0673383 0)
  (-0.00680283 0.0250646 0)
  (0.0213079 -0.0369757 0)
  (0.0431846 -0.0929495 0)
  (0.0588067 -0.131544 0)
  (0.0683529 -0.151368 0)
  (0.0724527 -0.154314 0)
  (0.0724742 -0.143896 0)
  (0.0699212 -0.124135 0)
  (0.066277 -0.0990107 0)
  (0.0630322 -0.0721984 0)
  (0.0616036 -0.0473619 0)
  (0.0628595 -0.0287748 0)
  (0.0637088 -0.0212689 0)
  (0.0604789 -0.0207548 0)
  (0.053537 -0.0207565 0)
  (0.0456856 -0.0192584 0)
  (0.0391327 -0.0169634 0)
  (0.0344085 -0.0142237 0)
  (0.0317963 -0.0110968 0)
  (0.0315411 -0.00819572 0)
  (0.0332742 -0.00707807 0)
  (0.0359497 -0.00694599 0)
  (0.0391163 -0.0065621 0)
  (0.0425902 -0.00491669 0)
  (0.046107 -0.00112074 0)
  (0.0493195 0.00516332 0)
  (0.0509974 0.0135689 0)
  (0.0514069 0.0242371 0)
  (0.0519068 0.0386731 0)
  (0.050672 0.0564072 0)
  (0.073137 0.079156 0)
  (0.0525921 0.0969881 0)
  (0.0932823 0.0678573 0)
  (0.116211 0.0446012 0)
  (-0.129257 -0.00721911 0)
  (0.782232 0.47482 0)
  (-0.313419 0.176848 0)
  (0.0234513 0.0772444 0)
  (0.0423144 0.0743013 0)
  (0.0572581 0.0531499 0)
  (0.0828249 0.00278658 0)
  (0.117306 -0.0613856 0)
  (0.136847 -0.110537 0)
  (0.143498 -0.140485 0)
  (0.139965 -0.15256 0)
  (0.12896 -0.149674 0)
  (0.113384 -0.135538 0)
  (0.0957987 -0.113987 0)
  (0.0784322 -0.0889349 0)
  (0.0629803 -0.0636217 0)
  (0.0506974 -0.0411486 0)
  (0.04204 -0.0246416 0)
  (0.0355091 -0.0162394 0)
  (0.0289494 -0.0137843 0)
  (0.0218673 -0.0133487 0)
  (0.0151892 -0.012761 0)
  (0.00983896 -0.0118991 0)
  (0.00612163 -0.0109025 0)
  (0.00420035 -0.00983792 0)
  (0.00414278 -0.0091144 0)
  (0.0055786 -0.00933673 0)
  (0.00786802 -0.00999317 0)
  (0.0107406 -0.0102243 0)
  (0.0142327 -0.00915687 0)
  (0.0184716 -0.00577539 0)
  (0.0243845 0.00095209 0)
  (0.0304341 0.0101929 0)
  (0.0361139 0.0210196 0)
  (0.0432645 0.0339161 0)
  (0.0510204 0.0485872 0)
  (0.0730801 0.0670162 0)
  (0.0862233 0.0746765 0)
  (0.118485 0.0520801 0)
  (0.158196 0.0439932 0)
  (-0.035338 0.0940633 0)
  (0.88686 0.477597 0)
  (-0.0710002 0.156518 0)
  (0.105868 0.00410716 0)
  (0.168762 -0.0156296 0)
  (0.181388 -0.0337483 0)
  (0.216475 -0.0679506 0)
  (0.238575 -0.100963 0)
  (0.241466 -0.124727 0)
  (0.227838 -0.136672 0)
  (0.202618 -0.136959 0)
  (0.170634 -0.127309 0)
  (0.136114 -0.110346 0)
  (0.102086 -0.0886986 0)
  (0.0710333 -0.0656483 0)
  (0.044441 -0.0436654 0)
  (0.0236677 -0.0253028 0)
  (0.00919068 -0.0131176 0)
  (-0.00028866 -0.00762225 0)
  (-0.00700101 -0.00660476 0)
  (-0.012594 -0.00708683 0)
  (-0.0173647 -0.00767085 0)
  (-0.0211465 -0.008165 0)
  (-0.0238692 -0.008622 0)
  (-0.0254921 -0.0091312 0)
  (-0.0260681 -0.00989107 0)
  (-0.0259027 -0.0110351 0)
  (-0.025371 -0.012291 0)
  (-0.024598 -0.0132169 0)
  (-0.0234368 -0.0133194 0)
  (-0.021504 -0.0120133 0)
  (-0.0178421 -0.0085442 0)
  (-0.00906739 -0.0021413 0)
  (-0.000132116 0.0063176 0)
  (0.0105414 0.0147367 0)
  (0.0222873 0.0218991 0)
  (0.0421054 0.0292679 0)
  (0.0606911 0.0223012 0)
  (0.0801841 -0.00522728 0)
  (0.139375 0.0403213 0)
  (-0.414459 0.207072 0)
  (1.03186 0.430063 0)
  (0.496907 0.285165 0)
  (0.503068 0.191792 0)
  (0.511137 0.120697 0)
  (0.485798 0.0693886 0)
  (0.443602 0.0162965 0)
  (0.394023 -0.0320621 0)
  (0.340881 -0.0666029 0)
  (0.283927 -0.0846443 0)
  (0.225548 -0.088097 0)
  (0.168992 -0.0809478 0)
  (0.11707 -0.0672406 0)
  (0.0707544 -0.049636 0)
  (0.0319607 -0.0316099 0)
  (0.000319161 -0.0154106 0)
  (-0.0207747 -0.00516893 0)
  (-0.0320948 -0.0012718 0)
  (-0.038399 -0.000692085 0)
  (-0.0425271 -0.00161829 0)
  (-0.0461066 -0.00294256 0)
  (-0.0493674 -0.00425263 0)
  (-0.0523217 -0.00548831 0)
  (-0.0549528 -0.00668057 0)
  (-0.0572879 -0.00787604 0)
  (-0.0594519 -0.00913265 0)
  (-0.0617157 -0.0104219 0)
  (-0.0644119 -0.0115265 0)
  (-0.067844 -0.0120749 0)
  (-0.0723446 -0.011542 0)
  (-0.078381 -0.00923002 0)
  (-0.0865623 -0.00431172 0)
  (-0.0969696 0.00384354 0)
  (-0.107563 0.0147425 0)
  (-0.122887 0.0285464 0)
  (-0.147045 0.0452976 0)
  (-0.182563 0.0637828 0)
  (-0.232723 0.0799202 0)
  (-0.289798 0.0910862 0)
  (-0.358465 0.0972767 0)
  (-0.620806 0.0991662 0)
  (-0.148972 0.0835578 0)
  (0.135375 0.0633191 0)
  (0.219018 0.00800941 0)
  (0.202579 -0.027396 0)
  (0.187035 -0.0423411 0)
  (0.164748 -0.0475813 0)
  (0.132476 -0.0463605 0)
  (0.0940323 -0.0402375 0)
  (0.0541287 -0.030683 0)
  (0.0162767 -0.0186523 0)
  (-0.0214266 -0.0046505 0)
  (-0.0455846 0.00325031 0)
  (-0.0604643 0.00682193 0)
  (-0.0678295 0.00735227 0)
  (-0.0713672 0.00657908 0)
  (-0.0736903 0.00556959 0)
  (-0.075662 0.00454474 0)
  (-0.0776356 0.00355994 0)
  (-0.0799156 0.00255837 0)
  (-0.0825219 0.00144937 0)
  (-0.0853872 0.0002928 0)
  (-0.0885438 -0.000838236 0)
  (-0.0920678 -0.00186008 0)
  (-0.0960551 -0.00261837 0)
  (-0.100588 -0.00287459 0)
  (-0.105672 -0.00231955 0)
  (-0.111212 -0.000598073 0)
  (-0.116984 0.00265393 0)
  (-0.122385 0.00786823 0)
  (-0.126599 0.0157788 0)
  (-0.130085 0.0275142 0)
  (-0.133097 0.0434605 0)
  (-0.136451 0.0627169 0)
  (-0.14066 0.0815949 0)
  (-0.142526 0.0901691 0)
  (-0.125184 0.0675713 0)
  (-0.0813518 -0.0258628 0)
  (-0.279156 -0.203906 0)
  (-0.0247079 0.231617 0)
  (0.0637303 0.10071 0)
  (0.0383591 0.0200936 0)
  (0.0262366 -0.00360933 0)
  (0.0176473 -0.00940495 0)
  (-0.000370052 -0.0113024 0)
  (-0.025203 -0.0089841 0)
  (-0.0511173 -0.00434366 0)
  (-0.0733037 0.000247788 0)
  (-0.0888004 0.0033842 0)
  (-0.0965368 0.0038037 0)
  (-0.099304 0.00161247 0)
  (-0.0998495 -0.00135238 0)
  (-0.0993801 -0.00470421 0)
  (-0.0989995 -0.00811138 0)
  (-0.0991267 -0.0112883 0)
  (-0.099779 -0.0141022 0)
  (-0.100862 -0.016363 0)
  (-0.102249 -0.0179485 0)
  (-0.103891 -0.0188805 0)
  (-0.105836 -0.0192648 0)
  (-0.108059 -0.0191245 0)
  (-0.110561 -0.0187284 0)
  (-0.113307 -0.018056 0)
  (-0.116176 -0.0169851 0)
  (-0.118934 -0.0152796 0)
  (-0.121214 -0.0125625 0)
  (-0.122506 -0.00826487 0)
  (-0.122266 -0.00215 0)
  (-0.119517 0.00632785 0)
  (-0.112811 0.0180424 0)
  (-0.100864 0.0337519 0)
  (-0.0834 0.0530152 0)
  (-0.0613185 0.0717095 0)
  (-0.0374906 0.0826696 0)
  (0.00260127 0.0669772 0)
  (0.143523 -0.00431381 0)
  (-0.207513 -0.114618 0)
  (-0.104641 -0.349185 0)
  (-0.439635 -0.120162 0)
  (-0.311004 0.0963342 0)
  (-0.225728 -0.0202447 0)
  (-0.178859 -0.0422125 0)
  (-0.163963 -0.0303945 0)
  (-0.16144 -0.0174824 0)
  (-0.162845 -0.00710062 0)
  (-0.163696 0.00164796 0)
  (-0.161599 0.00921538 0)
  (-0.157086 0.0161236 0)
  (-0.150213 0.0224079 0)
  (-0.141889 0.0278094 0)
  (-0.133556 0.0322947 0)
  (-0.126108 0.0364426 0)
  (-0.119881 0.040449 0)
  (-0.114904 0.0443734 0)
  (-0.111012 0.0480094 0)
  (-0.10806 0.0509939 0)
  (-0.105949 0.0530192 0)
  (-0.104592 0.0539387 0)
  (-0.103909 0.0537866 0)
  (-0.103837 0.0527059 0)
  (-0.104305 0.05083 0)
  (-0.105231 0.0486403 0)
  (-0.106515 0.0462622 0)
  (-0.107994 0.0437954 0)
  (-0.109402 0.0413229 0)
  (-0.110318 0.0389099 0)
  (-0.110069 0.0366235 0)
  (-0.107411 0.0352778 0)
  (-0.100458 0.0355501 0)
  (-0.0867365 0.0382039 0)
  (-0.0643789 0.0441418 0)
  (-0.0339972 0.0538741 0)
  (0.0145785 0.0670916 0)
  (0.0593781 0.0683589 0)
  (0.102078 0.0535142 0)
  (0.16405 0.0242483 0)
  (-0.218457 -0.0309041 0)
)
;

boundaryField
{
  floor
  {
    type noSlip;
  }
  ceiling
  {
    type noSlip;
  }
  sWall
  {
    type noSlip;
  }
  nWall
  {
    type noSlip;
  }
  sideWalls
  {
    type empty;
  }
  glass1
  {
    type noSlip;
  }
  glass2
  {
    type noSlip;
  }
  sun
  {
    type noSlip;
  }
  heatsource1
  {
    type noSlip;
  }
  heatsource2
  {
    type noSlip;
  }
  Table_master
  {
    type noSlip;
  }
  Table_slave
  {
    type noSlip;
  }
  inlet
  {
    type fixedValue;
    value uniform (0.3 0 0);
  }
  outlet
  {
    type zeroGradient;
  }
} 	// ************************************************************************* //

