// -*- C++ -*-
// File generated by PyFoam - sorry for the ugliness

FoamFile
{
 version 2.0;
 format ascii;
 class volVectorField;
 location "700";
 object U;
}

dimensions [ 0 1 -1 0 0 0 0 ];

internalField nonuniform List<vector> 459
(
  (0.0324223 0.0864649 0)
  (-0.168407 0.0259813 0)
  (-0.194057 0.0177328 0)
  (-0.22501 0.0116023 0)
  (-0.246697 0.00486183 0)
  (-0.257843 -0.00231701 0)
  (-0.256572 -0.00996672 0)
  (-0.242118 -0.0180466 0)
  (-0.215417 -0.0255428 0)
  (-0.179096 -0.0310412 0)
  (-0.137473 -0.0334664 0)
  (-0.0953262 -0.0323315 0)
  (-0.0570791 -0.0275964 0)
  (-0.0276717 -0.0200934 0)
  (-0.0223468 -0.0117467 0)
  (-0.00834656 0.00968867 0)
  (-0.0318743 -0.0159163 0)
  (-0.0112211 -0.0261792 0)
  (0.0132478 -0.0211006 0)
  (0.0287887 -0.0147566 0)
  (0.0421838 -0.00973352 0)
  (0.050884 -0.00563458 0)
  (0.0555426 -0.00345474 0)
  (0.0576727 -0.00259076 0)
  (0.0587209 -0.00222648 0)
  (0.0593784 -0.00200106 0)
  (0.0597767 -0.0018199 0)
  (0.0598609 -0.00161193 0)
  (0.0594552 -0.00121252 0)
  (0.0580578 -0.000270573 0)
  (0.0545771 0.00170113 0)
  (0.0478252 0.00380774 0)
  (0.0416965 0.00564379 0)
  (-0.0124932 0.0204813 0)
  (0.205842 0.177126 0)
  (-0.156745 0.0689648 0)
  (-0.156528 0.0534726 0)
  (-0.188676 0.0407196 0)
  (-0.210374 0.0261832 0)
  (-0.22198 0.00972363 0)
  (-0.221506 -0.00883002 0)
  (-0.208204 -0.0283394 0)
  (-0.18369 -0.0456941 0)
  (-0.150993 -0.0577811 0)
  (-0.114416 -0.0627438 0)
  (-0.0781001 -0.0603595 0)
  (-0.0454981 -0.0512211 0)
  (-0.0193741 -0.0370753 0)
  (-0.00342409 -0.0216286 0)
  (0.0090793 -0.00537845 0)
  (0.00666999 0.0163796 0)
  (0.0592813 0.0383103 0)
  (0.0200868 -0.0176818 0)
  (0.0302466 -0.0318284 0)
  (0.0415245 -0.0289727 0)
  (0.0506982 -0.0214069 0)
  (0.0577495 -0.0138957 0)
  (0.0609391 -0.0060926 0)
  (0.0616395 -0.00153213 0)
  (0.0616246 0.000349061 0)
  (0.0617487 0.00116033 0)
  (0.0619711 0.00164959 0)
  (0.0621343 0.00204321 0)
  (0.0622 0.0025142 0)
  (0.0621253 0.00335579 0)
  (0.0614314 0.00539659 0)
  (0.0578935 0.0110541 0)
  (0.0488872 0.0157908 0)
  (0.0450891 0.0191208 0)
  (-0.0499214 0.0442581 0)
  (0.365074 0.265014 0)
  (-0.17245 0.109595 0)
  (-0.117684 0.0864717 0)
  (-0.149028 0.06395 0)
  (-0.168581 0.0400245 0)
  (-0.17948 0.0132415 0)
  (-0.178454 -0.0168632 0)
  (-0.164462 -0.0479315 0)
  (-0.140599 -0.0743934 0)
  (-0.110667 -0.091509 0)
  (-0.0789959 -0.0971867 0)
  (-0.0487464 -0.0921794 0)
  (-0.0219579 -0.0778815 0)
  (0.000124234 -0.0568174 0)
  (0.0156221 -0.0325594 0)
  (0.0254102 -0.0070166 0)
  (0.0283516 0.0290624 0)
  (0.110156 -0.0202623 0)
  (0.0739347 -0.0345458 0)
  (0.0680145 -0.0375513 0)
  (0.0691164 -0.0334626 0)
  (0.0702788 -0.0261728 0)
  (0.0717072 -0.019599 0)
  (0.0705937 -0.015575 0)
  (0.0655166 -0.0108458 0)
  (0.061768 -0.00826806 0)
  (0.0600689 -0.00680165 0)
  (0.0593344 -0.00586424 0)
  (0.0589339 -0.0052229 0)
  (0.0588311 -0.00468595 0)
  (0.0594527 -0.0038744 0)
  (0.0618563 -0.000873179 0)
  (0.0598473 0.0154373 0)
  (0.047184 0.0266448 0)
  (0.0509467 0.0341622 0)
  (-0.0836726 0.068442 0)
  (0.509189 0.335698 0)
  (-0.206071 0.145476 0)
  (-0.076471 0.11473 0)
  (-0.106344 0.0839829 0)
  (-0.120806 0.053112 0)
  (-0.128537 0.017498 0)
  (-0.123685 -0.0243476 0)
  (-0.106737 -0.0673456 0)
  (-0.0833252 -0.101661 0)
  (-0.0573716 -0.121945 0)
  (-0.0326043 -0.126889 0)
  (-0.0104825 -0.119033 0)
  (0.00915442 -0.0999028 0)
  (0.0248901 -0.0750243 0)
  (0.0386918 -0.0471052 0)
  (0.0535973 -0.0182039 0)
  (0.0739283 0.0142056 0)
  (0.103956 0.0236517 0)
  (0.107358 -0.0174562 0)
  (0.0935372 -0.0306381 0)
  (0.0841509 -0.0318055 0)
  (0.0782786 -0.0288099 0)
  (0.0735842 -0.0233664 0)
  (0.0700893 -0.016045 0)
  (0.070561 -0.00956255 0)
  (0.0752192 -0.0069473 0)
  (0.0791063 -0.00552783 0)
  (0.0814636 -0.00458362 0)
  (0.0827831 -0.00359841 0)
  (0.0826989 -0.00224556 0)
  (0.0801729 -0.000255392 0)
  (0.07392 0.00269762 0)
  (0.0613878 0.00714713 0)
  (0.0494393 0.0258384 0)
  (0.0374201 0.0413872 0)
  (0.0550621 0.0534875 0)
  (-0.120516 0.0894063 0)
  (0.634433 0.390346 0)
  (-0.247884 0.174544 0)
  (-0.0354162 0.13119 0)
  (-0.0614588 0.0956129 0)
  (-0.0683257 0.0607244 0)
  (-0.0697081 0.0184707 0)
  (-0.054207 -0.0349209 0)
  (-0.033268 -0.0877049 0)
  (-0.0123674 -0.125568 0)
  (0.00663864 -0.14516 0)
  (0.0213375 -0.146562 0)
  (0.0326531 -0.134966 0)
  (0.0414109 -0.11394 0)
  (0.048703 -0.0873919 0)
  (0.0557318 -0.0590265 0)
  (0.0643354 -0.0326515 0)
  (0.077095 -0.0145837 0)
  (0.0871766 -0.0163577 0)
  (0.087593 -0.0251471 0)
  (0.0809516 -0.0271018 0)
  (0.0723375 -0.0253272 0)
  (0.0648271 -0.0222866 0)
  (0.0587699 -0.018179 0)
  (0.0546139 -0.0129088 0)
  (0.053413 -0.00673163 0)
  (0.0549545 -0.00367804 0)
  (0.0569609 -0.00263261 0)
  (0.0589165 -0.00196772 0)
  (0.0608174 -0.000602685 0)
  (0.0623858 0.00208787 0)
  (0.0624592 0.00629729 0)
  (0.060364 0.0122375 0)
  (0.0554313 0.0204778 0)
  (0.049095 0.0350525 0)
  (0.0392542 0.0522002 0)
  (0.0632891 0.0714959 0)
  (-0.0256454 0.100373 0)
  (0.0465338 0.0299875 0)
  (-0.0613457 -0.0335905 0)
  (-0.272091 -0.0563776 0)
  (0.726167 0.435704 0)
  (-0.289247 0.193802 0)
  (-0.00365462 0.127864 0)
  (-0.0150975 0.0970474 0)
  (-0.0115276 0.0631083 0)
  (-0.000955793 0.0111815 0)
  (0.0321854 -0.0559021 0)
  (0.0531669 -0.108551 0)
  (0.0673304 -0.141878 0)
  (0.0750002 -0.156128 0)
  (0.0772127 -0.153906 0)
  (0.0756609 -0.13931 0)
  (0.0719172 -0.11647 0)
  (0.067678 -0.0894833 0)
  (0.0643437 -0.0619323 0)
  (0.0631868 -0.0375315 0)
  (0.0648455 -0.020408 0)
  (0.0658129 -0.0149933 0)
  (0.0625186 -0.0160099 0)
  (0.0554781 -0.0172898 0)
  (0.0473169 -0.0168715 0)
  (0.0401135 -0.0152931 0)
  (0.0344612 -0.0128885 0)
  (0.0307533 -0.00977451 0)
  (0.0294116 -0.00660915 0)
  (0.0302139 -0.00532783 0)
  (0.0321104 -0.00526448 0)
  (0.0346527 -0.00516415 0)
  (0.037698 -0.00398587 0)
  (0.0410659 -0.000804588 0)
  (0.0444233 0.00485928 0)
  (0.0465603 0.0127901 0)
  (0.0475977 0.0230202 0)
  (0.0488338 0.0368121 0)
  (0.0482708 0.053652 0)
  (0.0721079 0.0757579 0)
  (0.0513381 0.0932648 0)
  (0.093288 0.0655455 0)
  (0.115917 0.0436858 0)
  (-0.127849 -0.00629233 0)
  (0.780319 0.476876 0)
  (-0.310181 0.178764 0)
  (0.0246039 0.0775335 0)
  (0.0455968 0.0712981 0)
  (0.0627485 0.0442343 0)
  (0.100272 -0.0173101 0)
  (0.130882 -0.0799297 0)
  (0.146848 -0.124128 0)
  (0.15009 -0.148314 0)
  (0.143355 -0.154862 0)
  (0.129682 -0.147193 0)
  (0.112086 -0.129301 0)
  (0.093226 -0.105349 0)
  (0.0754252 -0.079125 0)
  (0.0602001 -0.0535227 0)
  (0.0486603 -0.0318122 0)
  (0.041012 -0.0168827 0)
  (0.035413 -0.0103337 0)
  (0.0295247 -0.00933214 0)
  (0.0227788 -0.00992507 0)
  (0.0160515 -0.0100431 0)
  (0.0102538 -0.00955801 0)
  (0.00579512 -0.00865822 0)
  (0.00299195 -0.0075023 0)
  (0.0020897 -0.00659856 0)
  (0.00283833 -0.00678308 0)
  (0.00459352 -0.00764471 0)
  (0.00705687 -0.00831572 0)
  (0.0102569 -0.00791294 0)
  (0.014354 -0.0054286 0)
  (0.0201956 0.000252112 0)
  (0.0268563 0.00886788 0)
  (0.0333258 0.0191487 0)
  (0.0413056 0.0312841 0)
  (0.0500298 0.0449483 0)
  (0.0731938 0.0626456 0)
  (0.0872197 0.0701614 0)
  (0.119541 0.0493585 0)
  (0.158552 0.0425913 0)
  (-0.0340537 0.0922994 0)
  (0.885782 0.478488 0)
  (-0.0665645 0.15783 0)
  (0.108996 0.00217356 0)
  (0.1742 -0.0254222 0)
  (0.200089 -0.0488672 0)
  (0.233841 -0.0827779 0)
  (0.250375 -0.113081 0)
  (0.247713 -0.13269 0)
  (0.229227 -0.139926 0)
  (0.200016 -0.135736 0)
  (0.165159 -0.122359 0)
  (0.128686 -0.102449 0)
  (0.0937307 -0.0792586 0)
  (0.0628049 -0.0558407 0)
  (0.0370239 -0.0341113 0)
  (0.0179623 -0.0171286 0)
  (0.00553121 -0.00688441 0)
  (-0.00211791 -0.00301891 0)
  (-0.00761621 -0.00297513 0)
  (-0.0126212 -0.0039809 0)
  (-0.0172358 -0.00481562 0)
  (-0.0212015 -0.00534703 0)
  (-0.0243048 -0.00571366 0)
  (-0.0263582 -0.00609921 0)
  (-0.0272889 -0.00679143 0)
  (-0.0273591 -0.00803731 0)
  (-0.0269834 -0.00959962 0)
  (-0.0263381 -0.0110207 0)
  (-0.0253076 -0.0117902 0)
  (-0.0235131 -0.0113263 0)
  (-0.0200757 -0.00891309 0)
  (-0.0124201 -0.00379559 0)
  (-0.00170434 0.00365674 0)
  (0.00987017 0.0115972 0)
  (0.0226179 0.017708 0)
  (0.0434572 0.0241289 0)
  (0.0629869 0.018312 0)
  (0.0816501 -0.00288546 0)
  (0.138562 0.048539 0)
  (-0.433625 0.205024 0)
  (1.03224 0.429547 0)
  (0.496849 0.284479 0)
  (0.503791 0.188415 0)
  (0.516344 0.113253 0)
  (0.491521 0.0573629 0)
  (0.444163 0.00213937 0)
  (0.390724 -0.043979 0)
  (0.333967 -0.0737125 0)
  (0.273712 -0.0864148 0)
  (0.212801 -0.0853031 0)
  (0.154941 -0.0748674 0)
  (0.10221 -0.0586253 0)
  (0.0564416 -0.0401252 0)
  (0.0190277 -0.0223169 0)
  (-0.0111995 -0.00705661 0)
  (-0.027884 0.000135884 0)
  (-0.0366296 0.00248775 0)
  (-0.0412012 0.0023453 0)
  (-0.0442065 0.00106929 0)
  (-0.0469106 -0.000387041 0)
  (-0.0496194 -0.00164441 0)
  (-0.0523065 -0.00272997 0)
  (-0.0547962 -0.00378495 0)
  (-0.0570149 -0.00490916 0)
  (-0.0590093 -0.00618953 0)
  (-0.0610579 -0.00763894 0)
  (-0.0635384 -0.00906211 0)
  (-0.0667772 -0.0101072 0)
  (-0.0710877 -0.0102767 0)
  (-0.0768683 -0.00892071 0)
  (-0.0846069 -0.00526573 0)
  (-0.0946756 0.00141832 0)
  (-0.105515 0.0108502 0)
  (-0.119377 0.0229164 0)
  (-0.141258 0.037624 0)
  (-0.173298 0.0543823 0)
  (-0.21929 0.0702326 0)
  (-0.275318 0.0829233 0)
  (-0.350595 0.0908137 0)
  (-0.615593 0.087479 0)
  (-0.13896 0.0775 0)
  (0.130178 0.049289 0)
  (0.208268 -0.0105617 0)
  (0.191649 -0.0402668 0)
  (0.173647 -0.0488783 0)
  (0.148219 -0.048623 0)
  (0.113429 -0.043236 0)
  (0.0738036 -0.0341061 0)
  (0.0343893 -0.022378 0)
  (-0.00562885 -0.00815948 0)
  (-0.0370691 0.00252372 0)
  (-0.0564276 0.00800025 0)
  (-0.0667292 0.00982846 0)
  (-0.0711789 0.00932289 0)
  (-0.0735567 0.00835166 0)
  (-0.0751076 0.0073336 0)
  (-0.0765946 0.006443 0)
  (-0.0782901 0.00581541 0)
  (-0.0801545 0.00538285 0)
  (-0.0821279 0.00494439 0)
  (-0.0842974 0.00433001 0)
  (-0.0867364 0.0034134 0)
  (-0.0894841 0.00230573 0)
  (-0.0926649 0.00120367 0)
  (-0.0963983 0.000386285 0)
  (-0.100712 0.000190328 0)
  (-0.105538 0.000989847 0)
  (-0.110707 0.00314949 0)
  (-0.115752 0.00710496 0)
  (-0.11983 0.0134747 0)
  (-0.123289 0.0233409 0)
  (-0.126062 0.0371937 0)
  (-0.128617 0.054547 0)
  (-0.130708 0.0730627 0)
  (-0.12915 0.0859521 0)
  (-0.111209 0.0789815 0)
  (-0.0683079 0.0249167 0)
  (-0.197562 -0.177044 0)
  (-0.0120097 0.226669 0)
  (0.0609192 0.090947 0)
  (0.0291876 0.0110385 0)
  (0.0167773 -0.010344 0)
  (-2.57099e-05 -0.011009 0)
  (-0.0230664 -0.00872892 0)
  (-0.0487499 -0.00498749 0)
  (-0.0723243 -0.000258453 0)
  (-0.0900094 0.00390195 0)
  (-0.0998784 0.0057727 0)
  (-0.103552 0.00478861 0)
  (-0.104161 0.00235872 0)
  (-0.102973 -0.000548061 0)
  (-0.101328 -0.00384129 0)
  (-0.100064 -0.00714 0)
  (-0.0993969 -0.0104266 0)
  (-0.0993831 -0.0136531 0)
  (-0.0999174 -0.0166441 0)
  (-0.100817 -0.0191839 0)
  (-0.101929 -0.0211019 0)
  (-0.103178 -0.0223152 0)
  (-0.104557 -0.0228023 0)
  (-0.106154 -0.022674 0)
  (-0.107967 -0.0219449 0)
  (-0.109931 -0.0206362 0)
  (-0.111908 -0.0187477 0)
  (-0.113605 -0.0159532 0)
  (-0.114592 -0.0117501 0)
  (-0.114408 -0.00595036 0)
  (-0.112208 0.00184728 0)
  (-0.106722 0.0123144 0)
  (-0.0966635 0.0260595 0)
  (-0.0814467 0.0427803 0)
  (-0.0614203 0.0592113 0)
  (-0.0385451 0.0676548 0)
  (0.0320741 0.0343265 0)
  (0.146927 -0.0419614 0)
  (-0.0490524 -0.0657508 0)
  (-0.100486 -0.347632 0)
  (-0.438985 -0.121601 0)
  (-0.310619 0.0918264 0)
  (-0.233967 -0.0195134 0)
  (-0.190105 -0.0356481 0)
  (-0.178984 -0.022182 0)
  (-0.177127 -0.00965577 0)
  (-0.177412 -0.000519669 0)
  (-0.175764 0.00707779 0)
  (-0.171712 0.0141214 0)
  (-0.165014 0.0206318 0)
  (-0.156273 0.0263413 0)
  (-0.146794 0.0310647 0)
  (-0.137764 0.0352765 0)
  (-0.129753 0.0394055 0)
  (-0.122965 0.0436902 0)
  (-0.117271 0.048256 0)
  (-0.112466 0.0529545 0)
  (-0.108427 0.0574641 0)
  (-0.10508 0.0613752 0)
  (-0.102381 0.0643118 0)
  (-0.100304 0.0660412 0)
  (-0.0988292 0.0664925 0)
  (-0.0979322 0.0657098 0)
  (-0.0975928 0.0638468 0)
  (-0.0977757 0.0610458 0)
  (-0.0983681 0.057604 0)
  (-0.0991405 0.0539321 0)
  (-0.0997414 0.0501386 0)
  (-0.0995789 0.0463351 0)
  (-0.0975696 0.0433024 0)
  (-0.0921012 0.0417049 0)
  (-0.0810246 0.0422385 0)
  (-0.0625294 0.0456715 0)
  (-0.0368247 0.0524382 0)
  (-0.00161629 0.0613653 0)
  (0.0343593 0.0570647 0)
  (0.0896825 0.0216151 0)
  (0.118311 -0.0154882 0)
  (-0.50344 0.0627037 0)
)
;

boundaryField
{
  floor
  {
    type noSlip;
  }
  ceiling
  {
    type noSlip;
  }
  sWall
  {
    type noSlip;
  }
  nWall
  {
    type noSlip;
  }
  sideWalls
  {
    type empty;
  }
  glass1
  {
    type noSlip;
  }
  glass2
  {
    type noSlip;
  }
  sun
  {
    type noSlip;
  }
  heatsource1
  {
    type noSlip;
  }
  heatsource2
  {
    type noSlip;
  }
  Table_master
  {
    type noSlip;
  }
  Table_slave
  {
    type noSlip;
  }
  inlet
  {
    type fixedValue;
    value uniform (0.3 0 0);
  }
  outlet
  {
    type zeroGradient;
  }
} 	// ************************************************************************* //

