// -*- C++ -*-
// File generated by PyFoam - sorry for the ugliness

FoamFile
{
 version 2.0;
 format ascii;
 class volScalarField;
 location "1100";
 object T;
}

dimensions [ 0 0 0 1 0 0 0 ];

internalField nonuniform List<scalar> 459
(
  303.384
  303.12
  303.107
  303.104
  303.1
  303.096
  303.091
  303.086
  303.077
  303.065
  303.053
  303.043
  303.036
  303.035
  303.042
  303.128
  303.109
  303.101
  303.103
  303.106
  303.11
  303.114
  303.118
  303.122
  303.126
  303.13
  303.134
  303.138
  303.142
  303.146
  303.15
  303.154
  303.16
  303.179
  303.562
  303.162
  303.139
  303.142
  303.145
  303.146
  303.144
  303.136
  303.12
  303.095
  303.067
  303.044
  303.028
  303.021
  303.02
  303.018
  303.014
  303.131
  303.093
  303.086
  303.088
  303.092
  303.097
  303.099
  303.1
  303.102
  303.103
  303.104
  303.105
  303.106
  303.108
  303.11
  303.114
  303.12
  303.129
  303.162
  303.749
  303.213
  303.176
  303.187
  303.202
  303.213
  303.218
  303.211
  303.184
  303.14
  303.091
  303.051
  303.026
  303.016
  303.015
  303.016
  303.016
  303.083
  303.076
  303.078
  303.086
  303.095
  303.103
  303.103
  303.103
  303.103
  303.103
  303.103
  303.103
  303.103
  303.103
  303.104
  303.107
  303.111
  303.12
  303.155
  303.937
  303.275
  303.212
  303.232
  303.262
  303.29
  303.309
  303.304
  303.261
  303.19
  303.114
  303.056
  303.022
  303.01
  303.011
  303.017
  303.021
  303.031
  303.043
  303.06
  303.079
  303.097
  303.113
  303.125
  303.136
  303.145
  303.153
  303.16
  303.166
  303.17
  303.174
  303.177
  303.178
  303.156
  303.137
  303.128
  303.155
  304.121
  303.353
  303.252
  303.268
  303.31
  303.359
  303.4
  303.394
  303.329
  303.228
  303.125
  303.053
  303.014
  303.002
  303.008
  303.02
  303.033
  303.048
  303.066
  303.088
  303.11
  303.131
  303.15
  303.165
  303.179
  303.191
  303.201
  303.208
  303.214
  303.216
  303.216
  303.212
  303.205
  303.187
  303.162
  303.141
  303.152
  303.228
  303.273
  303.279
  304.287
  303.453
  303.317
  303.309
  303.349
  303.411
  303.473
  303.45
  303.357
  303.234
  303.118
  303.037
  302.996
  302.991
  303.006
  303.03
  303.054
  303.078
  303.103
  303.129
  303.154
  303.177
  303.196
  303.211
  303.225
  303.236
  303.245
  303.251
  303.255
  303.255
  303.25
  303.241
  303.23
  303.211
  303.186
  303.16
  303.155
  303.187
  303.204
  303.239
  304.435
  303.614
  303.47
  303.435
  303.453
  303.51
  303.536
  303.47
  303.339
  303.19
  303.066
  302.99
  302.965
  302.977
  303.012
  303.053
  303.091
  303.125
  303.156
  303.183
  303.208
  303.228
  303.245
  303.259
  303.27
  303.279
  303.285
  303.289
  303.29
  303.288
  303.28
  303.268
  303.252
  303.233
  303.21
  303.185
  303.172
  303.18
  303.189
  303.219
  304.653
  304.037
  303.873
  303.771
  303.723
  303.704
  303.603
  303.427
  303.228
  303.058
  302.95
  302.91
  302.926
  302.975
  303.039
  303.101
  303.152
  303.19
  303.22
  303.243
  303.263
  303.279
  303.291
  303.302
  303.309
  303.315
  303.319
  303.32
  303.319
  303.315
  303.307
  303.295
  303.279
  303.262
  303.244
  303.226
  303.218
  303.229
  303.248
  303.381
  304.964
  304.676
  304.41
  304.18
  303.992
  303.764
  303.43
  303.111
  302.885
  302.775
  302.764
  302.822
  302.918
  303.018
  303.114
  303.187
  303.23
  303.258
  303.279
  303.296
  303.31
  303.322
  303.331
  303.337
  303.342
  303.344
  303.345
  303.345
  303.343
  303.341
  303.339
  303.339
  303.341
  303.347
  303.36
  303.382
  303.413
  303.446
  303.471
  303.533
  297.021
  299.135
  300.244
  300.706
  301.154
  301.599
  302.01
  302.359
  302.639
  302.866
  303.059
  303.166
  303.231
  303.271
  303.297
  303.315
  303.329
  303.34
  303.349
  303.356
  303.361
  303.365
  303.368
  303.369
  303.37
  303.371
  303.372
  303.373
  303.375
  303.377
  303.381
  303.388
  303.4
  303.418
  303.44
  303.462
  303.482
  303.522
  297.456
  299.325
  300.267
  300.972
  301.575
  302.111
  302.518
  302.802
  302.999
  303.133
  303.22
  303.273
  303.306
  303.328
  303.344
  303.356
  303.365
  303.372
  303.377
  303.381
  303.383
  303.386
  303.387
  303.389
  303.39
  303.391
  303.392
  303.393
  303.395
  303.397
  303.4
  303.405
  303.414
  303.425
  303.439
  303.456
  303.475
  303.499
  299.531
  299.461
  299.456
  301.237
  302.102
  302.544
  302.794
  302.971
  303.099
  303.188
  303.251
  303.294
  303.323
  303.342
  303.355
  303.364
  303.37
  303.375
  303.379
  303.382
  303.384
  303.386
  303.388
  303.39
  303.392
  303.394
  303.396
  303.397
  303.399
  303.401
  303.402
  303.404
  303.407
  303.41
  303.415
  303.422
  303.431
  303.436
  303.492
  303.581
)
;

boundaryField
{
  floor
  {
    type wallHeatTransfer;
    Tinf uniform 305.2;
    alphaWall uniform 0.24;
    value nonuniform List<scalar> 29
(
  303.264
  303.528
  303.468
  303.433
  303.432
  303.442
  303.456
  303.475
  303.495
  303.516
  303.536
  303.556
  303.574
  303.592
  303.61
  303.627
  303.644
  303.663
  303.677
  303.717
  303.717
  303.618
  303.569
  303.54
  303.264
  303.528
  303.52
  303.339
  303.222
)
;
  }
  ceiling
  {
    type wallHeatTransfer;
    Tinf uniform 303.2;
    alphaWall uniform 0.24;
    value nonuniform List<scalar> 43
(
  299.785
  299.709
  299.698
  301.361
  302.177
  302.592
  302.825
  302.989
  303.108
  303.189
  303.246
  303.284
  303.308
  303.323
  303.333
  303.339
  303.343
  303.347
  303.349
  303.351
  303.353
  303.355
  303.357
  303.359
  303.361
  303.363
  303.366
  303.368
  303.37
  303.373
  303.375
  303.378
  303.381
  303.386
  303.391
  303.399
  303.407
  303.409
  303.457
  303.541
  304.882
  304.617
  297.807
)
;
  }
  sWall
  {
    type wallHeatTransfer;
    Tinf uniform 315.2;
    alphaWall uniform 0.36;
    value uniform 301.11;
  }
  nWall
  {
    type wallHeatTransfer;
    Tinf uniform 307.2;
    alphaWall uniform 0.36;
    value nonuniform List<scalar> 6
(
  304.005
  303.951
  303.877
  304.078
  304.05
  304.118
)
;
  }
  sideWalls
  {
    type empty;
  }
  glass1
  {
    type wallHeatTransfer;
    Tinf uniform 315.2;
    alphaWall uniform 4.3;
    value nonuniform List<scalar> 9
(
  311.494
  310.858
  310.456
  310.149
  309.894
  309.661
  309.48
  309.545
  309.768
)
;
  }
  glass2
  {
    type wallHeatTransfer;
    Tinf uniform 307.2;
    alphaWall uniform 4.3;
    value nonuniform List<scalar> 2
(
  305.765
  305.875
)
;
  }
  sun
  {
    type wallHeatTransfer;
    Tinf uniform 305.2;
    alphaWall uniform 0.24;
    value nonuniform List<scalar> 14
(
  303.578
  303.328
  303.313
  303.303
  303.293
  303.284
  303.275
  303.265
  303.253
  303.242
  303.232
  303.227
  303.229
  303.24
)
;
  }
  heatsource1
  {
    type fixedGradient;
    gradient uniform 0;
  }
  heatsource2
  {
    type fixedGradient;
    gradient uniform 0;
  }
  Table_master
  {
    type zeroGradient;
  }
  Table_slave
  {
    type zeroGradient;
  }
  inlet
  {
    type fixedValue;
    value uniform 293.15;
  }
  outlet
  {
    type zeroGradient;
  }
} 	// ************************************************************************* //

