// -*- C++ -*-
// File generated by PyFoam - sorry for the ugliness

FoamFile
{
 version 2.0;
 format ascii;
 class volVectorField;
 location "1200";
 object U;
}

dimensions [ 0 1 -1 0 0 0 0 ];

internalField nonuniform List<vector> 459
(
  (0.0341036 0.0858982 0)
  (-0.167104 0.0255128 0)
  (-0.191909 0.0178657 0)
  (-0.222944 0.0121579 0)
  (-0.245405 0.00586586 0)
  (-0.258202 -0.000826662 0)
  (-0.259645 -0.00798998 0)
  (-0.248458 -0.0156505 0)
  (-0.225232 -0.0231134 0)
  (-0.191862 -0.0290475 0)
  (-0.152077 -0.0323488 0)
  (-0.110283 -0.0324778 0)
  (-0.0707308 -0.0295896 0)
  (-0.0385917 -0.0248219 0)
  (-0.0277342 -0.0200138 0)
  (-0.00652637 0.00893176 0)
  (-0.0291563 -0.0166606 0)
  (-0.00748099 -0.0265902 0)
  (0.0162034 -0.0205965 0)
  (0.0318464 -0.0141935 0)
  (0.0447327 -0.00924541 0)
  (0.0528919 -0.00539105 0)
  (0.0571539 -0.00336296 0)
  (0.0590833 -0.00255039 0)
  (0.0600427 -0.00220006 0)
  (0.0606429 -0.00198127 0)
  (0.0609859 -0.001803 0)
  (0.0610117 -0.00158788 0)
  (0.0605331 -0.00116815 0)
  (0.0590216 -0.0001768 0)
  (0.0553414 0.00189642 0)
  (0.0482479 0.00411273 0)
  (0.0416727 0.00594301 0)
  (-0.0127933 0.0204262 0)
  (0.208613 0.175987 0)
  (-0.156251 0.0674801 0)
  (-0.15476 0.0530856 0)
  (-0.186934 0.0412445 0)
  (-0.209243 0.0278075 0)
  (-0.222341 0.0126543 0)
  (-0.224494 -0.00453819 0)
  (-0.214264 -0.0231807 0)
  (-0.192841 -0.0406723 0)
  (-0.162538 -0.0539101 0)
  (-0.127219 -0.0607641 0)
  (-0.0909643 -0.0605982 0)
  (-0.0573432 -0.0540126 0)
  (-0.0297842 -0.0426308 0)
  (-0.0122626 -0.0289391 0)
  (0.0016271 -0.0109082 0)
  (0.000257562 0.015715 0)
  (0.0605809 0.0364728 0)
  (0.0246886 -0.0181436 0)
  (0.0333535 -0.0315 0)
  (0.0445599 -0.0281334 0)
  (0.0536011 -0.0203542 0)
  (0.0602886 -0.0128326 0)
  (0.0632176 -0.00548808 0)
  (0.0637941 -0.00126334 0)
  (0.0637482 0.00049413 0)
  (0.0638592 0.00126671 0)
  (0.064068 0.00173925 0)
  (0.064221 0.00212917 0)
  (0.0642757 0.00260519 0)
  (0.0641866 0.00348079 0)
  (0.0634485 0.00562343 0)
  (0.0597474 0.0115678 0)
  (0.0503585 0.0165658 0)
  (0.0457156 0.0199797 0)
  (-0.0488644 0.0442983 0)
  (0.368795 0.263374 0)
  (-0.173127 0.10749 0)
  (-0.116205 0.0859144 0)
  (-0.147585 0.0647925 0)
  (-0.167488 0.0426573 0)
  (-0.179737 0.0180379 0)
  (-0.181594 -0.00992233 0)
  (-0.170714 -0.0397757 0)
  (-0.149559 -0.0668805 0)
  (-0.121352 -0.0861833 0)
  (-0.0901662 -0.0949801 0)
  (-0.0595042 -0.0931815 0)
  (-0.031653 -0.0822049 0)
  (-0.00870054 -0.0643066 0)
  (0.00839146 -0.0407891 0)
  (0.0195825 -0.0143126 0)
  (0.0237778 0.0230364 0)
  (0.110082 -0.0268075 0)
  (0.0745332 -0.0377654 0)
  (0.0691677 -0.0384958 0)
  (0.070722 -0.0331336 0)
  (0.0721329 -0.0252141 0)
  (0.0735158 -0.0182614 0)
  (0.0723012 -0.0145804 0)
  (0.0675907 -0.0102764 0)
  (0.0641509 -0.00792318 0)
  (0.0625929 -0.00657393 0)
  (0.0619248 -0.00570536 0)
  (0.0615807 -0.00510223 0)
  (0.0615469 -0.00457177 0)
  (0.0622657 -0.00374186 0)
  (0.0648553 -0.000660593 0)
  (0.0628613 0.016169 0)
  (0.0498609 0.0279169 0)
  (0.0519181 0.0359407 0)
  (-0.080701 0.0691563 0)
  (0.513422 0.333673 0)
  (-0.207918 0.142963 0)
  (-0.075262 0.113883 0)
  (-0.105328 0.0848826 0)
  (-0.119793 0.0565088 0)
  (-0.128862 0.0242084 0)
  (-0.127774 -0.0143648 0)
  (-0.113843 -0.0560215 0)
  (-0.0923021 -0.0919914 0)
  (-0.0671527 -0.115702 0)
  (-0.0419026 -0.124917 0)
  (-0.0189214 -0.120907 0)
  (0.00155565 -0.105793 0)
  (0.0184154 -0.083069 0)
  (0.0327279 -0.0562305 0)
  (0.0480399 -0.0271311 0)
  (0.0696724 0.00477198 0)
  (0.100513 0.0160541 0)
  (0.105681 -0.0228834 0)
  (0.0920337 -0.0336037 0)
  (0.0830383 -0.0329289 0)
  (0.0779304 -0.0288269 0)
  (0.0740992 -0.0227688 0)
  (0.0715086 -0.0150661 0)
  (0.0727154 -0.00911513 0)
  (0.0776711 -0.00681278 0)
  (0.0818804 -0.0055384 0)
  (0.0846559 -0.00463782 0)
  (0.0863443 -0.00363493 0)
  (0.086508 -0.0022332 0)
  (0.0840349 -0.000176218 0)
  (0.0776682 0.00284309 0)
  (0.0648887 0.00735646 0)
  (0.0526789 0.0266955 0)
  (0.0406361 0.0430562 0)
  (0.0559401 0.0560803 0)
  (-0.11377 0.0914656 0)
  (0.638649 0.388124 0)
  (-0.250516 0.171924 0)
  (-0.0345025 0.130037 0)
  (-0.0611021 0.096395 0)
  (-0.0675375 0.0645692 0)
  (-0.0706045 0.0271858 0)
  (-0.0607706 -0.02106 0)
  (-0.0416103 -0.0736044 0)
  (-0.0210507 -0.114851 0)
  (-0.00177715 -0.139168 0)
  (0.0144843 -0.145794 0)
  (0.0269215 -0.13814 0)
  (0.0366801 -0.120368 0)
  (0.0445548 -0.0960216 0)
  (0.0518499 -0.068609 0)
  (0.0605505 -0.0419205 0)
  (0.0733987 -0.0222629 0)
  (0.0841384 -0.0213529 0)
  (0.0852762 -0.0290906 0)
  (0.0788778 -0.0299226 0)
  (0.0706399 -0.0270151 0)
  (0.0638424 -0.023131 0)
  (0.0586932 -0.0185329 0)
  (0.0555468 -0.0131232 0)
  (0.0552884 -0.00731503 0)
  (0.0576027 -0.00449019 0)
  (0.0602961 -0.00347065 0)
  (0.0628606 -0.0026866 0)
  (0.0652064 -0.00110398 0)
  (0.0669893 0.00187778 0)
  (0.0669891 0.00637232 0)
  (0.0645972 0.0125443 0)
  (0.059212 0.0210365 0)
  (0.0523616 0.0362265 0)
  (0.0423337 0.0542782 0)
  (0.0643351 0.0744589 0)
  (-0.0210616 0.103645 0)
  (0.0463531 0.0325848 0)
  (-0.0619906 -0.0344822 0)
  (-0.272298 -0.0571187 0)
  (0.729743 0.433526 0)
  (-0.292103 0.19142 0)
  (-0.00329609 0.126592 0)
  (-0.0159729 0.0976335 0)
  (-0.011843 0.0669815 0)
  (-0.00622944 0.0241667 0)
  (0.0222991 -0.0381704 0)
  (0.0441549 -0.0939381 0)
  (0.059717 -0.132226 0)
  (0.0691519 -0.151724 0)
  (0.0731225 -0.154359 0)
  (0.0730315 -0.143693 0)
  (0.0703836 -0.123744 0)
  (0.0666831 -0.0984964 0)
  (0.0634215 -0.0716184 0)
  (0.0620149 -0.04678 0)
  (0.0633212 -0.028268 0)
  (0.0641864 -0.0209286 0)
  (0.0609185 -0.0205478 0)
  (0.0539097 -0.0206377 0)
  (0.045975 -0.0191934 0)
  (0.0393234 -0.0169182 0)
  (0.0344928 -0.0141695 0)
  (0.0317742 -0.0110084 0)
  (0.0314264 -0.00805057 0)
  (0.03309 -0.0068955 0)
  (0.0357086 -0.00675239 0)
  (0.0388236 -0.00637776 0)
  (0.0422486 -0.00475908 0)
  (0.0457272 -0.00101194 0)
  (0.0488841 0.0051953 0)
  (0.0505409 0.0135189 0)
  (0.0509569 0.0241227 0)
  (0.0514867 0.0385393 0)
  (0.0503572 0.0563034 0)
  (0.0727864 0.0790986 0)
  (0.052589 0.0971202 0)
  (0.0931914 0.0679884 0)
  (0.11608 0.0446671 0)
  (-0.128964 -0.00708705 0)
  (0.781739 0.474792 0)
  (-0.313035 0.176876 0)
  (0.0235161 0.0771043 0)
  (0.0426361 0.0738649 0)
  (0.0577923 0.0524141 0)
  (0.0842823 0.00145623 0)
  (0.11848 -0.0625938 0)
  (0.137833 -0.111441 0)
  (0.144304 -0.141031 0)
  (0.140574 -0.152762 0)
  (0.129382 -0.149576 0)
  (0.113648 -0.135206 0)
  (0.0959445 -0.113506 0)
  (0.0785124 -0.088377 0)
  (0.0630407 -0.0630338 0)
  (0.0507784 -0.0405905 0)
  (0.0421695 -0.0241704 0)
  (0.0356769 -0.0158974 0)
  (0.029127 -0.0135511 0)
  (0.0220301 -0.0131824 0)
  (0.0153193 -0.0126309 0)
  (0.00992104 -0.0117798 0)
  (0.00614806 -0.0107717 0)
  (0.00417188 -0.009677 0)
  (0.00407066 -0.00891234 0)
  (0.00547965 -0.00910658 0)
  (0.00775169 -0.00975572 0)
  (0.0106081 -0.0099964 0)
  (0.0140789 -0.0089529 0)
  (0.0182869 -0.00561244 0)
  (0.0241505 0.00104327 0)
  (0.0301206 0.0101777 0)
  (0.0357508 0.0209159 0)
  (0.042875 0.0337679 0)
  (0.0506466 0.0484379 0)
  (0.072685 0.0668798 0)
  (0.0859356 0.074659 0)
  (0.11822 0.0521186 0)
  (0.157903 0.0440618 0)
  (-0.0352986 0.0939808 0)
  (0.886376 0.477464 0)
  (-0.0706202 0.15651 0)
  (0.106047 0.0037949 0)
  (0.169199 -0.0165186 0)
  (0.182205 -0.035216 0)
  (0.217735 -0.0692194 0)
  (0.239601 -0.101945 0)
  (0.2422 -0.125364 0)
  (0.228291 -0.136956 0)
  (0.202804 -0.136928 0)
  (0.170599 -0.127023 0)
  (0.135906 -0.109865 0)
  (0.101765 -0.0881184 0)
  (0.0706652 -0.065042 0)
  (0.0440745 -0.0430653 0)
  (0.0233598 -0.0247773 0)
  (0.00898219 -0.012715 0)
  (-0.000393605 -0.00734457 0)
  (-0.00703145 -0.00640929 0)
  (-0.0125875 -0.00693364 0)
  (-0.0173413 -0.00753593 0)
  (-0.0211209 -0.00803006 0)
  (-0.0238477 -0.00847115 0)
  (-0.0254729 -0.00895278 0)
  (-0.0260428 -0.00968228 0)
  (-0.0258626 -0.0108074 0)
  (-0.025315 -0.0120581 0)
  (-0.0245314 -0.0129886 0)
  (-0.0233681 -0.0131028 0)
  (-0.0214434 -0.0118151 0)
  (-0.0178028 -0.00837472 0)
  (-0.00907838 -0.00203315 0)
  (-0.000314238 0.00632238 0)
  (0.0102956 0.0146836 0)
  (0.0219921 0.0218217 0)
  (0.0417668 0.0291782 0)
  (0.0603942 0.022269 0)
  (0.0799688 -0.0051791 0)
  (0.139024 0.0402679 0)
  (-0.413255 0.206615 0)
  (1.03143 0.429916 0)
  (0.496652 0.28506 0)
  (0.502944 0.191367 0)
  (0.511484 0.119965 0)
  (0.486791 0.0685409 0)
  (0.444099 0.0152559 0)
  (0.394208 -0.0329578 0)
  (0.340798 -0.0671384 0)
  (0.283577 -0.0847828 0)
  (0.224962 -0.0879053 0)
  (0.168249 -0.0805234 0)
  (0.116217 -0.0666425 0)
  (0.0698692 -0.0489811 0)
  (0.0311088 -0.0309643 0)
  (-0.000482726 -0.014814 0)
  (-0.0213446 -0.00478566 0)
  (-0.032492 -0.0010241 0)
  (-0.0386662 -0.00052321 0)
  (-0.0426938 -0.0014963 0)
  (-0.0462065 -0.002842 0)
  (-0.0494146 -0.00415786 0)
  (-0.0523293 -0.00538615 0)
  (-0.0549292 -0.00656034 0)
  (-0.0572366 -0.00773222 0)
  (-0.0593729 -0.00896572 0)
  (-0.0616099 -0.0102406 0)
  (-0.064281 -0.0113408 0)
  (-0.0676895 -0.0118936 0)
  (-0.0721652 -0.0113735 0)
  (-0.0781712 -0.00908402 0)
  (-0.0863133 -0.00420211 0)
  (-0.0966392 0.00388802 0)
  (-0.107156 0.0147025 0)
  (-0.122416 0.0284211 0)
  (-0.146456 0.0451029 0)
  (-0.1818 0.0635537 0)
  (-0.231743 0.0797188 0)
  (-0.288664 0.0909873 0)
  (-0.357329 0.0973458 0)
  (-0.619556 0.0994526 0)
  (-0.148366 0.0827478 0)
  (0.134779 0.0617794 0)
  (0.218168 0.00615919 0)
  (0.201711 -0.0286769 0)
  (0.186028 -0.0430382 0)
  (0.163548 -0.0477509 0)
  (0.131094 -0.0461541 0)
  (0.0925478 -0.0397835 0)
  (0.0526654 -0.0300625 0)
  (0.014713 -0.0178525 0)
  (-0.0226682 -0.00403937 0)
  (-0.0465131 0.00368417 0)
  (-0.061095 0.00714595 0)
  (-0.0682278 0.00759581 0)
  (-0.0716982 0.00681108 0)
  (-0.0739797 0.00581224 0)
  (-0.0759337 0.00482643 0)
  (-0.0778809 0.00390875 0)
  (-0.0801294 0.00299626 0)
  (-0.0827107 0.00196877 0)
  (-0.0855528 0.000873274 0)
  (-0.0886832 -0.000227306 0)
  (-0.0921746 -0.00124854 0)
  (-0.0961216 -0.00203244 0)
  (-0.100601 -0.0023318 0)
  (-0.105618 -0.001834 0)
  (-0.111083 -0.000186626 0)
  (-0.116783 0.00296643 0)
  (-0.122116 0.00806446 0)
  (-0.126301 0.0158628 0)
  (-0.129773 0.027482 0)
  (-0.132779 0.043312 0)
  (-0.136115 0.0624714 0)
  (-0.140287 0.0813104 0)
  (-0.142115 0.0899457 0)
  (-0.124848 0.0675381 0)
  (-0.0814247 -0.0255003 0)
  (-0.278561 -0.203224 0)
  (-0.0234295 0.2308 0)
  (0.0637916 0.0994254 0)
  (0.0378302 0.0189434 0)
  (0.0256536 -0.00449495 0)
  (0.0163514 -0.00989301 0)
  (-0.00220549 -0.0113455 0)
  (-0.0271396 -0.00890997 0)
  (-0.0528848 -0.00434452 0)
  (-0.0747438 0.000132226 0)
  (-0.089855 0.00311631 0)
  (-0.097199 0.0033655 0)
  (-0.0998066 0.00109165 0)
  (-0.100218 -0.00194106 0)
  (-0.0996629 -0.00538008 0)
  (-0.0992364 -0.00889771 0)
  (-0.0993469 -0.0122334 0)
  (-0.10002 -0.0152495 0)
  (-0.101155 -0.0177324 0)
  (-0.102611 -0.0195227 0)
  (-0.104311 -0.0206022 0)
  (-0.106292 -0.0210711 0)
  (-0.108523 -0.020945 0)
  (-0.110999 -0.0204673 0)
  (-0.113694 -0.0196833 0)
  (-0.116498 -0.0184824 0)
  (-0.119183 -0.016631 0)
  (-0.121384 -0.0137481 0)
  (-0.122596 -0.00925251 0)
  (-0.122292 -0.00295422 0)
  (-0.119506 0.00567232 0)
  (-0.112796 0.0174891 0)
  (-0.100877 0.0332497 0)
  (-0.0834459 0.0525216 0)
  (-0.0613831 0.0712303 0)
  (-0.0375364 0.0822306 0)
  (0.0024308 0.0666286 0)
  (0.143357 -0.0045873 0)
  (-0.207249 -0.113937 0)
  (-0.102853 -0.348416 0)
  (-0.438931 -0.120252 0)
  (-0.310518 0.0955862 0)
  (-0.226319 -0.0201302 0)
  (-0.179955 -0.0411094 0)
  (-0.165533 -0.028843 0)
  (-0.163129 -0.015808 0)
  (-0.164475 -0.005412 0)
  (-0.165082 0.00330441 0)
  (-0.162855 0.0109328 0)
  (-0.158187 0.0179483 0)
  (-0.151184 0.024355 0)
  (-0.142773 0.0298842 0)
  (-0.134388 0.0345341 0)
  (-0.126895 0.0388707 0)
  (-0.120626 0.0431117 0)
  (-0.115599 0.0473375 0)
  (-0.111643 0.0513471 0)
  (-0.108613 0.0547635 0)
  (-0.106411 0.0572326 0)
  (-0.104953 0.0585451 0)
  (-0.104162 0.0586808 0)
  (-0.103979 0.0577621 0)
  (-0.104346 0.0559081 0)
  (-0.105183 0.0535688 0)
  (-0.106392 0.0509644 0)
  (-0.107813 0.0482147 0)
  (-0.109182 0.0454142 0)
  (-0.110081 0.042631 0)
  (-0.109832 0.0399264 0)
  (-0.107187 0.0381735 0)
  (-0.100273 0.0380607 0)
  (-0.086629 0.0403547 0)
  (-0.0643887 0.0459567 0)
  (-0.0341198 0.0553777 0)
  (0.0140614 0.0682513 0)
  (0.058769 0.0695631 0)
  (0.101297 0.0549549 0)
  (0.163686 0.0260296 0)
  (-0.219801 -0.0286469 0)
)
;

boundaryField
{
  floor
  {
    type noSlip;
  }
  ceiling
  {
    type noSlip;
  }
  sWall
  {
    type noSlip;
  }
  nWall
  {
    type noSlip;
  }
  sideWalls
  {
    type empty;
  }
  glass1
  {
    type noSlip;
  }
  glass2
  {
    type noSlip;
  }
  sun
  {
    type noSlip;
  }
  heatsource1
  {
    type noSlip;
  }
  heatsource2
  {
    type noSlip;
  }
  Table_master
  {
    type noSlip;
  }
  Table_slave
  {
    type noSlip;
  }
  inlet
  {
    type fixedValue;
    value uniform (0.3 0 0);
  }
  outlet
  {
    type zeroGradient;
  }
} 	// ************************************************************************* //

