// -*- C++ -*-
// File generated by PyFoam - sorry for the ugliness

FoamFile
{
 version 2.0;
 format ascii;
 class volScalarField;
 location "1000";
 object T;
}

dimensions [ 0 0 0 1 0 0 0 ];

internalField nonuniform List<scalar> 459
(
  303.322
  303.058
  303.045
  303.042
  303.038
  303.035
  303.03
  303.025
  303.015
  303.004
  302.992
  302.983
  302.977
  302.977
  302.986
  303.072
  303.053
  303.047
  303.05
  303.054
  303.059
  303.063
  303.067
  303.071
  303.074
  303.078
  303.082
  303.085
  303.089
  303.092
  303.096
  303.1
  303.106
  303.125
  303.5
  303.1
  303.077
  303.08
  303.083
  303.084
  303.082
  303.074
  303.056
  303.031
  303.004
  302.983
  302.969
  302.964
  302.964
  302.96
  302.953
  303.074
  303.038
  303.033
  303.037
  303.043
  303.048
  303.05
  303.052
  303.053
  303.054
  303.055
  303.055
  303.056
  303.058
  303.06
  303.063
  303.069
  303.077
  303.109
  303.686
  303.15
  303.113
  303.125
  303.14
  303.152
  303.156
  303.147
  303.117
  303.071
  303.024
  302.988
  302.967
  302.96
  302.96
  302.961
  302.959
  303.03
  303.023
  303.028
  303.037
  303.049
  303.058
  303.058
  303.057
  303.057
  303.056
  303.056
  303.056
  303.056
  303.055
  303.056
  303.058
  303.062
  303.069
  303.103
  303.875
  303.212
  303.15
  303.17
  303.201
  303.23
  303.248
  303.238
  303.19
  303.116
  303.043
  302.991
  302.962
  302.955
  302.959
  302.964
  302.967
  302.977
  302.991
  303.01
  303.031
  303.052
  303.071
  303.086
  303.099
  303.11
  303.12
  303.129
  303.136
  303.142
  303.147
  303.151
  303.152
  303.123
  303.096
  303.082
  303.104
  304.059
  303.29
  303.19
  303.208
  303.252
  303.301
  303.34
  303.326
  303.253
  303.148
  303.051
  302.987
  302.955
  302.949
  302.958
  302.971
  302.985
  303
  303.019
  303.043
  303.068
  303.092
  303.114
  303.132
  303.149
  303.163
  303.175
  303.185
  303.191
  303.194
  303.194
  303.19
  303.183
  303.161
  303.128
  303.1
  303.104
  303.186
  303.233
  303.239
  304.225
  303.391
  303.256
  303.25
  303.293
  303.359
  303.415
  303.379
  303.277
  303.152
  303.042
  302.97
  302.939
  302.94
  302.96
  302.986
  303.011
  303.036
  303.062
  303.09
  303.118
  303.144
  303.166
  303.184
  303.2
  303.213
  303.224
  303.231
  303.235
  303.235
  303.23
  303.222
  303.209
  303.188
  303.157
  303.124
  303.112
  303.144
  303.162
  303.198
  304.375
  303.552
  303.41
  303.378
  303.401
  303.465
  303.475
  303.393
  303.254
  303.106
  302.991
  302.927
  302.912
  302.933
  302.972
  303.016
  303.055
  303.089
  303.121
  303.15
  303.177
  303.201
  303.22
  303.236
  303.249
  303.259
  303.266
  303.271
  303.272
  303.269
  303.26
  303.248
  303.232
  303.211
  303.184
  303.153
  303.135
  303.142
  303.152
  303.181
  304.594
  303.977
  303.814
  303.716
  303.678
  303.645
  303.524
  303.334
  303.134
  302.974
  302.881
  302.856
  302.883
  302.94
  303.009
  303.072
  303.122
  303.16
  303.19
  303.215
  303.237
  303.255
  303.27
  303.281
  303.29
  303.296
  303.299
  303.299
  303.297
  303.292
  303.284
  303.272
  303.256
  303.238
  303.217
  303.196
  303.186
  303.199
  303.217
  303.342
  304.906
  304.617
  304.353
  304.124
  303.928
  303.66
  303.308
  302.996
  302.791
  302.705
  302.714
  302.789
  302.892
  302.996
  303.095
  303.164
  303.205
  303.233
  303.254
  303.272
  303.288
  303.3
  303.31
  303.316
  303.32
  303.322
  303.322
  303.32
  303.317
  303.313
  303.31
  303.309
  303.31
  303.316
  303.328
  303.35
  303.382
  303.414
  303.435
  303.49
  296.957
  298.985
  300.036
  300.558
  301.067
  301.56
  301.997
  302.356
  302.64
  302.875
  303.051
  303.149
  303.211
  303.248
  303.273
  303.292
  303.306
  303.318
  303.327
  303.334
  303.338
  303.341
  303.342
  303.343
  303.343
  303.342
  303.342
  303.342
  303.343
  303.344
  303.348
  303.356
  303.368
  303.387
  303.41
  303.434
  303.454
  303.476
  297.392
  299.21
  300.183
  300.942
  301.602
  302.163
  302.547
  302.816
  303.002
  303.127
  303.204
  303.254
  303.285
  303.307
  303.322
  303.334
  303.343
  303.349
  303.354
  303.356
  303.358
  303.359
  303.36
  303.36
  303.36
  303.361
  303.361
  303.361
  303.362
  303.364
  303.367
  303.372
  303.381
  303.394
  303.409
  303.428
  303.428
  303.458
  299.524
  299.453
  299.449
  301.251
  302.13
  302.567
  302.805
  302.975
  303.094
  303.179
  303.238
  303.279
  303.306
  303.324
  303.336
  303.345
  303.351
  303.355
  303.358
  303.361
  303.362
  303.363
  303.364
  303.365
  303.366
  303.367
  303.368
  303.368
  303.369
  303.37
  303.371
  303.372
  303.374
  303.377
  303.382
  303.392
  303.401
  303.407
  303.41
  303.449
)
;

boundaryField
{
  floor
  {
    type wallHeatTransfer;
    Tinf uniform 305.2;
    alphaWall uniform 0.24;
    value nonuniform List<scalar> 29
(
  303.218
  303.477
  303.417
  303.381
  303.38
  303.39
  303.403
  303.422
  303.443
  303.463
  303.483
  303.503
  303.521
  303.539
  303.557
  303.574
  303.591
  303.61
  303.625
  303.666
  303.666
  303.57
  303.521
  303.494
  303.218
  303.477
  303.47
  303.294
  303.173
)
;
  }
  ceiling
  {
    type wallHeatTransfer;
    Tinf uniform 303.2;
    alphaWall uniform 0.24;
    value nonuniform List<scalar> 43
(
  299.779
  299.703
  299.691
  301.374
  302.203
  302.613
  302.835
  302.993
  303.103
  303.181
  303.235
  303.27
  303.293
  303.308
  303.317
  303.323
  303.328
  303.33
  303.332
  303.334
  303.335
  303.336
  303.337
  303.338
  303.34
  303.341
  303.342
  303.344
  303.345
  303.347
  303.349
  303.351
  303.354
  303.357
  303.363
  303.373
  303.381
  303.386
  303.387
  303.421
  304.827
  304.561
  297.747
)
;
  }
  sWall
  {
    type wallHeatTransfer;
    Tinf uniform 315.2;
    alphaWall uniform 0.36;
    value uniform 301.104;
  }
  nWall
  {
    type wallHeatTransfer;
    Tinf uniform 307.2;
    alphaWall uniform 0.36;
    value nonuniform List<scalar> 6
(
  303.967
  303.91
  303.826
  304.009
  303.988
  304.046
)
;
  }
  sideWalls
  {
    type empty;
  }
  glass1
  {
    type wallHeatTransfer;
    Tinf uniform 315.2;
    alphaWall uniform 4.3;
    value nonuniform List<scalar> 9
(
  311.446
  310.808
  310.407
  310.102
  309.848
  309.617
  309.439
  309.506
  309.731
)
;
  }
  glass2
  {
    type wallHeatTransfer;
    Tinf uniform 307.2;
    alphaWall uniform 4.3;
    value nonuniform List<scalar> 2
(
  305.712
  305.823
)
;
  }
  sun
  {
    type wallHeatTransfer;
    Tinf uniform 305.2;
    alphaWall uniform 0.24;
    value nonuniform List<scalar> 14
(
  303.52
  303.27
  303.255
  303.245
  303.235
  303.226
  303.217
  303.206
  303.195
  303.184
  303.174
  303.171
  303.175
  303.19
)
;
  }
  heatsource1
  {
    type fixedGradient;
    gradient uniform 0;
  }
  heatsource2
  {
    type fixedGradient;
    gradient uniform 0;
  }
  Table_master
  {
    type zeroGradient;
  }
  Table_slave
  {
    type zeroGradient;
  }
  inlet
  {
    type fixedValue;
    value uniform 293.15;
  }
  outlet
  {
    type zeroGradient;
  }
} 	// ************************************************************************* //

