/*--------------------------------*- C++ -*----------------------------------*\
  =========                 |
  \\      /  F ield         | OpenFOAM: The Open Source CFD Toolbox
   \\    /   O peration     | Website:  https://openfoam.org
    \\  /    A nd           | Version:  6
     \\/     M anipulation  |
\*---------------------------------------------------------------------------*/
FoamFile
{
    version     2.0;
    format      ascii;
    class       volScalarField;
    location    "1500";
    object      nut;
}
// * * * * * * * * * * * * * * * * * * * * * * * * * * * * * * * * * * * * * //

dimensions      [0 2 -1 0 0 0 0];

internalField   nonuniform List<scalar> 
459
(
0.00106485
0.00116091
0.00118286
0.00123929
0.0012916
0.00134095
0.00138998
0.0014368
0.00146968
0.00148235
0.00146881
0.0014248
0.0013483
0.00124149
0.00111606
0.00046411
0.000554122
0.000626236
0.000632495
0.0006147
0.000588861
0.000552741
0.000515847
0.000482257
0.000452499
0.000426213
0.000402923
0.000382241
0.000363753
0.000346787
0.000330501
0.00031374
0.000303367
0.000277749
0.00145027
0.00343743
0.00325377
0.00377426
0.0042841
0.00479535
0.00523958
0.00558538
0.00590665
0.00617384
0.00635047
0.00639897
0.0062739
0.0058673
0.00472446
0.00113629
0.00070587
0.000484042
0.00102023
0.0014305
0.00174163
0.00192619
0.0019366
0.00153037
0.0013149
0.00116217
0.00104558
0.000953393
0.00087865
0.000815158
0.000756051
0.00069879
0.000648029
0.000603409
0.00071689
0.000369665
0.00177116
0.00466311
0.00396835
0.00494364
0.005391
0.00571631
0.00597071
0.00619502
0.00645521
0.00673706
0.0070077
0.00721704
0.00731958
0.00723921
0.00675325
0.00518172
0.00117069
0.000910066
0.00132738
0.00173186
0.00212492
0.00241777
0.00238965
0.000785842
0.000695078
0.000621334
0.000561468
0.000512537
0.000472186
0.000438669
0.000410857
0.00038826
0.000419393
0.000484089
0.000809784
0.000431946
0.00207979
0.00596702
0.00391771
0.00516307
0.00550091
0.00558237
0.00565123
0.00577894
0.00599725
0.00629031
0.00662724
0.00693684
0.00717012
0.00726161
0.00716092
0.00660282
0.00442857
0.00136994
0.00164348
0.00209959
0.00260035
0.00304756
0.00335696
0.00319895
0.00088958
0.000814029
0.000760263
0.000719393
0.000684457
0.000651661
0.000620062
0.000586709
0.000547837
0.000513955
0.000519145
0.000940038
0.000481272
0.00239469
0.00766943
0.00423639
0.00492411
0.00538973
0.0053425
0.00529836
0.00539489
0.0055991
0.00589821
0.00627021
0.00661037
0.00684871
0.00694136
0.00688939
0.00666805
0.00610411
0.00517306
0.00485836
0.00481034
0.00486058
0.00491935
0.00492819
0.00477459
0.00406021
0.00371404
0.00351373
0.00335842
0.00319337
0.00295685
0.00262785
0.00222313
0.00177168
0.00132257
0.000976517
0.000963362
0.000654758
0.000594486
0.000716799
0.000805082
0.00272924
0.00953789
0.00582991
0.00476325
0.00521406
0.00536259
0.00522036
0.00530979
0.0054785
0.00575556
0.00611738
0.00647178
0.00670833
0.00676108
0.00664538
0.00644643
0.00625911
0.00614182
0.00615572
0.0061875
0.00616425
0.00607647
0.00592742
0.00570569
0.00537255
0.00507462
0.00481231
0.00456245
0.00430976
0.00403923
0.00369378
0.0032572
0.00272906
0.00214223
0.00161501
0.00118869
0.00090996
0.000776891
0.00110576
0.000842067
0.00304331
0.0108881
0.00836134
0.00605139
0.00565339
0.00568661
0.00554474
0.00546365
0.00554417
0.00580774
0.0061895
0.00656194
0.00678732
0.00679008
0.00660565
0.00638826
0.00634051
0.00652317
0.0067467
0.00682065
0.00671734
0.00648615
0.0061719
0.00580716
0.00542553
0.00508029
0.00477361
0.00449386
0.00423719
0.00400733
0.00380313
0.00352315
0.00311695
0.00261238
0.0021191
0.00166405
0.00134195
0.00124742
0.00127765
0.000964429
0.00311126
0.0098804
0.00857377
0.00759953
0.00700527
0.00634432
0.00578914
0.00555533
0.00565889
0.00601561
0.00647748
0.00686977
0.00704049
0.00693952
0.00666209
0.00645157
0.00654256
0.00684146
0.00696646
0.00682494
0.0064926
0.00604597
0.00555262
0.00507631
0.00466557
0.00433387
0.00406385
0.00384096
0.00366303
0.00353574
0.00346721
0.00343605
0.00324046
0.0029178
0.00262742
0.00247826
0.00258421
0.00299081
0.00366205
0.00149585
0.00303636
0.00362557
0.00409517
0.00424306
0.0042558
0.00435468
0.00463963
0.00513823
0.00580632
0.00651238
0.00708984
0.00739331
0.00732761
0.00695954
0.00656628
0.00649665
0.00656333
0.00656098
0.00635332
0.00594369
0.00541066
0.00484247
0.00432061
0.00389489
0.00357138
0.00332603
0.00313051
0.00296647
0.00282326
0.00269282
0.0025682
0.00244977
0.0023561
0.0022872
0.00226023
0.0022674
0.00224918
0.00215268
0.00200815
0.00139929
0.00182766
0.00325876
0.00451293
0.00555817
0.00640978
0.00717642
0.00777513
0.0080787
0.00804395
0.0076872
0.00706351
0.00636297
0.00593706
0.00578047
0.00560514
0.00528429
0.00482714
0.00430364
0.00378446
0.00333313
0.00298621
0.00273648
0.0025587
0.00242864
0.0023306
0.00225649
0.00220263
0.00216791
0.00215535
0.0021671
0.00218944
0.00221883
0.00224688
0.00224826
0.0021831
0.00203963
0.00183082
0.00114842
0.0021281
0.00456061
0.00625238
0.00704891
0.00758747
0.00796061
0.00793048
0.00743122
0.00666736
0.0058496
0.00516425
0.0046687
0.00433586
0.00403516
0.00367409
0.00327166
0.0028798
0.00254562
0.00229228
0.00211585
0.00199442
0.00191167
0.00186188
0.00183833
0.00183641
0.00185323
0.001886
0.00193061
0.00199301
0.00207024
0.00215972
0.00225493
0.00234034
0.00239771
0.00237913
0.00239453
0.00236478
0.00116751
0.00183028
0.00192737
0.00199921
0.0020686
0.00187665
0.00172476
0.00165235
0.00157837
0.00147057
0.00133718
0.00118525
0.00103467
0.000901553
0.00079608
0.000719829
0.000666114
0.000627667
0.000600365
0.00058255
0.000573397
0.000571877
0.00057675
0.000586952
0.000601968
0.000620751
0.000643091
0.000669114
0.000699143
0.000733791
0.00077418
0.000819623
0.000870297
0.000926819
0.000989767
0.00105895
0.00114247
0.00116846
0.00113852
0.00106662
0.000990078
)
;

boundaryField
{
    floor
    {
        type            nutkWallFunction;
        Cmu             0.09;
        kappa           0.41;
        E               9.8;
        value           nonuniform List<scalar> 
29
(
0.000134292
5.51017e-05
6.65836e-05
7.56159e-05
7.63938e-05
7.41799e-05
7.09515e-05
6.64093e-05
6.17319e-05
5.74373e-05
5.36015e-05
5.01867e-05
4.7139e-05
4.44137e-05
4.19614e-05
3.96969e-05
3.75095e-05
3.52438e-05
3.38336e-05
3.03228e-05
3.03227e-05
4.27467e-05
5.09331e-05
5.73101e-05
0.000134292
5.51017e-05
5.76662e-05
0.000110085
0.000163443
)
;
    }
    ceiling
    {
        type            nutkWallFunction;
        Cmu             0.09;
        kappa           0.41;
        E               9.8;
        value           nonuniform List<scalar> 
43
(
0.000214705
0.00022534
0.000233175
0.000240804
0.000219905
0.000203188
0.000195162
0.000186918
0.000174824
0.000159719
0.000142305
0.000124795
0.000109072
9.64217e-05
8.71541e-05
8.05558e-05
7.57939e-05
7.23911e-05
7.01606e-05
6.90114e-05
6.88204e-05
6.94326e-05
7.07124e-05
7.25914e-05
7.49336e-05
7.77083e-05
8.09258e-05
8.46201e-05
8.88593e-05
9.3771e-05
9.92615e-05
0.000105342
0.000112076
0.00011952
0.000127639
0.000137361
0.000140369
0.000136903
0.000128536
0.000119557
0.000343915
0.000404819
0.000247048
)
;
    }
    sWall
    {
        type            nutkWallFunction;
        Cmu             0.09;
        kappa           0.41;
        E               9.8;
        value           uniform 0.000214765;
    }
    nWall
    {
        type            nutkWallFunction;
        Cmu             0.09;
        kappa           0.41;
        E               9.8;
        value           nonuniform List<scalar> 6(9.75094e-05 0.000101962 0.000116534 0.00013806 0.00014027 0.000119563);
    }
    sideWalls
    {
        type            empty;
    }
    glass1
    {
        type            nutkWallFunction;
        Cmu             0.09;
        kappa           0.41;
        E               9.8;
        value           nonuniform List<scalar> 9(0.000128427 0.000172755 0.00020864 0.000242485 0.000276464 0.00031205 0.000345043 0.000352143 0.000344343);
    }
    glass2
    {
        type            nutkWallFunction;
        Cmu             0.09;
        kappa           0.41;
        E               9.8;
        value           nonuniform List<scalar> 2(0.000177751 0.000166845);
    }
    sun
    {
        type            nutkWallFunction;
        Cmu             0.09;
        kappa           0.41;
        E               9.8;
        value           nonuniform List<scalar> 
14
(
0.00012833
0.000139494
0.000142029
0.000148527
0.00015452
0.000160148
0.000165719
0.000171017
0.000174727
0.000176153
0.000174627
0.00016966
0.000160984
0.000148778
)
;
    }
    heatsource1
    {
        type            nutkWallFunction;
        Cmu             0.09;
        kappa           0.41;
        E               9.8;
        value           nonuniform List<scalar> 3(7.16575e-05 8.67839e-05 9.75086e-05);
    }
    heatsource2
    {
        type            nutkWallFunction;
        Cmu             0.09;
        kappa           0.41;
        E               9.8;
        value           nonuniform List<scalar> 4(0.000136637 8.54466e-05 8.54466e-05 0.000140619);
    }
    Table_master
    {
        type            nutkWallFunction;
        Cmu             0.09;
        kappa           0.41;
        E               9.8;
        value           nonuniform List<scalar> 9(9.51835e-05 8.41225e-05 7.50085e-05 6.75135e-05 6.13152e-05 5.61486e-05 5.18152e-05 4.81878e-05 4.52176e-05);
    }
    Table_slave
    {
        type            nutkWallFunction;
        Cmu             0.09;
        kappa           0.41;
        E               9.8;
        value           nonuniform List<scalar> 9(0.000107644 9.85872e-05 9.20823e-05 8.71014e-05 8.2817e-05 7.87711e-05 7.48496e-05 7.06842e-05 6.57928e-05);
    }
    inlet
    {
        type            calculated;
        value           uniform 0.000100623;
    }
    outlet
    {
        type            calculated;
        value           nonuniform List<scalar> 2(0.00183028 0.00192737);
    }
}


// ************************************************************************* //
