/*--------------------------------*- C++ -*----------------------------------*\
  =========                 |
  \\      /  F ield         | OpenFOAM: The Open Source CFD Toolbox
   \\    /   O peration     | Website:  https://openfoam.org
    \\  /    A nd           | Version:  6
     \\/     M anipulation  |
\*---------------------------------------------------------------------------*/
FoamFile
{
    version     2.0;
    format      ascii;
    class       volVectorField;
    location    "1500";
    object      U;
}
// * * * * * * * * * * * * * * * * * * * * * * * * * * * * * * * * * * * * * //

dimensions      [0 1 -1 0 0 0 0];

internalField   nonuniform List<vector> 
459
(
(0.0341619 0.0858987 0)
(-0.167109 0.0254965 0)
(-0.191886 0.0178505 0)
(-0.222902 0.0121414 0)
(-0.245339 0.00584532 0)
(-0.258098 -0.0008529 0)
(-0.259486 -0.00802229 0)
(-0.248239 -0.0156876 0)
(-0.224953 -0.0231467 0)
(-0.191539 -0.0290663 0)
(-0.15174 -0.0323443 0)
(-0.109965 -0.0324436 0)
(-0.0704659 -0.0295198 0)
(-0.0384067 -0.024712 0)
(-0.0276847 -0.0198684 0)
(-0.00647262 0.00894328 0)
(-0.0292437 -0.0166586 0)
(-0.00760266 -0.0265814 0)
(0.0161171 -0.0205993 0)
(0.0317352 -0.0142015 0)
(0.0446265 -0.00925461 0)
(0.0527971 -0.00539232 0)
(0.0570654 -0.00335973 0)
(0.0589941 -0.00254694 0)
(0.0599491 -0.00219757 0)
(0.0605436 -0.00197942 0)
(0.0608806 -0.00180168 0)
(0.0609006 -0.0015872 0)
(0.0604173 -0.00116897 0)
(0.0589044 -0.000180317 0)
(0.0552288 0.00188796 0)
(0.0481501 0.00409294 0)
(0.0416518 0.00589599 0)
(-0.0130014 0.0204084 0)
(0.208707 0.176 0)
(-0.156287 0.0674628 0)
(-0.154777 0.0530642 0)
(-0.186944 0.0412157 0)
(-0.209237 0.0277654 0)
(-0.222304 0.0125932 0)
(-0.224406 -0.00462044 0)
(-0.214117 -0.0232748 0)
(-0.192638 -0.0407568 0)
(-0.162297 -0.0539619 0)
(-0.126966 -0.0607687 0)
(-0.0907284 -0.0605525 0)
(-0.0571451 -0.0539189 0)
(-0.0296326 -0.0424995 0)
(-0.0121646 -0.0288063 0)
(0.00168479 -0.0108069 0)
(0.000354568 0.0156668 0)
(0.0608687 0.0364989 0)
(0.0245524 -0.0180731 0)
(0.0332323 -0.0314715 0)
(0.0444394 -0.0281322 0)
(0.0534803 -0.0203724 0)
(0.0601811 -0.0128616 0)
(0.0631223 -0.00549723 0)
(0.063701 -0.00125771 0)
(0.0636532 0.000504715 0)
(0.0637632 0.00127875 0)
(0.0639724 0.00175254 0)
(0.0641263 0.00214343 0)
(0.0641815 0.00261845 0)
(0.0640932 0.00349087 0)
(0.0633567 0.00562707 0)
(0.0596594 0.0115596 0)
(0.050278 0.0165315 0)
(0.0457354 0.0198914 0)
(-0.0492039 0.044271 0)
(0.368908 0.263404 0)
(-0.173182 0.107483 0)
(-0.116244 0.0858942 0)
(-0.147632 0.0647561 0)
(-0.167532 0.0425961 0)
(-0.17976 0.0179427 0)
(-0.181563 -0.0100538 0)
(-0.170624 -0.0399262 0)
(-0.149418 -0.06701 0)
(-0.121184 -0.0862552 0)
(-0.0899967 -0.0949769 0)
(-0.0593539 -0.0931059 0)
(-0.0315347 -0.0820675 0)
(-0.0086124 -0.0641283 0)
(0.00844166 -0.0406257 0)
(0.0196064 -0.0142087 0)
(0.0238219 0.0230195 0)
(0.110213 -0.0266323 0)
(0.0744664 -0.0376296 0)
(0.0690502 -0.0384132 0)
(0.0705923 -0.0331044 0)
(0.0720038 -0.0252306 0)
(0.0734049 -0.0183143 0)
(0.0722214 -0.0146172 0)
(0.0675107 -0.0103006 0)
(0.0640664 -0.00794083 0)
(0.06251 -0.0065881 0)
(0.061847 -0.005717 0)
(0.0615088 -0.00511205 0)
(0.0614806 -0.00458035 0)
(0.0622032 -0.00375091 0)
(0.0647914 -0.000672212 0)
(0.0627944 0.016156 0)
(0.0497819 0.0278724 0)
(0.0519824 0.0358161 0)
(-0.0811603 0.0690959 0)
(0.513543 0.333724 0)
(-0.207978 0.142975 0)
(-0.0753092 0.113876 0)
(-0.105394 0.0848521 0)
(-0.119871 0.0564393 0)
(-0.128928 0.0240829 0)
(-0.127778 -0.0145512 0)
(-0.113791 -0.056233 0)
(-0.092216 -0.0921613 0)
(-0.0670568 -0.115787 0)
(-0.0418187 -0.124902 0)
(-0.0188596 -0.120805 0)
(0.00159119 -0.10562 0)
(0.0184247 -0.0828644 0)
(0.032714 -0.0560368 0)
(0.0479931 -0.026987 0)
(0.0695682 0.00485922 0)
(0.100317 0.0162811 0)
(0.105448 -0.0227261 0)
(0.0918113 -0.0334876 0)
(0.0828459 -0.0328556 0)
(0.0777604 -0.0288051 0)
(0.0739393 -0.0227959 0)
(0.0713456 -0.0151342 0)
(0.0725597 -0.0091733 0)
(0.0775617 -0.00686219 0)
(0.0818242 -0.00558389 0)
(0.0846518 -0.00468104 0)
(0.08639 -0.00367507 0)
(0.0866043 -0.0022683 0)
(0.0841645 -0.000200391 0)
(0.0778087 0.00283589 0)
(0.0650211 0.00737253 0)
(0.0527408 0.0267039 0)
(0.0406144 0.0430349 0)
(0.0560516 0.0559809 0)
(-0.114452 0.0913505 0)
(0.638775 0.388196 0)
(-0.250569 0.171959 0)
(-0.0345461 0.13005 0)
(-0.0611665 0.0963794 0)
(-0.0676235 0.0645015 0)
(-0.0706838 0.0270341 0)
(-0.0607625 -0.021311 0)
(-0.0415743 -0.0738672 0)
(-0.0210149 -0.115039 0)
(-0.00175363 -0.139245 0)
(0.014484 -0.145755 0)
(0.026899 -0.138011 0)
(0.0366362 -0.120174 0)
(0.0444941 -0.0957961 0)
(0.051773 -0.0683887 0)
(0.060449 -0.0417381 0)
(0.0732547 -0.0221314 0)
(0.0839501 -0.0212405 0)
(0.0850742 -0.0289858 0)
(0.0786951 -0.029838 0)
(0.0704813 -0.0269685 0)
(0.0637024 -0.0231296 0)
(0.0585646 -0.0185716 0)
(0.0554235 -0.0131877 0)
(0.0551797 -0.00737738 0)
(0.0575219 -0.00455186 0)
(0.0602486 -0.00353664 0)
(0.0628485 -0.00275734 0)
(0.0652314 -0.00117564 0)
(0.067057 0.0018198 0)
(0.0670905 0.00634187 0)
(0.0647164 0.0125518 0)
(0.0593321 0.0210848 0)
(0.0524571 0.0362914 0)
(0.0423545 0.0543185 0)
(0.0644261 0.0744432 0)
(-0.0214125 0.103532 0)
(0.0463015 0.0323343 0)
(-0.062067 -0.0344977 0)
(-0.272399 -0.0571492 0)
(0.729877 0.433616 0)
(-0.29215 0.191472 0)
(-0.00332573 0.126624 0)
(-0.0160142 0.0976377 0)
(-0.011909 0.0669316 0)
(-0.00627682 0.0240016 0)
(0.0223632 -0.038481 0)
(0.0441839 -0.0942063 0)
(0.0597102 -0.132394 0)
(0.0691114 -0.151775 0)
(0.0730523 -0.154298 0)
(0.0729374 -0.143541 0)
(0.0702716 -0.123533 0)
(0.066561 -0.0982581 0)
(0.0632938 -0.0713837 0)
(0.0618803 -0.0465749 0)
(0.0631736 -0.0281047 0)
(0.0640281 -0.0207959 0)
(0.0607659 -0.0204392 0)
(0.0537762 -0.0205637 0)
(0.0458609 -0.0191621 0)
(0.0392219 -0.0169288 0)
(0.0343956 -0.0142142 0)
(0.0316754 -0.0110758 0)
(0.0313287 -0.00812717 0)
(0.0330004 -0.00697988 0)
(0.0356322 -0.00684614 0)
(0.0387643 -0.00648016 0)
(0.0422116 -0.00486655 0)
(0.0457098 -0.00111321 0)
(0.0489183 0.00512971 0)
(0.0506134 0.0135098 0)
(0.0510513 0.024173 0)
(0.0515854 0.0386273 0)
(0.050419 0.0563869 0)
(0.0728814 0.0791529 0)
(0.05251 0.0970741 0)
(0.0931971 0.0678974 0)
(0.116098 0.0446036 0)
(-0.129074 -0.00714965 0)
(0.781896 0.474898 0)
(-0.313076 0.176933 0)
(0.0235155 0.0771385 0)
(0.0426445 0.0738575 0)
(0.0578045 0.0523202 0)
(0.0844521 0.0011959 0)
(0.118583 -0.0628729 0)
(0.137862 -0.11166 0)
(0.144268 -0.141151 0)
(0.140484 -0.152772 0)
(0.129253 -0.149483 0)
(0.113493 -0.135031 0)
(0.0957757 -0.113282 0)
(0.078343 -0.0881355 0)
(0.06288 -0.0628001 0)
(0.0506312 -0.0403871 0)
(0.0420368 -0.0240084 0)
(0.0355606 -0.0157732 0)
(0.0290301 -0.0134605 0)
(0.0219504 -0.0131272 0)
(0.0152493 -0.0126113 0)
(0.0098504 -0.0117923 0)
(0.00606805 -0.0108106 0)
(0.00407784 -0.00973652 0)
(0.00396432 -0.00898726 0)
(0.00536606 -0.0091959 0)
(0.00763556 -0.00985936 0)
(0.0104938 -0.0101135 0)
(0.0139721 -0.00908139 0)
(0.0181945 -0.00574725 0)
(0.0240699 0.000920579 0)
(0.0301132 0.0101227 0)
(0.0357942 0.020937 0)
(0.04295 0.0338419 0)
(0.0507271 0.0485268 0)
(0.072794 0.0669613 0)
(0.0859981 0.074667 0)
(0.118303 0.0520619 0)
(0.158006 0.0439832 0)
(-0.0352595 0.0939877 0)
(0.88656 0.477568 0)
(-0.070593 0.156572 0)
(0.106086 0.00384007 0)
(0.169258 -0.0165605 0)
(0.182296 -0.0354 0)
(0.217879 -0.0694262 0)
(0.23968 -0.102135 0)
(0.242193 -0.125496 0)
(0.228205 -0.137006 0)
(0.202657 -0.136886 0)
(0.170413 -0.1269 0)
(0.135699 -0.109675 0)
(0.101553 -0.0878936 0)
(0.0704682 -0.0648119 0)
(0.0439043 -0.0428507 0)
(0.0232267 -0.0246007 0)
(0.00889018 -0.0125821 0)
(-0.000452952 -0.00724454 0)
(-0.00706918 -0.00633534 0)
(-0.0126196 -0.00688359 0)
(-0.0173779 -0.00750929 0)
(-0.0211699 -0.00802598 0)
(-0.0239138 -0.00848848 0)
(-0.0255575 -0.0089908 0)
(-0.0261438 -0.00974018 0)
(-0.0259764 -0.0108841 0)
(-0.0254373 -0.0121524 0)
(-0.0246588 -0.0130992 0)
(-0.0234983 -0.0132277 0)
(-0.0215748 -0.011951 0)
(-0.0179381 -0.00851569 0)
(-0.00924498 -0.00216026 0)
(-0.000348964 0.00626122 0)
(0.0103179 0.0147007 0)
(0.0220558 0.021865 0)
(0.041879 0.0292308 0)
(0.0605019 0.0222813 0)
(0.080039 -0.00523032 0)
(0.139147 0.0402846 0)
(-0.413957 0.206839 0)
(1.03166 0.429955 0)
(0.496767 0.285072 0)
(0.503046 0.1914 0)
(0.511579 0.119945 0)
(0.486931 0.068464 0)
(0.444141 0.0151124 0)
(0.394165 -0.0331081 0)
(0.340677 -0.0672391 0)
(0.283393 -0.0848056 0)
(0.224734 -0.0878474 0)
(0.168002 -0.0803966 0)
(0.115966 -0.0664602 0)
(0.0696357 -0.0487791 0)
(0.0309134 -0.0307692 0)
(-0.000632182 -0.0146404 0)
(-0.0214258 -0.00466308 0)
(-0.0325225 -0.000933609 0)
(-0.038668 -0.000446781 0)
(-0.0426787 -0.00142865 0)
(-0.0461899 -0.00278312 0)
(-0.0494056 -0.00411141 0)
(-0.0523317 -0.00535657 0)
(-0.0549429 -0.00655048 0)
(-0.0572597 -0.00774376 0)
(-0.0594032 -0.00899903 0)
(-0.0616455 -0.0102945 0)
(-0.0643222 -0.0114134 0)
(-0.0677392 -0.0119825 0)
(-0.0722295 -0.0114754 0)
(-0.0782591 -0.0091933 0)
(-0.0864362 -0.00430773 0)
(-0.0968398 0.00381275 0)
(-0.107443 0.0146824 0)
(-0.122738 0.0284608 0)
(-0.146843 0.0451842 0)
(-0.182279 0.0636446 0)
(-0.23234 0.0797708 0)
(-0.289342 0.0909435 0)
(-0.357971 0.0971636 0)
(-0.620135 0.099113 0)
(-0.14812 0.0828209 0)
(0.134765 0.0617431 0)
(0.218031 0.00600284 0)
(0.201546 -0.0288182 0)
(0.185814 -0.0431258 0)
(0.163277 -0.0477636 0)
(0.130778 -0.046101 0)
(0.0922147 -0.0396762 0)
(0.0523479 -0.0299107 0)
(0.0143936 -0.0176561 0)
(-0.0229006 -0.00389231 0)
(-0.0466388 0.00376367 0)
(-0.0611215 0.00717139 0)
(-0.0681704 0.0075791 0)
(-0.0716079 0.00677083 0)
(-0.0738672 0.00574739 0)
(-0.0758099 0.00473122 0)
(-0.0777457 0.0037768 0)
(-0.0799819 0.00282603 0)
(-0.0825571 0.0017614 0)
(-0.0853956 0.000636904 0)
(-0.0885261 -0.000480754 0)
(-0.0920236 -0.00150797 0)
(-0.0959851 -0.00228925 0)
(-0.10049 -0.00257951 0)
(-0.105543 -0.00206552 0)
(-0.111052 -0.000391925 0)
(-0.116798 0.00280187 0)
(-0.12218 0.00795023 0)
(-0.126391 0.0157968 0)
(-0.12988 0.027473 0)
(-0.132892 0.0433682 0)
(-0.136235 0.0625822 0)
(-0.140418 0.0814376 0)
(-0.142255 0.0900329 0)
(-0.124904 0.0675289 0)
(-0.0810497 -0.025702 0)
(-0.27883 -0.203593 0)
(-0.0233681 0.230949 0)
(0.0635957 0.0994925 0)
(0.0375755 0.0189655 0)
(0.0254121 -0.00442854 0)
(0.0160615 -0.0097748 0)
(-0.00258788 -0.0111385 0)
(-0.027554 -0.00865564 0)
(-0.0532624 -0.0040657 0)
(-0.075037 0.000446779 0)
(-0.090036 0.00345973 0)
(-0.0972578 0.00371983 0)
(-0.0998113 0.00147463 0)
(-0.100178 -0.001518 0)
(-0.0995878 -0.00490336 0)
(-0.0991283 -0.00835036 0)
(-0.0991985 -0.0116054 0)
(-0.0998254 -0.014536 0)
(-0.100912 -0.0169391 0)
(-0.102324 -0.0186692 0)
(-0.103985 -0.0197142 0)
(-0.105944 -0.0201809 0)
(-0.108168 -0.0200826 0)
(-0.110654 -0.0196596 0)
(-0.11337 -0.0189407 0)
(-0.116203 -0.0178107 0)
(-0.118922 -0.016035 0)
(-0.121162 -0.0132348 0)
(-0.122414 -0.00883432 0)
(-0.122143 -0.00261817 0)
(-0.119379 0.00594436 0)
(-0.112677 0.0177218 0)
(-0.100749 0.0334699 0)
(-0.0833085 0.0527448 0)
(-0.0612441 0.0714316 0)
(-0.0374306 0.08238 0)
(0.00266095 0.0666665 0)
(0.143415 -0.00454354 0)
(-0.207348 -0.114263 0)
(-0.103543 -0.348735 0)
(-0.439279 -0.120308 0)
(-0.310769 0.0956721 0)
(-0.226537 -0.0202292 0)
(-0.180113 -0.0413554 0)
(-0.165684 -0.0291984 0)
(-0.163265 -0.016248 0)
(-0.164562 -0.00593232 0)
(-0.165094 0.00268772 0)
(-0.162824 0.0102291 0)
(-0.158108 0.0171483 0)
(-0.151066 0.0234432 0)
(-0.142625 0.0288506 0)
(-0.134222 0.0333804 0)
(-0.126713 0.037597 0)
(-0.120431 0.0417099 0)
(-0.115391 0.0457911 0)
(-0.111424 0.0496381 0)
(-0.108386 0.0528835 0)
(-0.106181 0.0551933 0)
(-0.104725 0.0563808 0)
(-0.103942 0.0564397 0)
(-0.10377 0.0555005 0)
(-0.104149 0.0536799 0)
(-0.104998 0.0514233 0)
(-0.10622 0.0489267 0)
(-0.107655 0.0463018 0)
(-0.109038 0.0436396 0)
(-0.109948 0.0410089 0)
(-0.10971 0.0384757 0)
(-0.107074 0.0368845 0)
(-0.100158 0.0369267 0)
(-0.0864908 0.0393703 0)
(-0.0642101 0.0451185 0)
(-0.0339205 0.0546786 0)
(0.0144859 0.0677001 0)
(0.0591609 0.068949 0)
(0.101745 0.0542293 0)
(0.163846 0.0251736 0)
(-0.219088 -0.0296946 0)
)
;

boundaryField
{
    floor
    {
        type            noSlip;
    }
    ceiling
    {
        type            noSlip;
    }
    sWall
    {
        type            noSlip;
    }
    nWall
    {
        type            noSlip;
    }
    sideWalls
    {
        type            empty;
    }
    glass1
    {
        type            noSlip;
    }
    glass2
    {
        type            noSlip;
    }
    sun
    {
        type            noSlip;
    }
    heatsource1
    {
        type            noSlip;
    }
    heatsource2
    {
        type            noSlip;
    }
    Table_master
    {
        type            noSlip;
    }
    Table_slave
    {
        type            noSlip;
    }
    inlet
    {
        type            fixedValue;
        value           uniform (0.3 0 0);
    }
    outlet
    {
        type            zeroGradient;
    }
}


// ************************************************************************* //
