// -*- C++ -*-
// File generated by PyFoam - sorry for the ugliness

FoamFile
{
 version 2.0;
 format ascii;
 class volVectorField;
 location "100";
 object U;
}

dimensions [ 0 1 -1 0 0 0 0 ];

internalField nonuniform List<vector> 459
(
  (0.115061 0.069182 0)
  (-0.142998 -0.00206488 0)
  (-0.111946 0.00138825 0)
  (-0.119222 0.00390189 0)
  (-0.127832 0.00399692 0)
  (-0.135916 0.002947 0)
  (-0.142091 0.00120135 0)
  (-0.145406 -0.00109335 0)
  (-0.145073 -0.00390544 0)
  (-0.140287 -0.00731504 0)
  (-0.130012 -0.0113339 0)
  (-0.112889 -0.0160539 0)
  (-0.0887371 -0.0221843 0)
  (-0.0652121 -0.0310803 0)
  (-0.0707755 -0.0408352 0)
  (0.0262879 0.0135912 0)
  (-0.0384283 -0.0122188 0)
  (-0.0232077 -0.014034 0)
  (-0.0142705 -0.00842667 0)
  (-0.00731873 0.0030488 0)
  (-0.0191874 0.00633623 0)
  (-0.0247819 -0.00254026 0)
  (-0.0184626 -0.00824145 0)
  (-0.00931217 -0.00863209 0)
  (0.00233145 -0.00621815 0)
  (0.0100689 -0.00520409 0)
  (0.0165116 -0.00441952 0)
  (0.0218073 -0.00300528 0)
  (0.0236905 -0.000245678 0)
  (0.0205565 0.00225685 0)
  (0.022238 -0.00289893 0)
  (0.0285009 -0.0158899 0)
  (0.0451213 -0.0110152 0)
  (-0.0151951 0.0163885 0)
  (0.329551 0.152402 0)
  (-0.170223 0.0110373 0)
  (-0.10467 0.00963119 0)
  (-0.118918 0.0131531 0)
  (-0.129345 0.0134651 0)
  (-0.138414 0.0115206 0)
  (-0.145346 0.00802431 0)
  (-0.149511 0.00325409 0)
  (-0.150254 -0.00271901 0)
  (-0.147013 -0.00987165 0)
  (-0.139144 -0.0180181 0)
  (-0.125894 -0.026973 0)
  (-0.107089 -0.0371695 0)
  (-0.0845691 -0.0495623 0)
  (-0.0623634 -0.06234 0)
  (-0.0409226 -0.0680398 0)
  (0.0355061 0.006487 0)
  (0.141667 0.0183318 0)
  (0.0470905 0.00923256 0)
  (0.0105281 0.000337614 0)
  (-0.00104698 -0.00251948 0)
  (0.00449757 0.00448361 0)
  (0.00279689 0.0182007 0)
  (-0.000671492 0.00576595 0)
  (-0.00481926 -0.0114974 0)
  (-0.00676124 -0.0133038 0)
  (-0.00430958 -0.0100647 0)
  (-0.00300995 -0.00842971 0)
  (-0.00250741 -0.00705254 0)
  (-0.00175603 -0.00367161 0)
  (-0.00678822 0.00316632 0)
  (-0.00996289 0.003018 0)
  (0.00283904 -0.0127781 0)
  (0.00657569 -0.0241304 0)
  (0.0285364 -0.00960065 0)
  (-0.0930521 0.0468163 0)
  (0.50455 0.233006 0)
  (-0.217761 0.0381082 0)
  (-0.0890268 0.0254886 0)
  (-0.112659 0.0246419 0)
  (-0.124848 0.0232113 0)
  (-0.134948 0.0192968 0)
  (-0.142926 0.0132756 0)
  (-0.148434 0.00542952 0)
  (-0.151018 -0.00406932 0)
  (-0.15025 -0.0150666 0)
  (-0.146192 -0.0273486 0)
  (-0.138904 -0.0404815 0)
  (-0.128909 -0.0542153 0)
  (-0.117303 -0.067776 0)
  (-0.105653 -0.0778631 0)
  (-0.0973048 -0.078462 0)
  (-0.100793 -0.0673848 0)
  (0.0699086 0.0169688 0)
  (-0.0557672 0.0135211 0)
  (-0.0523801 0.00966823 0)
  (-0.0500166 0.000521557 0)
  (-0.0437408 -0.00595849 0)
  (-0.0361435 -0.00795259 0)
  (0.0291528 0.00690226 0)
  (0.0152942 -0.00800844 0)
  (-0.00676078 -0.0143982 0)
  (-0.0174944 -0.0115584 0)
  (-0.0265452 -0.00846967 0)
  (-0.0340849 -0.00488272 0)
  (-0.0397425 -0.00148131 0)
  (-0.0413042 0.000332726 0)
  (-0.035604 -0.00212767 0)
  (-0.00769002 -0.0118443 0)
  (-0.0300304 -0.00142758 0)
  (-0.0731842 0.0141473 0)
  (-0.180576 0.03131 0)
  (0.644011 0.299791 0)
  (-0.26387 0.0714176 0)
  (-0.0689375 0.0447803 0)
  (-0.102406 0.0382784 0)
  (-0.115821 0.0345986 0)
  (-0.125881 0.0287356 0)
  (-0.133954 0.0206172 0)
  (-0.139909 0.010355 0)
  (-0.143546 -0.0018702 0)
  (-0.144366 -0.0155669 0)
  (-0.143423 -0.0300445 0)
  (-0.141679 -0.0444864 0)
  (-0.140466 -0.0581002 0)
  (-0.141296 -0.0693301 0)
  (-0.146193 -0.0746159 0)
  (-0.158664 -0.0672447 0)
  (-0.177931 -0.0352627 0)
  (-0.173235 0.0330721 0)
  (-0.12873 0.0203053 0)
  (-0.129702 0.0142156 0)
  (-0.119482 0.00443662 0)
  (-0.117956 -0.00560044 0)
  (-0.118779 -0.0139888 0)
  (-0.122079 -0.0189967 0)
  (-0.118376 -0.0136746 0)
  (-0.104021 -0.0140394 0)
  (-0.0880964 -0.0164344 0)
  (-0.0696119 -0.0192379 0)
  (-0.0488746 -0.022153 0)
  (-0.027018 -0.02477 0)
  (-0.002241 -0.0261414 0)
  (0.0213863 -0.0241459 0)
  (0.0417333 -0.0211309 0)
  (0.0484052 -0.0164403 0)
  (0.0510325 0.00157567 0)
  (0.0521092 0.0105766 0)
  (-0.078168 0.0080609 0)
  (0.753671 0.35501 0)
  (-0.302754 0.107823 0)
  (-0.048349 0.0643289 0)
  (-0.088646 0.0521198 0)
  (-0.102656 0.0454773 0)
  (-0.111061 0.0373101 0)
  (-0.117277 0.0271595 0)
  (-0.121481 0.0148848 0)
  (-0.123654 0.000591857 0)
  (-0.123507 -0.0148824 0)
  (-0.122624 -0.0299838 0)
  (-0.122465 -0.043687 0)
  (-0.124305 -0.0554272 0)
  (-0.129032 -0.0644299 0)
  (-0.137092 -0.069336 0)
  (-0.147656 -0.0679084 0)
  (-0.155947 -0.0557369 0)
  (-0.156297 -0.0284922 0)
  (-0.146393 -0.00538064 0)
  (-0.132943 0.00343067 0)
  (-0.121186 0.000332792 0)
  (-0.114579 -0.00575079 0)
  (-0.111488 -0.0121265 0)
  (-0.109638 -0.0163943 0)
  (-0.105305 -0.0170132 0)
  (-0.0974794 -0.0198011 0)
  (-0.0876568 -0.0235676 0)
  (-0.0762363 -0.0276043 0)
  (-0.0636674 -0.0311932 0)
  (-0.0506921 -0.0336016 0)
  (-0.0377212 -0.0338519 0)
  (-0.0249734 -0.0313915 0)
  (-0.0123276 -0.0268023 0)
  (0.0010039 -0.020756 0)
  (0.0212073 -0.00801086 0)
  (0.0551396 0.006598 0)
  (0.0646711 0.0196289 0)
  (0.10229 0.0271398 0)
  (0.189044 0.0725395 0)
  (-0.480197 -0.0220912 0)
  (0.824265 0.4049 0)
  (-0.335241 0.141893 0)
  (-0.0331485 0.0776437 0)
  (-0.0699145 0.065415 0)
  (-0.0847827 0.0550118 0)
  (-0.0907738 0.0434552 0)
  (-0.0933799 0.0309514 0)
  (-0.0937839 0.0168161 0)
  (-0.0920687 0.000732355 0)
  (-0.0885328 -0.0160238 0)
  (-0.0858746 -0.0306365 0)
  (-0.0853616 -0.0423261 0)
  (-0.0878163 -0.0511776 0)
  (-0.0933853 -0.0569614 0)
  (-0.101615 -0.0586916 0)
  (-0.110906 -0.0547327 0)
  (-0.117584 -0.0439444 0)
  (-0.118413 -0.0289154 0)
  (-0.113263 -0.0156654 0)
  (-0.105093 -0.00879717 0)
  (-0.0976189 -0.00823975 0)
  (-0.0928474 -0.011076 0)
  (-0.0905695 -0.0152228 0)
  (-0.0895551 -0.0189656 0)
  (-0.088162 -0.0219632 0)
  (-0.0858508 -0.0259312 0)
  (-0.0830246 -0.0306236 0)
  (-0.0800581 -0.0352308 0)
  (-0.0773955 -0.0388293 0)
  (-0.0754577 -0.040654 0)
  (-0.074267 -0.0403151 0)
  (-0.0733156 -0.0381001 0)
  (-0.0717453 -0.0350152 0)
  (-0.0675452 -0.032046 0)
  (-0.0563142 -0.0298111 0)
  (-0.0349698 -0.0313734 0)
  (-0.00577897 -0.0408173 0)
  (0.0479987 -0.0274523 0)
  (0.155722 0.0616989 0)
  (-0.00530953 0.0995229 0)
  (0.844126 0.451775 0)
  (-0.350507 0.14651 0)
  (-0.0147248 0.0598252 0)
  (-0.0286507 0.0781824 0)
  (-0.0518494 0.065143 0)
  (-0.0590956 0.0448604 0)
  (-0.0576268 0.0286437 0)
  (-0.0530629 0.012662 0)
  (-0.0448231 -0.00493935 0)
  (-0.0381092 -0.0213352 0)
  (-0.0344013 -0.0333509 0)
  (-0.0341855 -0.0415074 0)
  (-0.0376011 -0.0469477 0)
  (-0.0442036 -0.0501401 0)
  (-0.0529747 -0.0505804 0)
  (-0.0622142 -0.0470667 0)
  (-0.0692488 -0.0391253 0)
  (-0.0721362 -0.028912 0)
  (-0.0708271 -0.0197621 0)
  (-0.0671646 -0.0141774 0)
  (-0.0634112 -0.0124458 0)
  (-0.06102 -0.0133167 0)
  (-0.0603505 -0.0155739 0)
  (-0.0610995 -0.0182562 0)
  (-0.062782 -0.0212138 0)
  (-0.0654048 -0.02487 0)
  (-0.0694004 -0.028911 0)
  (-0.075253 -0.0325146 0)
  (-0.083452 -0.0347805 0)
  (-0.0942453 -0.0352683 0)
  (-0.107273 -0.0342186 0)
  (-0.121552 -0.0324451 0)
  (-0.135909 -0.0311575 0)
  (-0.148547 -0.0319798 0)
  (-0.157564 -0.0376223 0)
  (-0.161505 -0.0519153 0)
  (-0.157157 -0.0742506 0)
  (-0.131707 -0.0847722 0)
  (-0.0351041 -0.0233617 0)
  (-0.139329 0.226763 0)
  (0.949719 0.477335 0)
  (-0.141381 0.129688 0)
  (0.0659453 0.0116233 0)
  (0.0925537 0.0583265 0)
  (0.0449601 0.058082 0)
  (0.0172537 0.0281809 0)
  (0.0147887 0.00774114 0)
  (0.0184235 -0.00768077 0)
  (0.0291964 -0.0204061 0)
  (0.0330176 -0.029987 0)
  (0.0328185 -0.0362676 0)
  (0.0295729 -0.0397833 0)
  (0.0235283 -0.0414246 0)
  (0.0150326 -0.041837 0)
  (0.00481607 -0.0410479 0)
  (-0.00598294 -0.0382857 0)
  (-0.0145826 -0.0331209 0)
  (-0.020095 -0.0265001 0)
  (-0.0223763 -0.0203544 0)
  (-0.0225045 -0.016128 0)
  (-0.021908 -0.01417 0)
  (-0.02167 -0.0139601 0)
  (-0.0223462 -0.0147888 0)
  (-0.0241545 -0.0160376 0)
  (-0.0272676 -0.0174756 0)
  (-0.0321554 -0.0190682 0)
  (-0.039531 -0.0203831 0)
  (-0.0501746 -0.0205983 0)
  (-0.0649129 -0.0189453 0)
  (-0.0843912 -0.0154107 0)
  (-0.108539 -0.0107198 0)
  (-0.13662 -0.00598469 0)
  (-0.169806 -0.00357092 0)
  (-0.207715 -0.00625574 0)
  (-0.249216 -0.0162486 0)
  (-0.291045 -0.0335785 0)
  (-0.325829 -0.0543021 0)
  (-0.355269 -0.0695152 0)
  (-0.425535 -0.0635385 0)
  (-0.686355 -0.0139584 0)
  (1.09436 0.434644 0)
  (0.528143 0.273017 0)
  (0.463797 0.216967 0)
  (0.407752 0.201661 0)
  (0.293874 0.156983 0)
  (0.223423 0.101227 0)
  (0.190094 0.0565947 0)
  (0.170361 0.0246095 0)
  (0.149754 0.000528401 0)
  (0.13077 -0.0161006 0)
  (0.115372 -0.026017 0)
  (0.102248 -0.0309595 0)
  (0.0901771 -0.0326292 0)
  (0.0784034 -0.0323286 0)
  (0.0665979 -0.0309075 0)
  (0.0549717 -0.0287766 0)
  (0.0445475 -0.0258342 0)
  (0.0362837 -0.022249 0)
  (0.0305859 -0.0188117 0)
  (0.0270145 -0.0163045 0)
  (0.0247211 -0.0150082 0)
  (0.0229229 -0.0146997 0)
  (0.0210802 -0.0149396 0)
  (0.0188512 -0.0152689 0)
  (0.015967 -0.0153645 0)
  (0.0120978 -0.0150096 0)
  (0.00694925 -0.0138631 0)
  (0.000375401 -0.0113128 0)
  (-0.00725221 -0.00671037 0)
  (-0.0147589 -7.05262e-05 0)
  (-0.021527 0.00807621 0)
  (-0.0298607 0.0167883 0)
  (-0.0387572 0.0248228 0)
  (-0.0484487 0.0293097 0)
  (-0.0597438 0.0265383 0)
  (-0.0760598 0.0125527 0)
  (-0.0972298 -0.0172485 0)
  (-0.0937955 -0.0725361 0)
  (-0.125148 -0.174298 0)
  (-0.583559 -0.304487 0)
  (-1.03266 0.19235 0)
  (0.206697 0.215623 0)
  (0.165741 0.15848 0)
  (0.169214 0.105107 0)
  (0.184445 0.0633252 0)
  (0.190218 0.032975 0)
  (0.18689 0.0117712 0)
  (0.17841 -0.00306844 0)
  (0.16757 -0.0127821 0)
  (0.155805 -0.018495 0)
  (0.143885 -0.0212528 0)
  (0.132268 -0.0220346 0)
  (0.121111 -0.0216626 0)
  (0.110407 -0.020737 0)
  (0.100334 -0.0195469 0)
  (0.091368 -0.018231 0)
  (0.0839927 -0.0169913 0)
  (0.0782939 -0.0160283 0)
  (0.0739587 -0.0154156 0)
  (0.0705187 -0.0150741 0)
  (0.0675477 -0.0148336 0)
  (0.0647325 -0.0144922 0)
  (0.0618664 -0.0138661 0)
  (0.0588169 -0.0127968 0)
  (0.0555741 -0.0111173 0)
  (0.0523155 -0.00865964 0)
  (0.0494455 -0.00522004 0)
  (0.0478948 -0.000184976 0)
  (0.0477321 0.00647958 0)
  (0.0493704 0.0139668 0)
  (0.0527322 0.0205817 0)
  (0.0571802 0.0241683 0)
  (0.0617475 0.0230895 0)
  (0.0650779 0.0176055 0)
  (0.0693003 0.00961688 0)
  (0.0805682 -0.00658347 0)
  (0.130687 -0.0822042 0)
  (-0.161011 -0.248964 0)
  (-0.517106 0.195295 0)
  (0.188576 0.131357 0)
  (0.0868035 0.0899827 0)
  (0.122525 0.0692149 0)
  (0.162946 0.0482366 0)
  (0.184646 0.0315789 0)
  (0.191865 0.0210261 0)
  (0.191381 0.0158703 0)
  (0.186736 0.0138453 0)
  (0.179954 0.0139442 0)
  (0.17208 0.0159001 0)
  (0.163905 0.0194025 0)
  (0.156003 0.0240665 0)
  (0.148688 0.0293597 0)
  (0.142086 0.0345788 0)
  (0.136242 0.0389372 0)
  (0.131157 0.0418091 0)
  (0.126736 0.0430168 0)
  (0.122779 0.0428827 0)
  (0.119058 0.0420157 0)
  (0.11541 0.0410457 0)
  (0.111783 0.0404666 0)
  (0.108248 0.0405696 0)
  (0.104988 0.041423 0)
  (0.102273 0.0429255 0)
  (0.10042 0.0449997 0)
  (0.09975 0.0476281 0)
  (0.100603 0.0492232 0)
  (0.103728 0.0499529 0)
  (0.109489 0.0508477 0)
  (0.117667 0.0516606 0)
  (0.1274 0.0513623 0)
  (0.137083 0.0488666 0)
  (0.144342 0.0434591 0)
  (0.146688 0.0332219 0)
  (0.141588 0.00622963 0)
  (0.162518 -0.0581681 0)
  (-0.162546 -0.181798 0)
  (0.0580313 -0.208895 0)
  (-0.221144 -0.0232654 0)
  (-0.305763 0.192171 0)
  (0.188148 0.0283172 0)
  (0.0718801 0.010803 0)
  (0.110903 0.0029478 0)
  (0.158578 -0.0104397 0)
  (0.187481 -0.0253216 0)
  (0.200863 -0.0397512 0)
  (0.205492 -0.05351 0)
  (0.205385 -0.0662228 0)
  (0.202391 -0.0778475 0)
  (0.197749 -0.0888772 0)
  (0.192487 -0.0996217 0)
  (0.187418 -0.110177 0)
  (0.18306 -0.1204 0)
  (0.179615 -0.129921 0)
  (0.176981 -0.138267 0)
  (0.174802 -0.145071 0)
  (0.1726 -0.150273 0)
  (0.169944 -0.154138 0)
  (0.166592 -0.157121 0)
  (0.162544 -0.159682 0)
  (0.157999 -0.162142 0)
  (0.153288 -0.164589 0)
  (0.148806 -0.166826 0)
  (0.144964 -0.168349 0)
  (0.142205 -0.168418 0)
  (0.141199 -0.166294 0)
  (0.142382 -0.160408 0)
  (0.146001 -0.150281 0)
  (0.152617 -0.137861 0)
  (0.162468 -0.125784 0)
  (0.174791 -0.116599 0)
  (0.187663 -0.112249 0)
  (0.198275 -0.114173 0)
  (0.20377 -0.124021 0)
  (0.197899 -0.137513 0)
  (0.200914 -0.161371 0)
  (-0.156547 -0.217706 0)
)
;

boundaryField
{
  floor
  {
    type noSlip;
  }
  ceiling
  {
    type noSlip;
  }
  sWall
  {
    type noSlip;
  }
  nWall
  {
    type noSlip;
  }
  sideWalls
  {
    type empty;
  }
  glass1
  {
    type noSlip;
  }
  glass2
  {
    type noSlip;
  }
  sun
  {
    type noSlip;
  }
  heatsource1
  {
    type noSlip;
  }
  heatsource2
  {
    type noSlip;
  }
  Table_master
  {
    type noSlip;
  }
  Table_slave
  {
    type noSlip;
  }
  inlet
  {
    type fixedValue;
    value uniform (0.0382683 -0.092388 0);
  }
  outlet
  {
    type zeroGradient;
  }
} 	// ************************************************************************* //

