/*--------------------------------*- C++ -*----------------------------------*\
  =========                 |
  \\      /  F ield         | OpenFOAM: The Open Source CFD Toolbox
   \\    /   O peration     | Website:  https://openfoam.org
    \\  /    A nd           | Version:  6
     \\/     M anipulation  |
\*---------------------------------------------------------------------------*/
FoamFile
{
    version     2.0;
    format      ascii;
    class       surfaceScalarField;
    location    "500";
    object      phi;
}
// * * * * * * * * * * * * * * * * * * * * * * * * * * * * * * * * * * * * * //

dimensions      [1 0 -1 0 0 0 0];

internalField   nonuniform List<scalar> 
852
(
-0.00235184
0.00238628
0.00104095
-0.00339342
0.00454978
-0.00350951
0.00675392
-0.00220482
0.00799315
-0.00123992
0.0086578
-0.000665318
0.00894713
-0.000289994
0.00896404
-1.75845e-05
0.00876733
0.000196037
0.00838117
0.00038548
0.00779938
0.000581082
0.0069735
0.000825166
0.00577683
0.00119594
0.0038501
0.001926
0.00384837
-0.00109966
0.00109469
-0.00172867
0.000628129
-0.00135815
-0.000371398
-0.000351519
-0.00100749
0.000796413
-0.00114879
0.00178798
-0.000992445
0.0024062
-0.000619123
0.00273236
-0.000327108
0.00295335
-0.000221979
0.0031243
-0.000171985
0.00323995
-0.000116714
0.00328673
-4.78773e-05
0.00325133
3.4315e-05
0.00311649
0.000133805
0.00284662
0.000268937
0.00237595
0.00046991
0.00165603
0.000719378
0.000615311
0.00104041
0.000607792
0.00121124
0.00127825
0.00406916
-0.00625197
0.00594352
-0.0053846
0.00709739
-0.00335945
0.00775937
-0.00190265
0.0080719
-0.000978592
0.00814268
-0.000361491
0.00802819
9.61833e-05
0.00775798
0.000465529
0.00735618
0.000786555
0.00683155
0.00110497
0.00618438
0.00147158
0.00543527
0.00194429
0.00479519
0.00256531
0.0053389
0.0033039
0.00253771
0.00280036
0.00253687
-0.000318204
0.00140006
-0.000190955
0.000500121
0.000465125
-0.00102831
0.00117553
-0.00171869
0.00183389
-0.00180793
0.00238456
-0.00154393
0.00252457
-0.000759955
0.0025561
-0.000359515
0.00259127
-0.000258082
0.00262544
-0.000207151
0.00265098
-0.000143287
0.00265861
-5.65691e-05
0.00264059
5.12783e-05
0.00259641
0.000176984
0.00248635
0.000378088
0.00214517
0.000810315
0.00158781
0.00127615
0.000885284
0.00174255
0.00147303
0.00588825
-0.00444852
0.00666343
-0.00702769
0.00659342
-0.00531539
0.0065901
-0.00335705
0.00658088
-0.00189437
0.00647484
-0.00087345
0.00627259
-0.000160107
0.00601047
0.000357472
0.00572932
0.000745858
0.00543832
0.00107675
0.00513313
0.00140935
0.00481595
0.00178795
0.00451465
0.00224477
0.0042779
0.00280125
0.00405242
0.00352858
0.00287064
0.00398135
0.00540672
0.000335557
0.00104487
0.00154184
-0.000706942
0.00215368
-0.00164094
0.00251684
-0.00208264
0.00282878
-0.00212064
0.00331971
-0.00203561
0.00255912
0.00219893
0.0019401
0.00173211
0.00158794
0.00153051
0.00158104
0.00175738
0.00213489
0.00189941
0.00104514
0.00156181
0.00161318
0.00103046
0.00227347
0.00247193
0.0044807
-0.00870728
0.004862
-0.00740982
0.00449357
-0.00494812
0.0040959
-0.00296065
0.00371619
-0.0015159
0.00337174
-0.000530139
0.00312967
8.0891e-05
0.00302957
0.000456627
0.00302749
0.000747044
0.00306312
0.00104025
0.00310655
0.00136504
0.0031533
0.00174034
0.00321635
0.00218087
0.00331366
0.0027031
0.00351615
0.00332526
0.00386202
0.00363467
0.00550554
0.00376239
0.00345557
0.00204114
0.00382816
0.000671432
0.00381015
-0.000689767
0.00377923
-0.00161083
0.00365829
-0.00196248
0.0034333
-0.00189639
0.00290331
-0.00150632
0.00352938
-0.000626908
0.00374248
-0.000213927
0.00378578
-4.41181e-05
0.00372069
6.42607e-05
0.00356429
0.000155577
0.00332698
0.000236478
0.00300592
0.000320222
0.00257249
0.000432571
0.00194201
0.000629607
0.001768
0.00121844
0.00152891
0.00185166
0.00128701
0.0025149
0.00371778
0.0014895
-0.00991014
0.00161351
-0.0075348
0.00180425
-0.00514015
0.00116218
-0.00231986
0.000588321
-0.000943201
0.000326558
-0.0002694
0.0003521
5.44219e-05
0.000534988
0.000272831
0.000774256
0.000506875
0.00103654
0.000777073
0.00131245
0.00108824
0.00160407
0.00144783
0.00193193
0.00185213
0.00234017
0.002294
0.00292426
0.00274033
0.00364125
0.00291686
0.0045137
0.00288913
0.00477498
0.00177904
0.00498693
0.000458644
0.00487159
-0.000575217
0.00450482
-0.00124482
0.00403732
-0.00149569
0.00354488
-0.00140463
0.00310336
-0.00106546
0.00301151
-0.000535713
0.00291247
-0.00011553
0.00273693
0.00013077
0.00252377
0.000276758
0.00229757
0.000381103
0.00206061
0.000472751
0.00180935
0.000570782
0.0015433
0.000697907
0.00128558
0.000886594
0.00122066
0.00128264
0.00134033
0.00173133
0.00192919
0.00192549
0.0031963
0.00245022
0.00163991
0.00155575
0.000277625
0.00136162
0.000235499
-0.000157075
-0.00939586
-0.000375315
-0.00731758
-0.000305941
-0.00521073
-0.00104368
-0.00158315
-0.00142278
-0.000565042
-0.00146411
-0.000228979
-0.00132899
-8.16e-05
-0.00110802
5.09642e-05
-0.000831503
0.000229452
-0.00051015
0.000454814
-0.000145072
0.000722258
0.000267554
0.0010343
0.000736915
0.00138189
0.00128583
0.00174423
0.00195297
0.00207235
0.002688
0.00218101
0.00353955
0.00203677
0.00411081
0.00120699
0.00427905
0.000289644
0.00411576
-0.000412648
0.00370887
-0.000838607
0.00318996
-0.000977446
0.00265418
-0.000869503
0.00217848
-0.000590412
0.00184881
-0.000206703
0.0016026
0.000130019
0.00139266
0.000340024
0.00120522
0.000463517
0.00103107
0.000554552
0.000865607
0.000637509
0.000709294
0.00072638
0.000572626
0.000833847
0.000482348
0.000976132
0.00053945
0.0012248
0.000761837
0.00150825
0.00108654
0.00160017
0.00134758
0.00218866
0.000780665
0.00212214
0.000137228
0.00200447
0.000327307
-0.000757671
-0.00820236
-0.0017353
-0.00634094
-0.00209892
-0.0048482
-0.00242304
-0.00125997
-0.00249364
-0.000495331
-0.00242576
-0.000297746
-0.00228895
-0.000219293
-0.00210219
-0.000136685
-0.00186725
-6.3767e-06
-0.00158498
0.00017166
-0.00125114
0.000387541
-0.00085437
0.000636656
-0.000378209
0.000904872
0.000192919
0.00117226
0.000857897
0.00140656
0.0015636
0.00147453
0.0022974
0.00130222
0.00273445
0.000769237
0.00280516
0.000218253
0.00259077
-0.000198916
0.00218855
-0.000437051
0.00169749
-0.000487045
0.00119268
-0.000365369
0.00073664
-0.000135059
0.00039718
0.000132061
0.000183365
0.000343126
4.52475e-05
0.000477425
-6.29892e-05
0.000571033
-0.000156973
0.000647809
-0.000239246
0.000719051
-0.00030538
0.000791776
-0.000343516
0.000871238
-0.000333395
0.000965257
-0.000214657
0.0011053
7.78068e-06
0.00128508
0.000240171
0.00136707
0.000519353
0.00190886
0.000382001
0.00225889
-0.000319538
0.00270527
-3.6477e-05
-0.00219918
-0.00547343
-0.00409236
-0.00444873
-0.00404312
-0.00489846
-0.003554
-0.00175002
-0.00319747
-0.000852746
-0.00299379
-0.000502301
-0.00284909
-0.000364877
-0.00271008
-0.000276566
-0.00254349
-0.000173835
-0.00233418
-3.85012e-05
-0.00207521
0.000127725
-0.00175581
0.000316421
-0.00136476
0.000513016
-0.000894371
0.000701089
-0.000339891
0.000851335
0.000237968
0.000895961
0.000745195
0.000794315
0.000986321
0.000527453
0.000962587
0.000241327
0.000735826
2.7161e-05
0.000373141
-7.506e-05
-5.54e-05
-5.92012e-05
-0.000470189
4.86943e-05
-0.000794085
0.000188099
-0.00098835
0.000325582
-0.00108602
0.000440046
-0.00113816
0.000528818
-0.00116893
0.000601047
-0.00118586
0.000663981
-0.00118809
0.000720524
-0.00116915
0.000772077
-0.0011181
0.00081941
-0.00102011
0.000866484
-0.000846679
0.000931075
-0.000581032
0.00101862
-0.000273948
0.00105916
0.000221947
0.00141219
0.000534306
0.0019458
0.00127634
0.00196246
0.001045
-0.00482173
-0.0092714
-0.00580653
-0.00836426
-0.00384138
-0.00371604
-0.00342979
-0.00126523
-0.00331324
-0.000619733
-0.00324752
-0.000431483
-0.00318834
-0.000336615
-0.00311027
-0.000252769
-0.00299488
-0.000154737
-0.00283356
-3.44185e-05
-0.00262219
0.000104252
-0.0023546
0.000244644
-0.00203326
0.000379002
-0.00167119
0.000488539
-0.00131952
0.000543604
-0.00105136
0.00052548
-0.000955848
0.000431262
-0.00103018
0.000314954
-0.00122535
0.000221605
-0.00148164
0.000180484
-0.00173961
0.000198007
-0.00194395
0.000252263
-0.00207544
0.000318814
-0.00213817
0.000387532
-0.00215033
0.000451424
-0.00213129
0.000509001
-0.00209174
0.000560708
-0.00203436
0.000605823
-0.00195719
0.000642561
-0.001855
0.000669092
-0.00172061
0.000684212
-0.00154488
0.000689919
-0.00130897
0.000694294
-0.000990234
0.000698952
-0.000623476
0.000691425
-5.72578e-05
0.000845005
0.000523337
0.00136433
0.00121919
0.00126574
0.00205389
-0.000659141
-0.00129538
-0.0028972
-0.00147883
-0.00339366
-0.000769651
-0.00358162
-0.000432654
-0.003688
-0.00032599
-0.00374954
-0.000275936
-0.00377475
-0.000228415
-0.00376118
-0.000169149
-0.00370358
-9.28367e-05
-0.00360015
1.43691e-08
-0.00346155
0.000105262
-0.00329139
0.000208091
-0.00310281
0.00029922
-0.00292582
0.000365886
-0.00279753
0.000396467
-0.00275269
0.000385687
-0.00278794
0.00034945
-0.00287649
0.000309394
-0.00298101
0.000284221
-0.00306545
0.000281648
-0.00311029
0.000296313
-0.00311292
0.000320642
-0.0030771
0.000350905
-0.00301025
0.000383758
-0.00291876
0.000416707
-0.00280627
0.0004474
-0.00267443
0.000473176
-0.00252404
0.000491345
-0.00235533
0.000499557
-0.00216829
0.000496317
-0.00196121
0.000481946
-0.00172592
0.000458066
-0.00145536
0.000427405
-0.00118981
0.000424833
-0.000952352
0.00060649
-0.00061985
0.00103084
-0.000158333
0.000803273
0.00185491
-0.00170036
0.000359142
-0.00307707
-0.000102971
-0.00370709
-0.000140503
-0.00402918
-0.000111443
-0.00424484
-0.000111182
-0.00441268
-0.000108946
-0.00454639
-9.55412e-05
-0.00464476
-7.16055e-05
-0.00470001
-3.84034e-05
-0.0047017
9.03661e-07
-0.00465684
5.96146e-05
-0.00457045
0.000120929
-0.00445175
0.000179747
-0.00431693
0.000230304
-0.00418709
0.000265858
-0.00408327
0.000281097
-0.00401334
0.000278731
-0.00397133
0.000266586
-0.00394184
0.000253928
-0.00390771
0.000246698
-0.00385789
0.000245675
-0.003788
0.000249931
-0.00369659
0.000258668
-0.00358392
0.000270269
-0.00345087
0.000282825
-0.0032987
0.00029439
-0.00312951
0.000303145
-0.00294661
0.000307588
-0.00275469
0.000306759
-0.00255982
0.000300554
-0.00236845
0.000289649
-0.00218537
0.000274018
-0.00201327
0.000254302
-0.00184233
0.000252856
-0.00158038
0.000343495
-0.00108541
0.000534856
-0.000849755
0.00056664
0.000952781
0.00474507
-0.00458383
-0.00431241
-0.0044989
-0.00472455
-0.00492258
-0.00512086
-0.00531706
-0.00549988
-0.00565875
-0.00578435
-0.00587041
-0.00589728
-0.00586242
-0.00576849
-0.00562399
-0.00544425
-0.00524992
-0.00505889
-0.00488111
-0.0047171
-0.00456134
-0.00440744
-0.00424997
-0.00408429
-0.00390739
-0.00371821
-0.00351759
-0.00330823
-0.00309426
-0.00288083
-0.00267316
-0.00247591
-0.00229379
-0.00213095
-0.00196891
-0.0017148
-0.00126727
-0.00078824
)
;

boundaryField
{
    floor
    {
        type            calculated;
        value           nonuniform List<scalar> 
29
(
0
0
0
0
0
0
0
0
0
0
0
0
0
0
0
0
0
0
0
0
7.29719e-06
1.97557e-05
3.1223e-05
4.07716e-05
9.80851e-07
4.12411e-06
1.2113e-05
1.90284e-05
8.01349e-06
)
;
    }
    ceiling
    {
        type            calculated;
        value           nonuniform List<scalar> 
43
(
0.000369605
0.000185431
8.68799e-05
8.2665e-05
8.42988e-05
8.57436e-05
8.62713e-05
8.64217e-05
8.64623e-05
8.64593e-05
8.63862e-05
8.61646e-05
8.56805e-05
8.52705e-05
8.50193e-05
8.5009e-05
8.53115e-05
8.59561e-05
8.68885e-05
8.79845e-05
8.90944e-05
9.01004e-05
9.09453e-05
9.16203e-05
9.21405e-05
9.25259e-05
9.27863e-05
9.29172e-05
9.29059e-05
9.27402e-05
9.242e-05
9.19684e-05
9.14437e-05
9.09339e-05
9.04731e-05
8.98094e-05
8.83774e-05
8.63367e-05
8.66479e-05
9.62505e-05
5.91986e-06
1.57499e-08
4.52219e-05
)
;
    }
    sWall
    {
        type            calculated;
        value           uniform 0.000201022;
    }
    nWall
    {
        type            calculated;
        value           nonuniform List<scalar> 6(4.12954e-05 4.45848e-05 4.34826e-05 3.97256e-05 5.14352e-05 6.73414e-05);
    }
    sideWalls
    {
        type            empty;
        value           nonuniform 0();
    }
    glass1
    {
        type            calculated;
        value           nonuniform List<scalar> 9(-3.51624e-05 -0.000103886 -0.000161591 -0.000222527 -0.000287292 -0.000357868 -0.000436522 -0.000530451 -0.000658312);
    }
    glass2
    {
        type            calculated;
        value           nonuniform List<scalar> 2(0.000194019 0.000209412);
    }
    sun
    {
        type            calculated;
        value           uniform 0;
    }
    heatsource1
    {
        type            calculated;
        value           nonuniform List<scalar> 3(1.94933e-07 1.95434e-07 1.95262e-07);
    }
    heatsource2
    {
        type            calculated;
        value           nonuniform List<scalar> 4(4.94129e-08 4.97061e-08 0 0);
    }
    Table_master
    {
        type            calculated;
        value           nonuniform List<scalar> 9(-1.47381e-07 -1.47595e-07 -1.47605e-07 -1.47553e-07 -1.4746e-07 -1.47338e-07 -1.47189e-07 -1.47015e-07 -1.46809e-07);
    }
    Table_slave
    {
        type            calculated;
        value           nonuniform List<scalar> 9(1.47072e-07 1.46968e-07 1.46869e-07 1.46789e-07 1.46733e-07 1.46709e-07 1.46712e-07 1.46742e-07 1.46803e-07);
    }
    inlet
    {
        type            calculated;
        value           uniform -0.00641048;
    }
    outlet
    {
        type            calculated;
        value           nonuniform List<scalar> 2(-0.00531538 0.00914305);
    }
}


// ************************************************************************* //
