/*--------------------------------*- C++ -*----------------------------------*\
  =========                 |
  \\      /  F ield         | OpenFOAM: The Open Source CFD Toolbox
   \\    /   O peration     | Website:  https://openfoam.org
    \\  /    A nd           | Version:  6
     \\/     M anipulation  |
\*---------------------------------------------------------------------------*/
FoamFile
{
    version     2.0;
    format      ascii;
    class       surfaceScalarField;
    location    "300";
    object      phi;
}
// * * * * * * * * * * * * * * * * * * * * * * * * * * * * * * * * * * * * * //

dimensions      [1 0 -1 0 0 0 0];

internalField   nonuniform List<scalar> 
852
(
-0.00269889
0.00276676
-0.00312249
0.000423646
-0.00365576
0.000533316
-0.00417919
0.000523478
-0.00464376
0.000464614
-0.0050264
0.000382686
-0.00530775
0.000281397
-0.00546646
0.000158752
-0.00547776
1.13465e-05
-0.00531116
-0.000166561
-0.00493794
-0.000373171
-0.00433685
-0.000601052
-0.00346167
-0.000875138
-0.00213182
-0.0013298
-0.00212887
0.000153055
-0.0001485
0.000628051
-0.000474925
0.00102667
-0.000398553
0.00131714
-0.00029041
0.00155266
-0.000235462
0.00173013
-0.000177413
0.0018
-6.98106e-05
0.00180209
-2.04023e-06
0.00178381
1.83342e-05
0.00175945
2.44088e-05
0.00173087
2.86323e-05
0.00169817
3.27529e-05
0.00165905
3.91784e-05
0.00160494
5.41579e-05
0.00151392
9.1074e-05
0.00135078
0.000163191
0.00111172
0.00023912
0.000852758
0.000259013
0.000858942
-0.0019721
0.00491854
-0.00268294
0.00113453
-0.0033594
0.00120982
-0.00392516
0.00108929
-0.0044089
0.000948397
-0.00480752
0.000781362
-0.00510817
0.000582093
-0.0052931
0.000343727
-0.00534183
6.01243e-05
-0.00523663
-0.00027172
-0.00496053
-0.000649221
-0.00449705
-0.00106449
-0.00384238
-0.00152976
-0.00311173
-0.00206041
-0.00276468
-0.00247588
-0.000486008
-0.00227868
-0.000485968
0.00086684
-0.00100555
0.000968333
-0.000576364
0.00103701
-0.00046718
0.00118427
-0.00043761
0.00136501
-0.000416146
0.00153057
-0.000342924
0.00155745
-9.66384e-05
0.00155327
2.1913e-06
0.00154948
2.21801e-05
0.00154629
2.76465e-05
0.00154277
3.22067e-05
0.00153893
3.66496e-05
0.00153425
4.39066e-05
0.00152554
6.29267e-05
0.00148391
0.000132757
0.00131173
0.000335424
0.00102073
0.000530173
0.000684743
0.000595062
0.00155925
-0.00146274
0.00665072
-0.00226791
0.00193975
-0.00294468
0.00188664
-0.00348066
0.00162531
-0.00394415
0.00141194
-0.00433631
0.00117357
-0.00464589
0.000891719
-0.00485641
0.000554295
-0.0049494
0.000153167
-0.00490893
-0.000312146
-0.00472788
-0.00083022
-0.00441608
-0.00137626
-0.00402
-0.00192579
-0.00364566
-0.0024347
-0.00333982
-0.00278167
-0.00269293
-0.00292552
-0.00317885
-0.000372265
-0.000619022
-4.47292e-05
-0.000903849
0.000371848
-0.000883707
0.000667185
-0.000732896
0.000908954
-0.000657865
0.00122132
-0.000655244
0.00112489
0.00112729
0.00114967
0.00117753
0.00120994
0.0012468
0.00129092
0.00135406
0.00148703
0.00123065
0.000591862
0.000914333
0.000846551
0.000550984
0.000958471
0.00213342
-0.00109739
0.00809005
-0.00190616
0.00274856
-0.0024364
0.00241693
-0.00287064
0.0020596
-0.003263
0.00180435
-0.00360787
0.00151849
-0.00389445
0.00117835
-0.00410763
0.000767517
-0.00422708
0.00027267
-0.00423198
-0.000307198
-0.00412247
-0.000939672
-0.00393501
-0.00156367
-0.00373722
-0.00212353
-0.00360098
-0.0025709
-0.00352342
-0.00285918
-0.00348988
-0.00295901
-0.00411053
-0.00255817
-0.00238532
-0.00171035
-0.00141411
-0.00159018
-0.000660558
-0.00165736
-0.000104201
-0.00144001
0.000244797
-0.00108184
0.0004541
-0.000867118
0.00049556
-0.000696653
0.000919591
-0.000424134
0.00125843
-0.000338941
0.0015631
-0.00030477
0.00183262
-0.000269624
0.00204491
-0.000212394
0.00216261
-0.000117795
0.00214087
2.16416e-05
0.00194216
0.000198603
0.00151242
0.000429636
0.00127319
0.000831155
0.0008558
0.00126399
0.000238723
0.00157561
0.00240214
-0.000810115
0.00930191
-0.00157821
0.0035167
-0.0018513
0.00269007
-0.00214175
0.00235011
-0.00242172
0.00208436
-0.00267197
0.0017688
-0.0028848
0.00139123
-0.00305127
0.000934032
-0.00315447
0.000375926
-0.00316295
-0.000298672
-0.0030745
-0.00102807
-0.00294234
-0.00169578
-0.00282674
-0.00223909
-0.00276258
-0.00263502
-0.00274903
-0.00287268
-0.00279333
-0.00291467
-0.00269807
-0.00265339
-0.00207999
-0.00232839
-0.0014073
-0.00226282
-0.000752054
-0.00231256
-0.000295007
-0.00189701
-9.7232e-06
-0.00136708
0.000192802
-0.00106959
0.000368833
-0.000872631
0.000649465
-0.000704712
0.000924628
-0.000614051
0.00118338
-0.000563471
0.00142409
-0.000510283
0.00163288
-0.000421129
0.00178104
-0.000265897
0.00182629
-2.35642e-05
0.00174264
0.00028231
0.00154967
0.000622655
0.00133703
0.00104385
0.00107256
0.00152851
0.000522025
0.0021262
0.000259191
0.00266503
-0.00122506
0.0014841
-0.0016879
0.000462697
-0.00162809
-0.00070624
0.0104605
-0.00137894
0.00418945
-0.00122783
0.002539
-0.00132845
0.00245078
-0.00148749
0.00224345
-0.00161749
0.00189884
-0.00171316
0.00148695
-0.00178031
0.00100123
-0.00181702
0.000412683
-0.00178404
-0.000331601
-0.00169024
-0.00112181
-0.00160123
-0.00178474
-0.00156047
-0.0022798
-0.00158188
-0.00261356
-0.00165826
-0.00279625
-0.00175062
-0.00282227
-0.00170693
-0.00269704
-0.00146601
-0.00256926
-0.00111036
-0.00261844
-0.000653754
-0.00276912
-0.000342616
-0.0022081
-0.000171036
-0.00153861
-3.29874e-05
-0.00120759
0.000109018
-0.00101458
0.000288001
-0.000883643
0.000482085
-0.000808082
0.000680708
-0.000762041
0.000881978
-0.0007115
0.00108134
-0.000620436
0.00126387
-0.000448379
0.00139658
-0.00015622
0.00144354
0.000235401
0.0014281
0.000638148
0.00141089
0.00106112
0.00145732
0.00148214
0.0015823
0.00200127
0.00206011
0.00218728
0.00233301
0.00121125
0.00194295
0.000852821
0.000386136
-0.000998159
0.0119546
-0.00113028
0.00432161
-0.000390659
0.00179943
-0.000299417
0.00235959
-0.000405947
0.00235003
-0.000457207
0.00195015
-0.000427468
0.00145725
-0.000350667
0.000924478
-0.000232738
0.000294803
-0.000104111
-0.00046018
-8.47251e-06
-0.0012174
9.78111e-06
-0.00180295
-5.92352e-05
-0.00221074
-0.000205259
-0.0024675
-0.000403473
-0.002598
-0.000604573
-0.00262113
-0.000734714
-0.00256686
-0.000772345
-0.0025316
-0.000714316
-0.00267643
-0.000469741
-0.00301365
-0.000323255
-0.00235454
-0.000286653
-0.00157516
-0.000260435
-0.00123375
-0.000218928
-0.00105604
-0.000152717
-0.000949799
-6.71663e-05
-0.00089358
3.52243e-05
-0.000864378
0.000156219
-0.000832443
0.000301502
-0.000765668
0.000480502
-0.000627328
0.000697905
-0.000373572
0.000900169
3.3188e-05
0.00106519
0.00047318
0.00125755
0.000868811
0.0015552
0.00118453
0.00204322
0.00151331
0.00280753
0.00142302
0.00343415
0.000584688
0.0035181
0.000768929
0.00397996
0.00215175
0.0103535
0.00256527
0.00390814
0.00221376
0.00215098
0.00188088
0.00269251
0.00154077
0.00269018
0.00137103
0.00211994
0.00139126
0.00143708
0.00152479
0.000790988
0.00175775
6.18913e-05
0.00195984
-0.000662222
0.00198045
-0.00123796
0.00184473
-0.00166719
0.00159687
-0.00196283
0.00127271
-0.0021433
0.000905123
-0.00223037
0.000532425
-0.00224839
0.000195336
-0.00222974
-8.92709e-05
-0.00224696
-0.000296135
-0.00246954
-0.00024537
-0.00306436
-0.000262592
-0.00233727
-0.000383633
-0.00145406
-0.00049705
-0.00112028
-0.000582875
-0.00097016
-0.000646403
-0.000886218
-0.000695683
-0.000844246
-0.000733225
-0.000826784
-0.000755279
-0.000810337
-0.000751416
-0.000769479
-0.000699289
-0.000679406
-0.000558361
-0.00051445
-0.000278484
-0.000246639
5.32485e-05
0.000141498
0.000393957
0.000528155
0.000771297
0.000807246
0.00124542
0.00103924
0.00169962
0.000968868
0.00175245
0.000531914
0.000835525
0.00168591
0.00514543
0.0109612
0.0148665
0.0118022
0.00521525
0.00959521
0.00489958
0.00784079
0.00444465
0.00666013
0.00330064
0.00593309
0.00216416
0.00551605
0.00120807
0.00516028
0.000417712
0.00473886
-0.000240756
0.00426826
-0.00076731
0.00375908
-0.00115797
0.00321866
-0.00142237
0.00265745
-0.00158205
0.00208957
-0.00166246
0.00153104
-0.00168983
0.000996294
-0.00169496
0.000493216
-0.00174386
7.70231e-05
-0.00205332
-7.5098e-06
-0.00297978
-0.000168404
-0.00217633
-0.000483772
-0.00113864
-0.000752189
-0.000851812
-0.000962283
-0.000760011
-0.00115253
-0.00069592
-0.00134507
-0.000651648
-0.00154866
-0.000623139
-0.00176796
-0.000590986
-0.00200774
-0.000529646
-0.00227386
-0.000413241
-0.00257081
-0.000217441
-0.00290433
8.69251e-05
-0.0032672
0.000504421
-0.00377492
0.00103592
-0.00461388
0.00164626
-0.0058363
0.00226171
-0.00753612
0.00266874
-0.00952234
0.00251818
-0.00878775
0.000951376
-0.0032736
0.00564789
0.00604454
0.00504134
0.00550616
0.00571053
0.00377549
0.00606661
0.0029446
0.00615375
0.00207707
0.00612942
0.00123244
0.00600214
0.000545029
0.00572911
3.23244e-05
0.00530481
-0.000342973
0.00477131
-0.00062443
0.00417006
-0.000821088
0.0035348
-0.000946756
0.00288946
-0.00101708
0.00224696
-0.0010473
0.00160559
-0.00105356
0.000947896
-0.00108613
0.000359213
-0.00146461
0.000147689
-0.00276819
-0.000170639
-0.00185795
-0.000695158
-0.00061407
-0.00106272
-0.000484195
-0.00131879
-0.000503887
-0.00156147
-0.000453182
-0.00182007
-0.000392991
-0.00209998
-0.000343182
-0.00239867
-0.000292242
-0.00270318
-0.000225076
-0.00298856
-0.000127817
-0.00321257
6.62541e-06
-0.00336807
0.000242473
-0.00347638
0.000612792
-0.00356864
0.00112822
-0.00367146
0.00174914
-0.0037326
0.0023229
-0.00363542
0.00257162
-0.00315658
0.00203939
-0.00176143
-0.000443719
-0.00494043
-0.000531631
0.00661913
0.00181344
0.00316112
0.00311818
0.00247079
0.00408637
0.00197644
0.00483699
0.00132649
0.00527391
0.000795556
0.00542292
0.000396056
0.00534097
0.000114312
0.00509818
-0.000100141
0.00473211
-0.000258328
0.00427891
-0.00036785
0.00377006
-0.00043787
0.00322849
-0.000475481
0.00266854
-0.000487309
0.00209427
-0.000479255
0.00149163
-0.000483471
0.00081578
-0.000788724
-4.49718e-05
-0.00190736
-0.000780736
-0.00112214
-0.00123039
-0.000164367
-0.00153122
-0.000183305
-0.00175873
-0.000276323
-0.00195642
-0.00025544
-0.00213686
-0.000212494
-0.00230573
-0.000174253
-0.0024652
-0.000132728
-0.00261115
-7.90636e-05
-0.0027347
-4.2165e-06
-0.00281474
8.67184e-05
-0.00278604
0.00021383
-0.00260531
0.000432105
-0.00223966
0.000762635
-0.00170958
0.00121911
-0.00102072
0.0016341
6.44127e-05
0.00148654
0.00139426
0.000709597
0.00161976
-0.000669165
-0.00321676
-0.00958141
-0.0121044
-0.00544592
-0.00225989
0.000231669
0.00222643
0.00357093
0.00438472
0.00479956
0.00493341
0.00485361
0.00461641
0.00427052
0.00385547
0.00340376
0.00294122
0.00248779
0.0020312
0.00127038
-0.000608589
-0.00170473
-0.00184411
-0.00200263
-0.0022542
-0.00248499
-0.00267299
-0.00282298
-0.00293178
-0.00298735
-0.00296866
-0.00285976
-0.00262458
-0.00217202
-0.00138987
-0.000152203
0.00149915
0.00300244
0.00372896
0.00307761
)
;

boundaryField
{
    floor
    {
        type            calculated;
        value           nonuniform List<scalar> 
29
(
0
0
0
0
0
0
0
0
0
0
0
0
0
0
0
0
0
0
0
0
-6.12896e-06
-1.55068e-05
-2.31292e-05
-2.99411e-05
-2.91244e-06
-4.48009e-06
-9.73231e-06
-1.42162e-05
-1.48126e-05
)
;
    }
    ceiling
    {
        type            calculated;
        value           nonuniform List<scalar> 
43
(
-4.16474e-05
-4.05242e-05
-3.93152e-05
-2.48852e-05
-2.07372e-05
-1.82883e-05
-1.79739e-05
-1.82038e-05
-1.87498e-05
-1.94989e-05
-2.03047e-05
-2.10974e-05
-2.19189e-05
-2.27931e-05
-2.37327e-05
-2.47369e-05
-2.57857e-05
-2.68416e-05
-2.78719e-05
-2.82999e-05
-2.59441e-05
-2.493e-05
-2.47346e-05
-2.46944e-05
-2.45957e-05
-2.44376e-05
-2.42082e-05
-2.38806e-05
-2.34357e-05
-2.28587e-05
-2.21199e-05
-2.12997e-05
-2.04032e-05
-1.94632e-05
-1.85015e-05
-1.7203e-05
-1.66967e-05
-1.68752e-05
-1.77621e-05
-1.82511e-05
5.60706e-06
2.91506e-06
-4.29411e-05
)
;
    }
    sWall
    {
        type            calculated;
        value           uniform -0.000243624;
    }
    nWall
    {
        type            calculated;
        value           nonuniform List<scalar> 6(-5.99594e-05 -7.12167e-05 -7.56653e-05 -9.45452e-05 -0.000103856 -0.00012084);
    }
    sideWalls
    {
        type            empty;
        value           nonuniform 0();
    }
    glass1
    {
        type            calculated;
        value           nonuniform List<scalar> 9(-6.78211e-05 -0.000179641 -0.000269389 -0.000341895 -0.000401703 -0.000452287 -0.00049589 -0.000550602 -0.000613296);
    }
    glass2
    {
        type            calculated;
        value           nonuniform List<scalar> 2(-0.000329899 -0.000368671);
    }
    sun
    {
        type            calculated;
        value           uniform 0;
    }
    heatsource1
    {
        type            calculated;
        value           nonuniform List<scalar> 3(2.05981e-07 2.05827e-07 2.05837e-07);
    }
    heatsource2
    {
        type            calculated;
        value           nonuniform List<scalar> 4(5.13085e-08 5.15917e-08 0 0);
    }
    Table_master
    {
        type            calculated;
        value           nonuniform List<scalar> 9(-1.54503e-07 -1.54596e-07 -1.54613e-07 -1.54626e-07 -1.54635e-07 -1.5464e-07 -1.54642e-07 -1.54637e-07 -1.54604e-07);
    }
    Table_slave
    {
        type            calculated;
        value           nonuniform List<scalar> 9(1.54565e-07 1.54502e-07 1.54408e-07 1.54324e-07 1.54259e-07 1.54229e-07 1.54241e-07 1.54263e-07 1.54348e-07);
    }
    inlet
    {
        type            calculated;
        value           uniform -0.00647716;
    }
    outlet
    {
        type            calculated;
        value           nonuniform List<scalar> 2(0.00986671 0.00256352);
    }
}


// ************************************************************************* //
