// -*- C++ -*-
// File generated by PyFoam - sorry for the ugliness

FoamFile
{
 version 2.0;
 format ascii;
 class volScalarField;
 location "300";
 object T;
}

dimensions [ 0 0 0 1 0 0 0 ];

internalField nonuniform List<scalar> 459
(
  302.433
  302.094
  302.085
  302.085
  302.085
  302.084
  302.084
  302.083
  302.082
  302.081
  302.079
  302.076
  302.071
  302.064
  302.058
  301.998
  301.966
  301.958
  301.952
  301.947
  301.943
  301.94
  301.937
  301.933
  301.93
  301.927
  301.923
  301.919
  301.915
  301.911
  301.906
  301.901
  301.895
  301.906
  302.675
  302.119
  302.093
  302.097
  302.101
  302.105
  302.108
  302.111
  302.113
  302.113
  302.11
  302.103
  302.09
  302.072
  302.049
  302.029
  301.982
  301.985
  301.968
  301.958
  301.949
  301.942
  301.936
  301.927
  301.919
  301.91
  301.902
  301.893
  301.885
  301.877
  301.869
  301.862
  301.857
  301.853
  301.85
  301.882
  302.912
  302.164
  302.114
  302.123
  302.136
  302.148
  302.158
  302.167
  302.173
  302.175
  302.171
  302.159
  302.137
  302.107
  302.073
  302.042
  302.021
  301.984
  301.97
  301.965
  301.957
  301.95
  301.944
  301.932
  301.919
  301.906
  301.893
  301.881
  301.869
  301.857
  301.846
  301.837
  301.832
  301.829
  301.828
  301.87
  303.134
  302.226
  302.138
  302.151
  302.173
  302.195
  302.215
  302.233
  302.246
  302.252
  302.25
  302.233
  302.202
  302.159
  302.11
  302.063
  302.024
  302.003
  301.987
  301.981
  301.978
  301.97
  301.962
  301.955
  301.948
  301.942
  301.938
  301.934
  301.93
  301.925
  301.919
  301.912
  301.904
  301.875
  301.848
  301.83
  301.867
  303.34
  302.306
  302.166
  302.175
  302.203
  302.234
  302.265
  302.295
  302.319
  302.334
  302.336
  302.319
  302.281
  302.228
  302.166
  302.106
  302.056
  302.02
  301.998
  301.989
  301.99
  301.982
  301.974
  301.968
  301.964
  301.96
  301.957
  301.954
  301.95
  301.944
  301.936
  301.926
  301.914
  301.893
  301.864
  301.838
  301.855
  301.908
  301.938
  301.953
  303.517
  302.406
  302.214
  302.194
  302.222
  302.258
  302.295
  302.334
  302.37
  302.398
  302.41
  302.396
  302.356
  302.296
  302.225
  302.154
  302.091
  302.04
  302.006
  301.992
  301.999
  301.992
  301.986
  301.982
  301.979
  301.977
  301.975
  301.973
  301.968
  301.961
  301.951
  301.937
  301.922
  301.902
  301.876
  301.849
  301.849
  301.868
  301.876
  301.914
  303.648
  302.574
  302.358
  302.26
  302.25
  302.275
  302.309
  302.346
  302.386
  302.432
  302.459
  302.45
  302.409
  302.346
  302.272
  302.195
  302.123
  302.06
  302.012
  301.992
  302.007
  302.001
  301.997
  301.995
  301.994
  301.994
  301.993
  301.991
  301.987
  301.979
  301.966
  301.948
  301.929
  301.909
  301.887
  301.862
  301.853
  301.858
  301.865
  301.897
  303.883
  303.072
  302.827
  302.6
  302.458
  302.395
  302.382
  302.396
  302.424
  302.47
  302.488
  302.47
  302.425
  302.363
  302.291
  302.216
  302.143
  302.074
  302.016
  301.989
  302.014
  302.01
  302.008
  302.008
  302.009
  302.01
  302.011
  302.01
  302.006
  301.999
  301.989
  301.972
  301.948
  301.929
  301.912
  301.897
  301.897
  301.919
  301.949
  302.129
  304.207
  303.866
  303.58
  303.286
  303.037
  302.854
  302.734
  302.662
  302.626
  302.586
  302.532
  302.468
  302.399
  302.33
  302.262
  302.195
  302.132
  302.072
  302.016
  301.986
  302.022
  302.019
  302.019
  302.021
  302.024
  302.027
  302.029
  302.03
  302.03
  302.029
  302.028
  302.03
  302.036
  302.049
  302.075
  302.113
  302.163
  302.21
  302.24
  302.31
  298.057
  300.566
  301.731
  302.14
  302.291
  302.346
  302.357
  302.35
  302.328
  302.295
  302.255
  302.213
  302.169
  302.126
  302.084
  302.043
  302.002
  301.983
  302.032
  302.029
  302.031
  302.036
  302.04
  302.045
  302.049
  302.054
  302.06
  302.065
  302.071
  302.078
  302.087
  302.101
  302.124
  302.154
  302.186
  302.212
  302.223
  302.235
  298.409
  300.513
  301.329
  301.73
  301.926
  302.017
  302.055
  302.064
  302.067
  302.064
  302.056
  302.046
  302.033
  302.02
  302.006
  301.991
  301.975
  301.981
  302.047
  302.043
  302.048
  302.053
  302.058
  302.062
  302.066
  302.071
  302.076
  302.082
  302.089
  302.096
  302.104
  302.116
  302.133
  302.154
  302.177
  302.196
  302.186
  302.215
  299.54
  299.491
  299.488
  300.786
  301.31
  301.666
  301.773
  301.83
  301.86
  301.876
  301.886
  301.895
  301.903
  301.911
  301.918
  301.925
  301.932
  301.938
  301.946
  301.985
  302.073
  302.08
  302.085
  302.089
  302.093
  302.096
  302.099
  302.102
  302.104
  302.106
  302.109
  302.112
  302.116
  302.122
  302.13
  302.148
  302.16
  302.167
  302.167
  302.203
)
;

boundaryField
{
  floor
  {
    type wallHeatTransfer;
    Tinf uniform 305.2;
    alphaWall uniform 0.24;
    value nonuniform List<scalar> 29
(
  302.445
  302.592
  302.475
  302.462
  302.461
  302.464
  302.471
  302.486
  302.503
  302.521
  302.538
  302.556
  302.573
  302.59
  302.607
  302.624
  302.643
  302.664
  302.674
  302.72
  302.72
  302.57
  302.485
  302.437
  302.445
  302.592
  302.415
  302.361
  302.337
)
;
  }
  ceiling
  {
    type wallHeatTransfer;
    Tinf uniform 303.2;
    alphaWall uniform 0.24;
    value nonuniform List<scalar> 43
(
  299.768
  299.713
  299.703
  300.921
  301.421
  301.764
  301.87
  301.928
  301.961
  301.981
  301.995
  302.009
  302.022
  302.035
  302.047
  302.059
  302.071
  302.084
  302.097
  302.139
  302.214
  302.215
  302.218
  302.223
  302.226
  302.228
  302.23
  302.231
  302.231
  302.23
  302.228
  302.227
  302.226
  302.226
  302.229
  302.24
  302.25
  302.257
  302.263
  302.301
  304.161
  303.84
  298.677
)
;
  }
  sWall
  {
    type wallHeatTransfer;
    Tinf uniform 315.2;
    alphaWall uniform 0.36;
    value uniform 300.96;
  }
  nWall
  {
    type wallHeatTransfer;
    Tinf uniform 307.2;
    alphaWall uniform 0.36;
    value nonuniform List<scalar> 6
(
  302.841
  302.777
  302.676
  302.903
  302.88
  302.906
)
;
  }
  sideWalls
  {
    type empty;
  }
  glass1
  {
    type wallHeatTransfer;
    Tinf uniform 315.2;
    alphaWall uniform 4.3;
    value nonuniform List<scalar> 9
(
  312.052
  311.163
  310.55
  310.061
  309.673
  309.357
  309.076
  309.114
  309.333
)
;
  }
  glass2
  {
    type wallHeatTransfer;
    Tinf uniform 307.2;
    alphaWall uniform 4.3;
    value nonuniform List<scalar> 2
(
  305.13
  305.296
)
;
  }
  sun
  {
    type wallHeatTransfer;
    Tinf uniform 305.2;
    alphaWall uniform 0.24;
    value nonuniform List<scalar> 14
(
  302.828
  302.526
  302.524
  302.513
  302.505
  302.497
  302.491
  302.485
  302.479
  302.474
  302.468
  302.462
  302.457
  302.45
)
;
  }
  heatsource1
  {
    type fixedGradient;
    gradient uniform 0;
  }
  heatsource2
  {
    type fixedGradient;
    gradient uniform 0;
  }
  Table_master
  {
    type zeroGradient;
  }
  Table_slave
  {
    type zeroGradient;
  }
  inlet
  {
    type fixedValue;
    value uniform 293.15;
  }
  outlet
  {
    type zeroGradient;
  }
} 	// ************************************************************************* //

