/*--------------------------------*- C++ -*----------------------------------*\
  =========                 |
  \\      /  F ield         | OpenFOAM: The Open Source CFD Toolbox
   \\    /   O peration     | Website:  https://openfoam.org
    \\  /    A nd           | Version:  6
     \\/     M anipulation  |
\*---------------------------------------------------------------------------*/
FoamFile
{
    version     2.0;
    format      ascii;
    class       volScalarField;
    location    "500";
    object      alphat;
}
// * * * * * * * * * * * * * * * * * * * * * * * * * * * * * * * * * * * * * //

dimensions      [1 -1 -1 0 0 0 0];

internalField   nonuniform List<scalar> 
459
(
0.000843283
0.000859329
0.000714085
0.000727199
0.000753879
0.000781678
0.000809676
0.000838088
0.000867883
0.000896551
0.000920979
0.000939305
0.000949768
0.000950618
0.000935849
0.000338128
0.000443688
0.000320156
0.000279392
0.000260694
0.00024869
0.000245269
0.000248823
0.00026232
0.000280612
0.000300661
0.000321149
0.000342267
0.000369028
0.000410952
0.000464154
0.000509664
0.000506332
0.000458478
0.00153616
0.00298115
0.00184714
0.00278832
0.00311194
0.00332769
0.00354844
0.00375898
0.00392935
0.00405503
0.00411449
0.00406185
0.00381982
0.00326078
0.00224882
0.00101898
0.000678279
0.000481414
0.00193799
0.00113444
0.000826048
0.000622088
0.000447317
0.000386827
0.000375857
0.000426508
0.000518668
0.000649977
0.000819125
0.00101764
0.00118063
0.00137139
0.00171556
0.0015034
0.00124849
0.000521476
0.00213715
0.00529559
0.0021727
0.00346111
0.00462595
0.0050052
0.00526201
0.00547924
0.00564555
0.00575802
0.00579077
0.00569043
0.00537026
0.0047093
0.00362292
0.002277
0.00110311
0.000814241
0.00266947
0.00213101
0.00172544
0.00138546
0.00103018
0.000288066
0.000275747
0.000340176
0.00040435
0.000465793
0.000527897
0.000595436
0.000676344
0.000788062
0.00223255
0.00206922
0.00157911
0.000802619
0.00268541
0.00800895
0.0031672
0.00326987
0.00513626
0.00580894
0.00613744
0.00639714
0.00661347
0.00678865
0.00692265
0.00696608
0.00682684
0.00636022
0.00539517
0.00388936
0.00224771
0.00128309
0.00314792
0.00338924
0.00318
0.00264574
0.00207051
0.00142759
0.000904896
0.000889046
0.000876716
0.000867188
0.000863904
0.000872374
0.000899644
0.000954268
0.0010509
0.00310612
0.0032806
0.00289279
0.00112104
0.00317635
0.0107433
0.0050439
0.00338134
0.00482532
0.00579261
0.00628342
0.0066462
0.00695832
0.00725158
0.00758226
0.00792361
0.00821885
0.00838834
0.00834188
0.00801305
0.00742509
0.00675598
0.00653427
0.00636381
0.00626002
0.00609989
0.00586864
0.00559539
0.00530485
0.00509511
0.00485123
0.00457223
0.00428412
0.00403501
0.00387691
0.00383677
0.00390855
0.00409087
0.00410664
0.00403504
0.0035036
0.00150916
0.00131283
0.00113647
0.0036235
0.0130774
0.00802792
0.00488525
0.00442685
0.00499676
0.00563448
0.00615115
0.00654385
0.00694832
0.00745582
0.00805181
0.00868313
0.00927305
0.00973458
0.00998681
0.00997824
0.00973153
0.00936765
0.00899103
0.00867922
0.00844921
0.0082625
0.00807687
0.00785366
0.00757576
0.00722323
0.00678283
0.00625871
0.00569543
0.00518184
0.00480353
0.00457769
0.00445363
0.00435785
0.00421598
0.00390079
0.00328989
0.00244359
0.00119644
0.00400058
0.0144674
0.011522
0.00805647
0.00575084
0.0049038
0.00502623
0.00543461
0.00574766
0.00611844
0.00663738
0.00733483
0.00817041
0.00904704
0.0098454
0.0104507
0.0107703
0.0107911
0.0105889
0.0102894
0.0100026
0.00977715
0.00960298
0.00944923
0.00928136
0.00907735
0.00881843
0.00847267
0.00799614
0.00735908
0.00660101
0.00585895
0.00527069
0.00486158
0.00455508
0.00423991
0.00380616
0.00321128
0.00250841
0.00120135
0.00401785
0.0130524
0.0116758
0.0105317
0.00852008
0.00689031
0.00601816
0.00568289
0.00558041
0.00560561
0.00580978
0.00625141
0.00695828
0.00788104
0.00887967
0.00978177
0.0104022
0.0107023
0.010737
0.0106078
0.0104221
0.010248
0.010106
0.00999003
0.00988545
0.00978374
0.00967988
0.00955727
0.00937454
0.00905929
0.0085336
0.00779935
0.00695891
0.00617808
0.00552779
0.00496134
0.00442496
0.00388806
0.00345809
0.0017528
0.00382852
0.00441966
0.00977982
0.0105051
0.00932583
0.00798132
0.00691706
0.00618915
0.00572509
0.00546556
0.00540722
0.00554964
0.00591407
0.00652357
0.00734114
0.00823291
0.0090137
0.0095644
0.00986332
0.00996108
0.00993852
0.00986504
0.00978177
0.00970631
0.00964413
0.0096012
0.00958751
0.00961162
0.00967093
0.00973471
0.00971527
0.0095039
0.00910986
0.00867017
0.00841352
0.00832122
0.00783926
0.00675933
0.0068132
0.00194217
0.0209758
0.0197281
0.0114165
0.00898153
0.00769037
0.00684476
0.00627692
0.00590921
0.0056938
0.00561119
0.00566311
0.00586012
0.00620944
0.00669308
0.00724708
0.00777875
0.00820856
0.0085013
0.00866698
0.00873868
0.00875062
0.00873051
0.00869927
0.00867459
0.00867423
0.00871622
0.00881559
0.00897356
0.00914852
0.00927321
0.00929341
0.00918131
0.00896642
0.00857711
0.00783684
0.00674932
0.0057002
0.00188139
0.00755805
0.0157671
0.0110848
0.00868764
0.00735944
0.00652612
0.00598856
0.00565516
0.00547089
0.00540763
0.00545252
0.00559393
0.00580852
0.00608098
0.0063917
0.00671055
0.00700232
0.00723958
0.00741126
0.00751989
0.00756435
0.00756009
0.00752699
0.00748296
0.00744289
0.00741855
0.00741826
0.00744382
0.00746936
0.00748359
0.00746852
0.0074005
0.00721802
0.00681508
0.00621249
0.00534145
0.00504274
0.00172308
0.00199224
0.0029798
0.00543941
0.00494292
0.00409814
0.00343716
0.00295315
0.00259379
0.00231995
0.00210715
0.00194112
0.00181305
0.00171583
0.00164471
0.00159746
0.00157048
0.00155956
0.00155983
0.00156607
0.00157348
0.00157863
0.00157986
0.00157824
0.00157368
0.00156634
0.00155681
0.00154587
0.00153428
0.00152266
0.00151141
0.00150331
0.00149736
0.00148923
0.00147283
0.00144495
0.00141367
0.00137525
0.00132783
0.00135318
0.00124235
)
;

boundaryField
{
    floor
    {
        type            compressible::alphatWallFunction;
        Prt             0.85;
        value           nonuniform List<scalar> 
29
(
0.000133239
4.37882e-05
6.04041e-05
4.08887e-05
3.42606e-05
3.11757e-05
2.91765e-05
2.86055e-05
2.92005e-05
3.14535e-05
3.44857e-05
3.77804e-05
4.11183e-05
4.4532e-05
4.88236e-05
5.54657e-05
6.37695e-05
7.077e-05
7.02472e-05
6.28677e-05
6.28669e-05
7.25439e-05
0.000114256
0.000159353
0.000133237
4.37876e-05
6.63247e-05
0.000115735
0.000181542
)
;
    }
    ceiling
    {
        type            compressible::alphatWallFunction;
        Prt             0.85;
        value           nonuniform List<scalar> 
43
(
0.000276535
0.000402359
0.000699325
0.00064068
0.000539537
0.000458934
0.000398909
0.000353681
0.000318774
0.000291342
0.000269731
0.000252923
0.000240075
0.000230624
0.000224317
0.000220704
0.000219236
0.000219268
0.000220098
0.000221086
0.000221773
0.000221934
0.000221714
0.000221102
0.000220118
0.000218839
0.000217372
0.000215816
0.000214254
0.000212741
0.000211651
0.000210847
0.00020975
0.000207538
0.000203777
0.000199544
0.000194333
0.000187879
0.000191327
0.000176177
0.000506758
0.000578161
0.000944123
)
;
    }
    sWall
    {
        type            compressible::alphatWallFunction;
        Prt             0.85;
        value           uniform 0.000275588;
    }
    nWall
    {
        type            compressible::alphatWallFunction;
        Prt             0.85;
        value           nonuniform List<scalar> 6(0.000161247 0.000169544 0.000170226 0.000261482 0.00024062 0.000175869);
    }
    sideWalls
    {
        type            empty;
    }
    glass1
    {
        type            compressible::alphatWallFunction;
        Prt             0.85;
        value           nonuniform List<scalar> 9(0.000116762 0.000211149 0.00028936 0.000358805 0.000419831 0.000474632 0.000520358 0.000522594 0.000499958);
    }
    glass2
    {
        type            compressible::alphatWallFunction;
        Prt             0.85;
        value           nonuniform List<scalar> 2(0.000243522 0.000268328);
    }
    sun
    {
        type            compressible::alphatWallFunction;
        Prt             0.85;
        value           nonuniform List<scalar> 
14
(
0.000120043
0.000122328
0.000101282
0.000103203
0.000107098
0.000111138
0.00011519
0.000119284
0.00012356
0.000127658
0.000131138
0.00013374
0.000135222
0.000135339
)
;
    }
    heatsource1
    {
        type            compressible::alphatWallFunction;
        Prt             0.85;
        value           nonuniform List<scalar> 3(0.000212368 0.000185778 0.00016151);
    }
    heatsource2
    {
        type            compressible::alphatWallFunction;
        Prt             0.85;
        value           nonuniform List<scalar> 4(0.000145076 9.61174e-05 9.61163e-05 0.000156828);
    }
    Table_master
    {
        type            compressible::alphatWallFunction;
        Prt             0.85;
        value           nonuniform List<scalar> 9(3.57882e-05 3.37625e-05 4.42738e-05 5.44912e-05 6.40805e-05 7.36118e-05 8.38196e-05 9.58616e-05 0.000112204);
    }
    Table_slave
    {
        type            compressible::alphatWallFunction;
        Prt             0.85;
        value           nonuniform List<scalar> 9(0.000128958 0.0001267 0.00012494 0.000123577 0.000123107 0.00012432 0.000128217 0.000135983 0.000149594);
    }
    inlet
    {
        type            fixedValue;
        value           uniform 1.94e-05;
    }
    outlet
    {
        type            zeroGradient;
    }
}


// ************************************************************************* //
