/*--------------------------------*- C++ -*----------------------------------*\
  =========                 |
  \\      /  F ield         | OpenFOAM: The Open Source CFD Toolbox
   \\    /   O peration     | Website:  https://openfoam.org
    \\  /    A nd           | Version:  6
     \\/     M anipulation  |
\*---------------------------------------------------------------------------*/
FoamFile
{
    version     2.0;
    format      ascii;
    class       surfaceScalarField;
    location    "500";
    object      phi;
}
// * * * * * * * * * * * * * * * * * * * * * * * * * * * * * * * * * * * * * //

dimensions      [1 0 -1 0 0 0 0];

internalField   nonuniform List<scalar> 
852
(
-0.00230333
0.00236446
-0.00233297
2.97718e-05
-0.00232121
-1.16132e-05
-0.00239268
7.16036e-05
-0.00249058
9.80385e-05
-0.00258072
9.02768e-05
-0.00264294
6.23573e-05
-0.00266159
1.87951e-05
-0.00262181
-3.96386e-05
-0.00250738
-0.000114283
-0.00230258
-0.000204649
-0.00199327
-0.000309152
-0.00155473
-0.000438369
-0.000916467
-0.000638081
-0.000914453
-0.00056522
0.000570182
-0.000435173
-0.000129946
-0.00028487
-0.000150199
-0.000203339
-8.1452e-05
-0.000170633
-3.26503e-05
-0.000137484
-3.31106e-05
-8.7157e-06
-0.00012874
0.000186615
-0.0001953
0.000363268
-0.000176621
0.000502275
-0.000138979
0.000601393
-9.90957e-05
0.0006635
-6.20944e-05
0.000689374
-2.58731e-05
0.000670503
1.88564e-05
0.000619334
5.1136e-05
0.000572664
4.66247e-05
0.000645539
-7.28859e-05
0.000648771
-3.15329e-06
0.00065247
-0.00164674
0.00416551
-0.00207301
0.000456191
-0.00223457
0.000150097
-0.00235194
0.000189116
-0.00246118
0.000207418
-0.00255404
0.000183287
-0.00261991
0.000128375
-0.00264819
4.72324e-05
-0.00262842
-5.92423e-05
-0.00255
-0.000192534
-0.00239996
-0.000354509
-0.00216287
-0.000546059
-0.00182779
-0.000773237
-0.00142968
-0.00103597
-0.00107383
-0.00127007
0.000139095
-0.00121273
0.000139182
0.000121506
0.000460437
-1.27287e-05
4.38971e-06
-9.37947e-05
-6.89514e-05
-6.9443e-05
-0.000105584
-5.88433e-06
-9.59868e-05
-0.000143872
0.000104982
-0.000123038
-0.000149527
-7.99845e-05
-0.000238303
-5.41635e-05
-0.000202365
-4.15813e-05
-0.000151466
-4.09176e-05
-9.96583e-05
-5.52298e-05
-4.76877e-05
-9.3664e-05
1.26486e-05
-0.000145581
7.08607e-05
-0.000186572
9.21942e-05
-0.0001962
5.63006e-05
-0.000280569
1.15324e-05
-0.000344061
6.04223e-05
0.000318174
-0.00119553
0.00558678
-0.00176973
0.00103055
-0.00203223
0.000412742
-0.00219481
0.000351847
-0.00231842
0.00033118
-0.00241588
0.000280898
-0.00248837
0.000201027
-0.00253251
9.15411e-05
-0.00254348
-4.80999e-05
-0.00251695
-0.000218876
-0.00244885
-0.000422411
-0.00233613
-0.000658563
-0.00218418
-0.000924955
-0.00201778
-0.00120211
-0.00186234
-0.00142523
-0.00157839
-0.00149638
-0.00143891
-0.000239025
0.000712601
-0.000570959
0.000336577
-0.000716034
7.64105e-05
-0.000730189
-9.10962e-05
-0.000599075
-0.000226754
-7.51125e-05
-0.000418632
-0.000224391
-0.000462415
-0.000664407
-0.000815433
-0.000914622
-0.000961848
-0.000948784
-0.000877572
-0.000785096
-0.000548808
-0.000179917
-0.000547271
1.00171e-05
-0.000569536
8.26272e-05
-0.000242602
-0.000867136
0.00673762
-0.00149051
0.00165408
-0.00178556
0.000707947
-0.00197556
0.000542004
-0.00210146
0.000457233
-0.0021888
0.0003684
-0.00225118
0.000263577
-0.00229475
0.000135276
-0.00232169
-2.09772e-05
-0.00233513
-0.000205241
-0.0023426
-0.00041474
-0.00235444
-0.000646495
-0.0023879
-0.000891247
-0.00246693
-0.00112281
-0.00259921
-0.00129265
-0.00276259
-0.00133267
-0.00314432
-0.00105683
-0.00263167
-0.000503414
-0.00202764
0.000108945
-0.00193616
0.000245422
-0.0019477
8.8278e-05
-0.0019794
-5.9074e-05
-0.00201354
-0.00019228
-0.00217214
-0.000259694
-0.00197532
-0.000196622
-0.00179381
-0.000181317
-0.00161518
-0.000178426
-0.00144323
-0.000171742
-0.00128352
-0.000159512
-0.00113903
-0.000144292
-0.00100458
-0.000134266
-0.000861042
-0.000143393
-0.000674068
-0.000186875
-0.000579602
-0.000274198
-0.000272948
-0.000296512
8.27037e-05
-0.000272982
-0.000152357
-0.000628409
0.00769928
-0.00126892
0.00229475
-0.00150525
0.000944446
-0.00168462
0.000721546
-0.00180492
0.000577694
-0.001866
0.000429652
-0.00189098
0.000288722
-0.00189946
0.000143933
-0.00190376
-1.65006e-05
-0.00191477
-0.000194041
-0.00194694
-0.000382364
-0.00201382
-0.00057939
-0.00212688
-0.000777948
-0.00229134
-0.000958076
-0.00250087
-0.00108283
-0.00274256
-0.00109066
-0.00290545
-0.000893574
-0.00287218
-0.000536308
-0.00258268
-0.000180147
-0.00230783
-2.90587e-05
-0.0021619
-5.73036e-05
-0.00208667
-0.00013397
-0.00205969
-0.000218934
-0.00205153
-0.000267526
-0.00197605
-0.000271776
-0.00188374
-0.000273299
-0.00178978
-0.000272068
-0.00169738
-0.000263818
-0.00160854
-0.000248039
-0.00152232
-0.000230199
-0.00143244
-0.000223857
-0.00132515
-0.000250425
-0.00118083
-0.000330954
-0.000987337
-0.000467489
-0.000630042
-0.000653625
-5.25153e-07
-0.000902332
0.000987535
-0.00114024
0.00198906
-0.00100153
0.0018572
0.000131875
0.00189086
-0.000594471
0.00867063
-0.00117166
0.00287211
-0.00111343
0.000886403
-0.00118169
0.00078999
-0.00133662
0.00073281
-0.00139806
0.000491276
-0.00137969
0.000270524
-0.00133065
9.508e-05
-0.00128354
-6.34345e-05
-0.00126133
-0.000216065
-0.00128132
-0.000362178
-0.00135554
-0.000504968
-0.00148821
-0.000645052
-0.00167379
-0.000772251
-0.00189611
-0.000860237
-0.00212145
-0.00086502
-0.00226868
-0.000746031
-0.00227715
-0.000527499
-0.00214449
-0.000312455
-0.00197954
-0.000193667
-0.00186175
-0.000174768
-0.0017913
-0.000204095
-0.0017607
-0.000249226
-0.00174551
-0.000282406
-0.0017211
-0.000295879
-0.00169304
-0.000301055
-0.00166739
-0.000297415
-0.00164813
-0.000282775
-0.00163831
-0.000257571
-0.00163962
-0.000228601
-0.00165085
-0.000212354
-0.00166596
-0.000235056
-0.00167205
-0.000324633
-0.00163799
-0.00050134
-0.00150479
-0.000786614
-0.00120206
-0.00120486
-0.000613839
-0.00172824
0.000422156
-0.00203729
0.00107845
-0.00052416
0.00300905
-0.000810516
0.00989874
-0.000788604
0.00285038
-0.000167423
0.000265419
-7.62042e-05
0.000698984
-0.000365475
0.00102229
-0.000538501
0.000664511
-0.000548426
0.000280652
-0.000484443
3.1295e-05
-0.000412898
-0.000134786
-0.000374633
-0.000254139
-0.00038574
-0.000350881
-0.000458271
-0.000432242
-0.000594029
-0.000509089
-0.00078307
-0.000582988
-0.00100315
-0.000639912
-0.0012165
-0.000651406
-0.00137097
-0.000591274
-0.00142623
-0.00047194
-0.00139192
-0.000346448
-0.0013213
-0.000263978
-0.00126171
-0.00023405
-0.00122765
-0.000237853
-0.00121948
-0.000257093
-0.00122626
-0.000275341
-0.00123693
-0.000284915
-0.00125117
-0.000286536
-0.00127133
-0.000276974
-0.00130197
-0.000251856
-0.00135097
-0.000208288
-0.00143072
-0.00014858
-0.00155686
-8.59494e-05
-0.00174112
-5.05418e-05
-0.00198148
-8.40276e-05
-0.00225619
-0.000226407
-0.00253034
-0.000512237
-0.00277135
-0.000963628
-0.00292358
-0.00157579
-0.00279061
-0.00217002
-0.00137661
-0.0019379
0.00167923
0.00177814
0.00859037
0.00256977
0.00205891
0.00266969
0.000165694
0.00211964
0.00124925
0.00155553
0.00158662
0.00121212
0.00100815
0.00101449
0.000478514
0.000894428
0.000151575
0.000826082
-6.62271e-05
0.000783121
-0.000210974
0.000723412
-0.000290972
0.000626237
-0.00033487
0.000483672
-0.000366323
0.000297523
-0.000396631
8.21176e-05
-0.000424285
-0.000130806
-0.000438243
-0.000300653
-0.000421171
-0.000401073
-0.000371249
-0.000438069
-0.00030917
-0.000441217
-0.000260542
-0.000439651
-0.000235328
-0.000447997
-0.000229223
-0.000470584
-0.000234227
-0.000503862
-0.00024179
-0.00054226
-0.000246249
-0.000583633
-0.000244898
-0.000627
-0.000233347
-0.000672821
-0.000205777
-0.000724729
-0.000156125
-0.000792793
-8.02611e-05
-0.000900615
2.2126e-05
-0.0010986
0.000147693
-0.00145469
0.000272308
-0.00200945
0.00032859
-0.00274554
0.000224078
-0.003633
-7.59557e-05
-0.00475888
-0.000449692
-0.00617473
-0.000753974
-0.00614928
-0.00196316
-0.00428012
0.0091089
0.0111585
0.00885343
0.00247095
0.00588064
0.00422225
0.00450164
0.00296585
0.00369132
0.00181869
0.00314502
0.00102504
0.00276276
0.000534054
0.00246504
0.000231714
0.00221608
3.82011e-05
0.00200673
-8.14028e-05
0.00182321
-0.00015114
0.00164589
-0.000188801
0.00146107
-0.000211593
0.00126577
-0.000228776
0.00107035
-0.000242589
0.000896285
-0.000246875
0.00076176
-0.000236477
0.00066871
-0.000215863
0.000604034
-0.000195604
0.000551723
-0.000182752
0.000501031
-0.000178267
0.000446181
-0.000179116
0.000386555
-0.000181907
0.00032426
-0.000183703
0.000261513
-0.000181906
0.000201301
-0.000172893
0.000147625
-0.000151864
0.000104975
-0.00011324
7.66017e-05
-5.16569e-05
6.19083e-05
3.70488e-05
6.04124e-05
0.000149417
7.25814e-05
0.000260367
9.60901e-05
0.000305307
0.000107973
0.000212415
7.41601e-05
-4.19288e-05
3.41067e-05
-0.000409431
0.000102864
-0.000822531
-5.60673e-05
-0.00180402
-0.0041302
-0.00169474
0.002858
0.000312167
0.00221562
0.00190711
0.00137113
0.00261987
0.00110616
0.00288839
0.000756742
0.0029826
0.000440076
0.00299146
0.000223085
0.00294465
8.52388e-05
0.00286539
-1.90651e-06
0.00276887
-5.43992e-05
0.00266055
-8.02515e-05
0.00254151
-9.23355e-05
0.00240922
-9.62638e-05
0.00226477
-9.79087e-05
0.00211608
-9.79571e-05
0.0019747
-9.48715e-05
0.00184872
-8.96456e-05
0.00173911
-8.57537e-05
0.00164236
-8.5764e-05
0.00155421
-8.98655e-05
0.0014699
-9.45652e-05
0.00138735
-9.91186e-05
0.00130639
-0.000102517
0.00122791
-0.000103194
0.00115428
-9.90312e-05
0.00108995
-8.73193e-05
0.00104176
-6.48271e-05
0.00101821
-2.78969e-05
0.0010277
2.7762e-05
0.00108122
9.61084e-05
0.00118367
0.000158118
0.00132367
0.000165511
0.00147062
6.5669e-05
0.00158235
-0.000153463
0.00166051
-0.000487395
0.00176906
-0.000930892
0.00166092
-0.0016957
-0.00242434
-0.000589768
0.00343204
0.00117553
0.000450624
0.00199569
0.000551259
0.00262829
0.000473835
0.00309969
0.000285603
0.0033866
0.000153425
0.00353705
7.28919e-05
0.00360038
2.21596e-05
0.00360546
-6.73246e-06
0.00356479
-1.34808e-05
0.00349496
-1.01863e-05
0.00340387
-1.00764e-06
0.00329721
1.06264e-05
0.00317898
2.05565e-05
0.00305417
2.70749e-05
0.00292996
2.95695e-05
0.00281274
2.77937e-05
0.00270531
2.1903e-05
0.00260702
1.27456e-05
0.00251555
1.82159e-06
0.00242953
-8.31992e-06
0.00234765
-1.70228e-05
0.00226895
-2.3599e-05
0.0021934
-2.74272e-05
0.00212254
-2.7964e-05
0.00206005
-2.46281e-05
0.00201224
-1.68179e-05
0.00198831
-3.76787e-06
0.00199798
1.82831e-05
0.00204834
4.59381e-05
0.00214215
6.44878e-05
0.00225883
4.90166e-05
0.00235076
-2.6084e-05
0.00235221
-0.000154737
0.00220649
-0.000341498
0.00184871
-0.00057294
0.00106028
-0.000907096
-0.00131138
0.00388441
-0.00127186
0.00213706
0.0025653
0.00309277
0.00354099
0.00379897
0.00392279
0.00396422
0.00395323
0.00391189
0.0038627
0.00381601
0.0037781
0.00375181
0.00373582
0.00372703
0.00372161
0.00371541
0.00370431
0.00368502
0.00365569
0.00361706
0.00357052
0.00351815
0.00346268
0.00340739
0.00335614
0.00331342
0.00328447
0.00327837
0.00330078
0.00334253
0.00336944
0.00332163
0.00314545
0.00278262
0.00218831
0.00126072
)
;

boundaryField
{
    floor
    {
        type            calculated;
        value           nonuniform List<scalar> 
29
(
0
0
0
0
0
0
0
0
0
0
0
0
0
0
0
0
0
0
0
0
-3.55116e-06
-9.65453e-06
-8.98404e-06
-7.48072e-06
-1.82212e-06
-4.91362e-06
-1.17292e-05
-1.29354e-05
-8.86663e-06
)
;
    }
    ceiling
    {
        type            calculated;
        value           nonuniform List<scalar> 
43
(
5.89455e-05
4.09122e-05
2.34668e-05
2.27273e-05
2.41267e-05
2.59523e-05
2.79494e-05
2.99222e-05
3.17754e-05
3.34552e-05
3.48888e-05
3.59994e-05
3.67657e-05
3.71684e-05
3.71672e-05
3.67918e-05
3.61109e-05
3.522e-05
3.42246e-05
3.32164e-05
3.22558e-05
3.13681e-05
3.05252e-05
2.97259e-05
2.89668e-05
2.82368e-05
2.7522e-05
2.68094e-05
2.60888e-05
2.53542e-05
2.45526e-05
2.37033e-05
2.28964e-05
2.22631e-05
2.18799e-05
2.16062e-05
2.14847e-05
2.15227e-05
2.06528e-05
2.19854e-05
1.17285e-05
9.46598e-06
1.60716e-05
)
;
    }
    sWall
    {
        type            calculated;
        value           uniform -0.000131253;
    }
    nWall
    {
        type            calculated;
        value           nonuniform List<scalar> 6(-3.35948e-05 -3.94315e-05 -4.64571e-05 -4.47725e-05 -5.25195e-05 -7.24909e-05);
    }
    sideWalls
    {
        type            empty;
        value           nonuniform 0();
    }
    glass1
    {
        type            calculated;
        value           nonuniform List<scalar> 9(-6.09967e-05 -0.000154178 -0.000225613 -0.000283581 -0.000333125 -0.000376754 -0.000417461 -0.000469631 -0.000530131);
    }
    glass2
    {
        type            calculated;
        value           nonuniform List<scalar> 2(-0.000189742 -0.000205822);
    }
    sun
    {
        type            calculated;
        value           uniform 0;
    }
    heatsource1
    {
        type            calculated;
        value           nonuniform List<scalar> 3(2.02583e-07 2.02703e-07 2.0286e-07);
    }
    heatsource2
    {
        type            calculated;
        value           nonuniform List<scalar> 4(5.10346e-08 5.12248e-08 0 0);
    }
    Table_master
    {
        type            calculated;
        value           nonuniform List<scalar> 9(-1.54176e-07 -1.54102e-07 -1.5395e-07 -1.53789e-07 -1.53634e-07 -1.53492e-07 -1.53367e-07 -1.53248e-07 -1.53112e-07);
    }
    Table_slave
    {
        type            calculated;
        value           nonuniform List<scalar> 9(1.52504e-07 1.52563e-07 1.52606e-07 1.52644e-07 1.52673e-07 1.52691e-07 1.52695e-07 1.52688e-07 1.52653e-07);
    }
    inlet
    {
        type            calculated;
        value           uniform 0.00130806;
    }
    outlet
    {
        type            calculated;
        value           nonuniform List<scalar> 2(-0.00381173 0.00511574);
    }
}


// ************************************************************************* //
