/*--------------------------------*- C++ -*----------------------------------*\
  =========                 |
  \\      /  F ield         | OpenFOAM: The Open Source CFD Toolbox
   \\    /   O peration     | Website:  https://openfoam.org
    \\  /    A nd           | Version:  6
     \\/     M anipulation  |
\*---------------------------------------------------------------------------*/
FoamFile
{
    version     2.0;
    format      ascii;
    class       surfaceScalarField;
    location    "600";
    object      phi;
}
// * * * * * * * * * * * * * * * * * * * * * * * * * * * * * * * * * * * * * //

dimensions      [1 0 -1 0 0 0 0];

internalField   nonuniform List<scalar> 
852
(
-0.0033004
0.00335437
-0.00465551
0.00135499
-0.00515983
0.000504203
-0.00487825
-0.000281701
-0.00366331
-0.00121506
-0.00153966
-0.00212378
0.000977408
-0.00251726
0.00296657
-0.00198934
0.00434583
-0.00137945
0.00515414
-0.000808513
0.00545692
-0.000302989
0.00528501
0.00017169
0.00459637
0.000688419
0.0031455
0.00145065
0.00314669
-0.00112644
0.00112664
-0.00144287
0.00031593
-0.000710898
-0.000732442
0.000406684
-0.00111804
0.00144857
-0.00104234
0.00225335
-0.000805245
0.00272113
-0.000468251
0.00294613
-0.000225488
0.00308626
-0.000140636
0.00319722
-0.000111501
0.00328954
-9.28889e-05
0.00336396
-7.50308e-05
0.00340925
-4.59429e-05
0.00339487
1.36827e-05
0.0032654
0.000128723
0.00293534
0.000329284
0.00233483
0.000599685
0.00139785
0.000936154
0.00139705
-0.00234267
0.00584426
-0.00352168
0.00253388
-0.00404748
0.00102989
-0.00383077
-0.00049852
-0.00278533
-0.00226059
-0.00106894
-0.00384027
0.000762473
-0.00434885
0.00235204
-0.00357911
0.00349553
-0.00252318
0.00419117
-0.0015044
0.0044932
-0.000605281
0.00446582
0.000198813
0.00418081
0.000973175
0.00385192
0.00177929
0.00441159
0.00258677
0.00212114
0.00229015
0.00212082
-0.000285941
0.00141403
0.000178815
-0.000149384
0.000981859
-0.00153594
0.0016399
-0.00177651
0.00222953
-0.00163239
0.00269208
-0.00126822
0.00280272
-0.000579322
0.00282298
-0.000246208
0.00284512
-0.000163246
0.00286567
-0.00013255
0.00288252
-0.000110288
0.00289685
-8.99488e-05
0.00290394
-5.36923e-05
0.00288652
3.04082e-05
0.00278927
0.000225217
0.00244409
0.000673683
0.00185469
0.00118827
0.00103817
0.00175187
0.00243427
-0.00164283
0.00771399
-0.00260965
0.00350058
-0.00309655
0.00151667
-0.00291202
-0.000683154
-0.00196067
-0.00321202
-0.000546961
-0.00525407
0.000814051
-0.00571004
0.00200755
-0.00477285
0.00288068
-0.00339659
0.00340699
-0.00203101
0.00364639
-0.000844986
0.00368301
0.000161893
0.00361131
0.00104458
0.00352818
0.00186213
0.00342776
0.00268691
0.00249219
0.00322545
0.00461273
0.00105645
0.00036048
0.00210661
-0.00120002
0.00245226
-0.00188201
0.00270883
-0.00203348
0.00294572
-0.00186969
0.00334275
-0.00166567
0.00276317
0.00251668
0.00235314
0.00222025
0.00210956
0.00201914
0.00196489
0.0019947
0.0022193
0.00185137
0.00104085
0.001404
0.00163487
0.000789538
0.00236557
0.00322254
-0.00114295
0.00915258
-0.00188297
0.00424048
-0.00222112
0.00185471
-0.00192486
-0.000979504
-0.000985857
-0.00415109
0.000112405
-0.0063524
0.00105456
-0.00665236
0.00185456
-0.00557312
0.00240434
-0.0039467
0.00269309
-0.00232011
0.0027963
-0.000948552
0.00281043
0.000147413
0.00282191
0.00103276
0.00289353
0.00179019
0.00309936
0.00248078
0.00348083
0.00284369
0.00516027
0.00293301
0.00390589
0.00126166
0.00423091
3.50934e-05
0.00401891
-0.000988389
0.00373457
-0.00159803
0.00345432
-0.00175361
0.00317863
-0.00159438
0.00271398
-0.00120142
0.00315611
-0.000442687
0.00325822
-0.000102663
0.00322642
3.12287e-05
0.00311428
0.000111572
0.00293755
0.000176146
0.00270074
0.000236215
0.00239283
0.000307268
0.00197519
0.000416947
0.00134581
0.000628569
0.00119582
0.00119014
0.000964213
0.00186576
0.000673819
0.00265525
0.00389455
-0.000783293
0.0102912
-0.00129989
0.00475696
-0.00132077
0.00187548
-0.000674347
-0.00162602
0.000231702
-0.00505718
0.000941182
-0.00706194
0.00145229
-0.00716364
0.00181527
-0.0059364
0.00197321
-0.00410503
0.00195371
-0.00230103
0.00185878
-0.000854017
0.0018091
0.000196708
0.00188435
0.00095715
0.00212574
0.00154847
0.00259227
0.00201394
0.00323885
0.00219681
0.00407321
0.00209836
0.00425282
0.00108176
0.0043251
-3.74709e-05
0.00411087
-0.000774467
0.00370077
-0.00118826
0.00323631
-0.0012895
0.00278547
-0.00114392
0.00239781
-0.000814165
0.00229337
-0.000338664
0.00217303
1.72498e-05
0.00199659
0.00020722
0.00180244
0.000305274
0.00160038
0.000377723
0.00138358
0.000452518
0.00113998
0.000550322
0.000857951
0.000698361
0.000587708
0.000898106
0.000518455
0.0012587
0.000633605
0.00174993
0.000955377
0.0023328
0.0019147
0.00293459
0.000536963
0.00137698
4.45614e-06
0.000531902
2.45094e-05
-0.000608148
0.0113072
-0.000783079
0.00493178
-8.90979e-05
0.00118139
0.000929333
-0.00264453
0.00165129
-0.00577915
0.00195288
-0.00736357
0.00198252
-0.00719346
0.00182028
-0.00577449
0.0015015
-0.00378668
0.00111521
-0.0019152
0.000801229
-0.000540464
0.000703605
0.000293935
0.000838501
0.00082189
0.00116938
0.00121724
0.0016758
0.00150721
0.00228494
0.00158737
0.00298332
0.00139969
0.00336842
0.000696365
0.00335213
-2.14851e-05
0.00309481
-0.000517477
0.00268372
-0.000777536
0.0022123
-0.000818466
0.00174986
-0.000681903
0.00135272
-0.000417466
0.00107197
-5.8372e-05
0.000868067
0.00022069
0.0006993
0.000375511
0.000536331
0.000467753
0.000369136
0.000544405
0.00019384
0.000627267
1.76872e-05
0.000725878
-0.000124151
0.000839549
-0.000176749
0.000950023
-4.00875e-05
0.00112139
0.00028865
0.00142056
0.00075021
0.00187061
0.00134838
0.00233582
0.00146947
0.00125535
0.00117619
0.0008247
0.00122535
-0.000231725
0.0120011
0.000243595
0.00445634
0.00184912
-0.000424262
0.00293874
-0.0037342
0.00334808
-0.00618847
0.003153
-0.00716853
0.00254018
-0.00658085
0.00172561
-0.0049603
0.000850488
-0.00291204
0.00010192
-0.00116712
-0.000299025
-0.00013996
-0.000363345
0.000357862
-0.000188389
0.000646564
0.000160963
0.000867543
0.000642116
0.00102573
0.00118203
0.00104713
0.00171034
0.000871058
0.00195904
0.000447335
0.00190102
3.61798e-05
0.00164281
-0.000259662
0.00126205
-0.000397192
0.000826508
-0.00038337
0.000393604
-0.000249463
7.62472e-06
-3.19638e-05
-0.000263032
0.000211795
-0.000422725
0.000379886
-0.000540258
0.000492539
-0.000650503
0.000577478
-0.000758303
0.000651665
-0.000851748
0.000720146
-0.000905919
0.00077945
-0.000887939
0.000820948
-0.000780802
0.000842254
-0.000562771
0.000902746
-0.000239324
0.00109651
0.000214156
0.00141654
0.000970134
0.00157929
0.00164459
0.000580393
0.00149098
0.000977795
0.00274359
0.00336196
0.00916209
0.00459996
0.00321824
0.00532969
-0.0011541
0.00577379
-0.00417831
0.00543933
-0.00585397
0.00435891
-0.00608816
0.00281764
-0.00503984
0.00120946
-0.00335257
-0.000202847
-0.00150028
-0.00103965
-0.000330794
-0.00132899
0.000148934
-0.00132386
0.000352314
-0.0011525
0.000474816
-0.000862741
0.000577398
-0.000487938
0.000650555
-9.09709e-05
0.0006498
0.000234874
0.000544838
0.000346439
0.000335371
0.000255384
0.000126806
1.11632e-05
-1.58932e-05
-0.00032753
-5.8971e-05
-0.00069839
-1.29971e-05
-0.001043
9.46474e-05
-0.00130419
0.000228727
-0.00145368
0.000360776
-0.00154113
0.000466825
-0.00159889
0.000549771
-0.00163796
0.000616027
-0.00165339
0.000666543
-0.00163154
0.000697738
-0.00155754
0.000704872
-0.00142477
0.000687572
-0.00124768
0.000664545
-0.00104375
0.000698195
-0.000815614
0.000867749
-0.000574154
0.00117454
-0.00045686
0.00146165
-0.00123836
0.00136163
-0.00189448
0.00163345
0.000952766
0.00974524
0.0129592
0.0111755
0.000629443
0.00930951
-0.0023122
0.00707224
-0.00361664
0.00458613
-0.00360218
0.00193736
-0.00239144
-0.000316172
-0.00109961
-0.00169685
-0.000120133
-0.00222772
0.000199583
-0.00235748
0.000278232
-0.00230764
0.000302027
-0.00216505
0.000331782
-0.00196268
0.000374593
-0.00172734
0.000414776
-0.00150472
0.000426744
-0.00135367
0.000393343
-0.00133325
0.000314489
-0.00143654
0.000229617
-0.00162667
0.000173743
-0.00185289
0.000166743
-0.00206891
0.000202516
-0.00223874
0.000263956
-0.00234825
0.000337724
-0.00239958
0.000411597
-0.00240963
0.000476362
-0.00238975
0.000529364
-0.00234249
0.000568247
-0.00226613
0.000589636
-0.00215981
0.000590858
-0.00202835
0.000572828
-0.00188654
0.000545134
-0.00175827
0.000535613
-0.00165997
0.00059922
-0.0015989
0.00080603
-0.00163294
0.001208
-0.00193392
0.00176218
-0.00271593
0.00214329
-0.00296984
0.00188709
-0.00194488
0.00613646
0.00150551
0.00446725
-0.000643073
0.00257646
-0.00172607
0.00028524
-0.00131133
-0.00175404
-0.000352764
-0.00296531
0.000111094
-0.00338679
0.00030082
-0.0034775
0.000289782
-0.0034468
0.000247032
-0.00336754
0.000222273
-0.00326214
0.000225887
-0.00314009
0.000252055
-0.00301343
0.00028763
-0.00290389
0.000316709
-0.00283732
0.000326281
-0.00283474
0.00031141
-0.00288963
0.000284002
-0.00297716
0.00026076
-0.00306456
0.00025363
-0.00312662
0.000264058
-0.00315112
0.000287944
-0.00313468
0.000320773
-0.0030807
0.000357106
-0.00299634
0.000391492
-0.00288728
0.000419792
-0.00275773
0.000438166
-0.0026121
0.000443462
-0.00245623
0.000434417
-0.00229773
0.000413719
-0.00214504
0.000391797
-0.0020027
0.000392589
-0.00186134
0.000457171
-0.00169352
0.000637537
-0.00146343
0.000977311
-0.00116595
0.00146422
-0.000776587
0.00175354
3.52572e-05
0.00107491
-0.00189682
0.000611837
0.00095394
-0.000558469
0.000526083
-0.00245983
0.000174591
-0.00391484
0.000143079
-0.00453819
0.000270019
-0.00472409
0.000296451
-0.00469577
0.000271975
-0.00461816
0.00021164
-0.0045338
0.000162143
-0.00444966
0.000137607
-0.00436143
0.000137127
-0.00426448
0.000154589
-0.00415939
0.000182021
-0.00405374
0.000210545
-0.00395974
0.000231766
-0.00388902
0.000240171
-0.00384282
0.000237288
-0.00381157
0.000228993
-0.00377991
0.000221458
-0.0037343
0.000217941
-0.00366638
0.000219509
-0.00357206
0.000225939
-0.00345089
0.00023543
-0.00330521
0.000245298
-0.003139
0.000253062
-0.00295805
0.000256678
-0.00277004
0.000254893
-0.00258397
0.000247768
-0.00240833
0.000237468
-0.00224667
0.000229484
-0.00208911
0.000234362
-0.00190172
0.000269095
-0.00161969
0.000354836
-0.00114161
0.000498614
-0.000307408
0.000629473
0.000842306
0.000603388
0.00169954
0.000217266
-0.000183947
0.0054914
-0.00844647
-0.00750275
-0.00699469
-0.006847
-0.00673678
-0.00650382
-0.00624739
-0.00601719
-0.00584837
-0.00572966
-0.00563586
-0.00554283
-0.00543263
-0.00529543
-0.00513032
-0.00494483
-0.004752
-0.00456325
-0.00438401
-0.00421341
-0.00404725
-0.00388023
-0.00370726
-0.0035251
-0.00333321
-0.00313356
-0.00293018
-0.00272842
-0.00253361
-0.00234902
-0.00217253
-0.00199157
-0.00177663
-0.001477
-0.00103486
-0.000463294
8.10271e-05
0.000239234
)
;

boundaryField
{
    floor
    {
        type            calculated;
        value           nonuniform List<scalar> 
29
(
0
0
0
0
0
0
0
0
0
0
0
0
0
0
0
0
0
0
0
0
2.42893e-08
1.96969e-07
5.65181e-07
1.13661e-06
-1.42378e-06
-7.3784e-07
-2.00861e-06
-3.48324e-06
-7.57391e-06
)
;
    }
    ceiling
    {
        type            calculated;
        value           nonuniform List<scalar> 
43
(
0.000158725
5.53646e-05
9.04727e-06
1.73142e-05
2.63121e-05
3.23077e-05
3.65122e-05
3.94741e-05
4.12378e-05
4.2281e-05
4.28937e-05
4.32708e-05
4.35564e-05
4.38657e-05
4.42926e-05
4.49092e-05
4.57552e-05
4.68191e-05
4.80218e-05
4.92397e-05
5.03501e-05
5.12712e-05
5.1972e-05
5.24586e-05
5.27546e-05
5.28864e-05
5.28778e-05
5.27573e-05
5.25678e-05
5.23748e-05
5.22699e-05
5.23628e-05
5.27546e-05
5.34936e-05
5.45491e-05
5.58484e-05
5.73176e-05
5.85453e-05
5.85796e-05
6.25193e-05
6.12267e-06
4.22341e-06
-6.13766e-05
)
;
    }
    sWall
    {
        type            calculated;
        value           uniform -2.34631e-05;
    }
    nWall
    {
        type            calculated;
        value           nonuniform List<scalar> 6(-2.03316e-05 -2.53261e-05 -2.78363e-05 -1.32297e-05 -1.37461e-05 -7.70525e-06);
    }
    sideWalls
    {
        type            empty;
        value           nonuniform 0();
    }
    glass1
    {
        type            calculated;
        value           nonuniform List<scalar> 9(-5.40839e-05 -0.000147326 -0.000227001 -0.000295734 -0.000355382 -0.000407987 -0.000462289 -0.000522994 -0.00058936);
    }
    glass2
    {
        type            calculated;
        value           nonuniform List<scalar> 2(-0.000104199 -7.23295e-05);
    }
    sun
    {
        type            calculated;
        value           uniform 0;
    }
    heatsource1
    {
        type            calculated;
        value           nonuniform List<scalar> 3(2.01058e-07 2.01356e-07 2.01136e-07);
    }
    heatsource2
    {
        type            calculated;
        value           nonuniform List<scalar> 4(5.0726e-08 5.0993e-08 0 0);
    }
    Table_master
    {
        type            calculated;
        value           nonuniform List<scalar> 9(-1.51313e-07 -1.51546e-07 -1.51592e-07 -1.51598e-07 -1.5158e-07 -1.51539e-07 -1.51476e-07 -1.51382e-07 -1.51216e-07);
    }
    Table_slave
    {
        type            calculated;
        value           nonuniform List<scalar> 9(1.51023e-07 1.5101e-07 1.50952e-07 1.50907e-07 1.50889e-07 1.50892e-07 1.50912e-07 1.50946e-07 1.50996e-07);
    }
    inlet
    {
        type            calculated;
        value           uniform -0.00701216;
    }
    outlet
    {
        type            calculated;
        value           nonuniform List<scalar> 2(-0.00563 0.0138801);
    }
}


// ************************************************************************* //
