/*--------------------------------*- C++ -*----------------------------------*\
  =========                 |
  \\      /  F ield         | OpenFOAM: The Open Source CFD Toolbox
   \\    /   O peration     | Website:  https://openfoam.org
    \\  /    A nd           | Version:  6
     \\/     M anipulation  |
\*---------------------------------------------------------------------------*/
FoamFile
{
    version     2.0;
    format      ascii;
    class       volScalarField;
    location    "400";
    object      alphat;
}
// * * * * * * * * * * * * * * * * * * * * * * * * * * * * * * * * * * * * * //

dimensions      [1 -1 -1 0 0 0 0];

internalField   nonuniform List<scalar> 
459
(
0.00084807
0.000865556
0.000659654
0.000626323
0.000635873
0.000653461
0.000673235
0.000694923
0.000719086
0.000743736
0.000767533
0.000789206
0.000807561
0.000820782
0.000821813
0.000361393
0.000390916
0.000406628
0.000356607
0.000306788
0.000268764
0.000244009
0.00025911
0.00028257
0.000309931
0.000337534
0.000361372
0.000370876
0.000366306
0.00036014
0.000362616
0.000375981
0.000359348
0.000330246
0.00155959
0.00321412
0.00166845
0.00252795
0.00295057
0.00305246
0.00313028
0.00320742
0.00326962
0.00330899
0.00330625
0.00322948
0.00302452
0.00259851
0.0018502
0.000921026
0.000617562
0.000538785
0.00100666
0.00118375
0.00119093
0.000948813
0.000545779
0.000384472
0.000470643
0.000646082
0.00084919
0.00103409
0.00116991
0.00121943
0.00121685
0.00122653
0.00132382
0.00103772
0.000771072
0.000413696
0.00218925
0.00599457
0.00252972
0.00289419
0.00420366
0.00463148
0.00478909
0.00488055
0.00493043
0.00493894
0.00488426
0.00472882
0.00441143
0.0038461
0.00297794
0.0019355
0.00100877
0.000838509
0.00234641
0.00214424
0.00177484
0.00128958
0.000810237
0.000339164
0.000360529
0.000396522
0.000432647
0.000469858
0.000510187
0.000557887
0.000619917
0.00071323
0.00211195
0.00213864
0.00174369
0.000696293
0.00275033
0.00912726
0.00444478
0.00321284
0.00441282
0.00530502
0.00573245
0.00597768
0.00613496
0.00623371
0.00626755
0.00620374
0.005978
0.00548642
0.00461214
0.00333728
0.00196252
0.00113054
0.0030507
0.00306567
0.0025458
0.00194451
0.00143842
0.00105406
0.000787987
0.000795416
0.000802512
0.000810728
0.000822768
0.000841585
0.000870942
0.000916692
0.000990695
0.00293955
0.00300758
0.00251251
0.000994328
0.00323623
0.0121391
0.00730991
0.004761
0.00451452
0.00512673
0.00582591
0.00636691
0.00677023
0.00709701
0.00736714
0.00757875
0.0077154
0.00774186
0.00760926
0.00727864
0.00677362
0.00624227
0.006155
0.00573846
0.00530183
0.00498677
0.00479923
0.00467586
0.00453392
0.00444008
0.00433393
0.00421145
0.00407957
0.0039522
0.00384859
0.00378877
0.00378773
0.00386556
0.00372924
0.00350039
0.0030907
0.00124134
0.00107901
0.000929982
0.00366134
0.0145087
0.0107538
0.00759595
0.00583035
0.00511664
0.00532504
0.00591599
0.00654492
0.00714474
0.00769989
0.00818868
0.008602
0.00892803
0.00913939
0.00919529
0.00906118
0.00875229
0.00836843
0.00796455
0.00761147
0.00733091
0.00711698
0.00694092
0.00677922
0.00661728
0.00643843
0.00622988
0.00598187
0.00569064
0.00536457
0.0050267
0.00470322
0.00440298
0.00410982
0.0037988
0.0033946
0.00283201
0.00209699
0.000963389
0.0040037
0.0153666
0.0130113
0.0103286
0.00813376
0.00642238
0.00549026
0.00538822
0.00579244
0.00642112
0.00717898
0.0079344
0.00861294
0.00918339
0.0096258
0.00990891
0.00999414
0.00988001
0.00962904
0.00932162
0.00901652
0.0087409
0.00850177
0.00829628
0.00811556
0.00794879
0.00778497
0.00761047
0.00740597
0.00714446
0.00679602
0.0063452
0.00581235
0.00524978
0.00470085
0.00415989
0.00357997
0.00293966
0.00222277
0.00101193
0.00397715
0.0129526
0.0117106
0.0113472
0.00977932
0.00795402
0.00654882
0.00572205
0.00543525
0.00563806
0.00623508
0.00702139
0.00784663
0.00861016
0.00925704
0.00975294
0.0100484
0.0101453
0.0100812
0.00991563
0.00970124
0.00947346
0.00925338
0.00905257
0.00887481
0.00871942
0.00858472
0.00846837
0.00836468
0.00825813
0.00811476
0.00787789
0.007483
0.00690382
0.00618837
0.00540421
0.00459301
0.00386743
0.00330019
0.00172601
0.0037562
0.00431941
0.0128189
0.0131724
0.0109904
0.00881495
0.00723265
0.00624391
0.00574834
0.0056548
0.00588998
0.00637245
0.00700062
0.00767077
0.00831157
0.0088775
0.00931679
0.00959871
0.00972702
0.00973375
0.00965761
0.00953232
0.00938379
0.0092302
0.00908284
0.00894781
0.00882923
0.00873204
0.00866226
0.00862461
0.00861701
0.0086226
0.008604
0.00851242
0.00831707
0.00801764
0.00757571
0.00683783
0.0063383
0.00186968
0.0261769
0.0225772
0.0129603
0.00961846
0.00810437
0.00722254
0.00675538
0.00659639
0.00665223
0.00684275
0.00711066
0.00742261
0.00776206
0.00811331
0.00844978
0.00873645
0.00894805
0.00908005
0.00913928
0.00913934
0.00909617
0.00902449
0.00893551
0.00883766
0.00873875
0.00864648
0.00856837
0.00851081
0.00847663
0.00846
0.00843953
0.00837487
0.00821552
0.00791995
0.00745835
0.00679679
0.00577808
0.00188704
0.00846797
0.0169995
0.0121294
0.00926072
0.00775871
0.00699621
0.0066896
0.0066755
0.00683587
0.00708115
0.00734865
0.00760307
0.00783153
0.00803345
0.00821028
0.00836034
0.00847941
0.008564
0.00861422
0.00863408
0.00862994
0.00860751
0.00856521
0.00850367
0.00843059
0.00835223
0.0082725
0.00819245
0.00810972
0.00801759
0.00790378
0.00775005
0.00753391
0.00723127
0.00681678
0.00624656
0.00573069
0.00189014
0.00158321
0.00200991
0.00566192
0.00512628
0.00432573
0.0036409
0.00312175
0.00273887
0.00245973
0.00226095
0.00212573
0.00204017
0.00199117
0.00196647
0.001956
0.00195276
0.00195237
0.00195232
0.00195104
0.0019475
0.00194127
0.00193236
0.00192111
0.00190808
0.0018944
0.00188062
0.00186644
0.00185186
0.00183691
0.00182154
0.0018055
0.00178829
0.00176913
0.00174709
0.00172109
0.00168979
0.001651
0.00160247
0.00158289
0.00138203
)
;

boundaryField
{
    floor
    {
        type            compressible::alphatWallFunction;
        Prt             0.85;
        value           nonuniform List<scalar> 
29
(
0.000117009
4.75813e-05
5.22707e-05
5.4749e-05
4.68182e-05
3.87739e-05
3.25185e-05
2.8382e-05
3.09108e-05
3.48003e-05
3.92826e-05
4.37517e-05
4.75724e-05
4.90857e-05
4.83577e-05
4.73742e-05
4.7772e-05
4.99037e-05
4.72536e-05
4.25786e-05
4.2578e-05
5.58623e-05
9.87408e-05
0.000141619
0.000117008
4.75807e-05
7.5149e-05
0.000119358
0.000160632
)
;
    }
    ceiling
    {
        type            compressible::alphatWallFunction;
        Prt             0.85;
        value           nonuniform List<scalar> 
43
(
0.000222698
0.00027897
0.000725615
0.000662584
0.000567147
0.000484096
0.00042008
0.000372162
0.000336784
0.000311329
0.000293873
0.000282763
0.000276375
0.000273142
0.000271768
0.000271337
0.00027128
0.000271268
0.000271095
0.000270627
0.000269807
0.000268637
0.000267161
0.00026545
0.000263653
0.000261841
0.000259977
0.000258058
0.000256088
0.000254061
0.000251945
0.000249672
0.00024714
0.000244224
0.000240779
0.000236625
0.000231467
0.000224996
0.000222378
0.000195325
0.000498018
0.000566197
0.00104731
)
;
    }
    sWall
    {
        type            compressible::alphatWallFunction;
        Prt             0.85;
        value           uniform 0.000221845;
    }
    nWall
    {
        type            compressible::alphatWallFunction;
        Prt             0.85;
        value           nonuniform List<scalar> 6(0.000132374 0.000137114 0.000143954 0.000262351 0.00026275 0.000195048);
    }
    sideWalls
    {
        type            empty;
    }
    glass1
    {
        type            compressible::alphatWallFunction;
        Prt             0.85;
        value           nonuniform List<scalar> 9(0.000117741 0.000214691 0.000296553 0.000367516 0.000427844 0.000479923 0.000521469 0.000518421 0.000491897);
    }
    glass2
    {
        type            compressible::alphatWallFunction;
        Prt             0.85;
        value           nonuniform List<scalar> 2(0.000240559 0.000259485);
    }
    sun
    {
        type            compressible::alphatWallFunction;
        Prt             0.85;
        value           nonuniform List<scalar> 
14
(
0.000120788
0.000123279
9.33251e-05
8.83801e-05
8.98031e-05
9.24152e-05
9.53412e-05
9.85379e-05
0.000102085
0.000105689
0.000109154
0.000112299
0.000114954
0.000116861
)
;
    }
    heatsource1
    {
        type            compressible::alphatWallFunction;
        Prt             0.85;
        value           nonuniform List<scalar> 3(0.000175997 0.000153513 0.000132529);
    }
    heatsource2
    {
        type            compressible::alphatWallFunction;
        Prt             0.85;
        value           nonuniform List<scalar> 4(0.000131249 8.71161e-05 8.71151e-05 0.000143658);
    }
    Table_master
    {
        type            compressible::alphatWallFunction;
        Prt             0.85;
        value           nonuniform List<scalar> 9(4.41287e-05 4.75549e-05 5.32679e-05 5.89351e-05 6.47096e-05 7.09035e-05 7.81509e-05 8.74627e-05 0.00010126);
    }
    Table_slave
    {
        type            compressible::alphatWallFunction;
        Prt             0.85;
        value           nonuniform List<scalar> 9(0.000112156 0.000113231 0.000114257 0.000115444 0.000117181 0.00011989 0.000124101 0.000130632 0.000141115);
    }
    inlet
    {
        type            fixedValue;
        value           uniform 1.94e-05;
    }
    outlet
    {
        type            zeroGradient;
    }
}


// ************************************************************************* //
