// -*- C++ -*-
// File generated by PyFoam - sorry for the ugliness

FoamFile
{
 version 2.0;
 format ascii;
 class volVectorField;
 location "400";
 object U;
}

dimensions [ 0 1 -1 0 0 0 0 ];

internalField nonuniform List<vector> 459
(
  (0.101452 0.0583764 0)
  (-0.123171 -0.0042105 0)
  (-0.088259 -0.00424361 0)
  (-0.0852468 -0.00159116 0)
  (-0.0843372 -0.000466985 0)
  (-0.0847385 -0.000186021 0)
  (-0.0854673 -0.000416822 0)
  (-0.0859305 -0.00105471 0)
  (-0.0856169 -0.00210701 0)
  (-0.0839258 -0.0036681 0)
  (-0.079919 -0.00586295 0)
  (-0.0720959 -0.00896307 0)
  (-0.0593053 -0.0136489 0)
  (-0.0447798 -0.0209491 0)
  (-0.0428464 -0.029814 0)
  (0.0302111 0.01208 0)
  (-0.0324938 -0.00541527 0)
  (-0.021011 -0.00648529 0)
  (-0.0186204 -0.00450382 0)
  (-0.0139438 -0.00443964 0)
  (-0.00899308 -0.00572487 0)
  (-0.000809689 -0.00870503 0)
  (0.007123 -0.00722511 0)
  (0.013427 -0.00554541 0)
  (0.0181413 -0.0043316 0)
  (0.0219348 -0.00364942 0)
  (0.0251639 -0.00353013 0)
  (0.0280118 -0.00336626 0)
  (0.0300642 -0.00294411 0)
  (0.0304821 -0.00236644 0)
  (0.0307455 -0.0022622 0)
  (0.0300092 -0.00598342 0)
  (0.0385078 -0.00693973 0)
  (-0.0169606 0.0133824 0)
  (0.283884 0.129038 0)
  (-0.146661 0.00498789 0)
  (-0.0825862 -0.00623396 0)
  (-0.0853602 -0.0020703 0)
  (-0.0861923 0.000268455 0)
  (-0.0868852 0.00117637 0)
  (-0.0874701 0.00117283 0)
  (-0.0878015 0.000406843 0)
  (-0.0875651 -0.00116323 0)
  (-0.0863775 -0.00367142 0)
  (-0.0836191 -0.00728972 0)
  (-0.0783956 -0.0123248 0)
  (-0.0699759 -0.0194893 0)
  (-0.0589228 -0.0297592 0)
  (-0.0474957 -0.0418829 0)
  (-0.0369286 -0.0481855 0)
  (0.0246724 0.00795084 0)
  (0.100429 0.00996327 0)
  (0.0408463 0.00768342 0)
  (0.0162797 0.00488636 0)
  (0.00556691 0.00350324 0)
  (-0.000991788 0.000359967 0)
  (-0.00867374 -0.00446964 0)
  (-0.00977727 -0.0126709 0)
  (-0.00703511 -0.00968094 0)
  (-0.00383835 -0.00681882 0)
  (-0.00337651 -0.00505296 0)
  (-0.00391554 -0.00368048 0)
  (-0.00522822 -0.00196598 0)
  (-0.00868615 0.00119658 0)
  (-0.0136824 0.00472678 0)
  (-0.0180537 0.00687628 0)
  (-0.0214942 0.00742234 0)
  (-0.0252826 0.00677992 0)
  (-0.0446994 0.0130822 0)
  (-0.109686 0.0228163 0)
  (0.42782 0.195982 0)
  (-0.181857 0.0262262 0)
  (-0.0701335 -0.000788596 0)
  (-0.0794842 -0.000248129 0)
  (-0.0828895 0.00106681 0)
  (-0.084034 0.00147035 0)
  (-0.0846126 0.00116051 0)
  (-0.0849999 5.47512e-06 0)
  (-0.0852043 -0.0021696 0)
  (-0.0851077 -0.00560225 0)
  (-0.084462 -0.0105728 0)
  (-0.0829232 -0.0174103 0)
  (-0.0802839 -0.0264715 0)
  (-0.0767032 -0.0376178 0)
  (-0.0727978 -0.0487569 0)
  (-0.0713527 -0.05539 0)
  (-0.0811179 -0.0551683 0)
  (0.0363275 0.00299173 0)
  (-0.0304699 0.00744719 0)
  (-0.0265371 0.00963434 0)
  (-0.0226226 0.00728508 0)
  (-0.0186909 0.00393355 0)
  (-0.0184125 -0.000991996 0)
  (-0.0164224 -0.0104317 0)
  (-0.0324479 -0.0085157 0)
  (-0.0396382 -0.00610345 0)
  (-0.0445476 -0.00452294 0)
  (-0.047983 -0.00329436 0)
  (-0.0499198 -0.00220989 0)
  (-0.0495194 -0.0011706 0)
  (-0.0467235 -0.000554549 0)
  (-0.040559 -0.00119459 0)
  (-0.0301969 -0.0018899 0)
  (-0.0144282 -0.000330738 0)
  (2.05096e-05 -0.00182063 0)
  (-0.0718791 -0.00507595 0)
  (0.539285 0.249344 0)
  (-0.210825 0.0512117 0)
  (-0.0543372 0.00977735 0)
  (-0.0679282 0.00452994 0)
  (-0.0754837 0.00315106 0)
  (-0.0772316 0.00237285 0)
  (-0.0776026 0.00164087 0)
  (-0.0776813 0.000453747 0)
  (-0.0778968 -0.00161501 0)
  (-0.0784944 -0.00492427 0)
  (-0.0796384 -0.00980728 0)
  (-0.0814882 -0.0165382 0)
  (-0.0843298 -0.0251362 0)
  (-0.0886858 -0.034864 0)
  (-0.0958135 -0.0435523 0)
  (-0.108792 -0.0470718 0)
  (-0.127149 -0.0372874 0)
  (-0.125699 -0.00171709 0)
  (-0.0981158 0.00519248 0)
  (-0.0928036 0.00629913 0)
  (-0.0858703 0.00541394 0)
  (-0.0844466 0.0038571 0)
  (-0.0859737 0.00108655 0)
  (-0.0888405 -0.00251157 0)
  (-0.0900036 -0.00346436 0)
  (-0.0872931 -0.00409 0)
  (-0.0837233 -0.00488882 0)
  (-0.0793177 -0.00548625 0)
  (-0.0743045 -0.00601317 0)
  (-0.0687401 -0.00657558 0)
  (-0.0623768 -0.00730341 0)
  (-0.054687 -0.00840349 0)
  (-0.0455775 -0.0100737 0)
  (-0.0377833 -0.0120134 0)
  (-0.0280232 -0.0115251 0)
  (-0.0152664 -0.0107126 0)
  (-0.0222826 -0.00660884 0)
  (0.624656 0.290854 0)
  (-0.231582 0.0772257 0)
  (-0.0381141 0.0211932 0)
  (-0.047731 0.011402 0)
  (-0.0601683 0.00683369 0)
  (-0.0644382 0.00362811 0)
  (-0.0652246 0.00170741 0)
  (-0.0648898 0.000348983 0)
  (-0.0644641 -0.00128665 0)
  (-0.0646654 -0.00375371 0)
  (-0.0659255 -0.00747893 0)
  (-0.0686163 -0.0127404 0)
  (-0.0730559 -0.0195134 0)
  (-0.0795372 -0.0271864 0)
  (-0.0884818 -0.0344154 0)
  (-0.100031 -0.0388223 0)
  (-0.111075 -0.0358643 0)
  (-0.115452 -0.0212846 0)
  (-0.112093 -0.00887224 0)
  (-0.106367 -0.00151491 0)
  (-0.100624 0.00160529 0)
  (-0.0963869 0.00258605 0)
  (-0.0933289 0.00158601 0)
  (-0.0912097 -0.000568231 0)
  (-0.0892143 -0.00227423 0)
  (-0.0868166 -0.00406309 0)
  (-0.0842334 -0.0053735 0)
  (-0.0813734 -0.00635681 0)
  (-0.0782128 -0.00719198 0)
  (-0.0747376 -0.00807774 0)
  (-0.070846 -0.00929842 0)
  (-0.0663636 -0.0113146 0)
  (-0.0612434 -0.0147212 0)
  (-0.0552547 -0.019556 0)
  (-0.0468622 -0.0240009 0)
  (-0.0331095 -0.0299437 0)
  (-0.0155943 -0.0368781 0)
  (0.0219318 -0.0513301 0)
  (0.0731593 -0.0302256 0)
  (-0.0524287 0.018574 0)
  (0.678543 0.32584 0)
  (-0.248401 0.0965081 0)
  (-0.0223878 0.0230278 0)
  (-0.0148474 0.0170088 0)
  (-0.0282955 0.0152179 0)
  (-0.0392152 0.00779921 0)
  (-0.0437434 0.00241568 0)
  (-0.0447057 -7.3404e-05 0)
  (-0.0444385 -0.00164294 0)
  (-0.0442285 -0.00327123 0)
  (-0.044949 -0.00561198 0)
  (-0.0472035 -0.00906723 0)
  (-0.0513999 -0.0137602 0)
  (-0.0577458 -0.0192506 0)
  (-0.0662631 -0.0244106 0)
  (-0.0763164 -0.0272356 0)
  (-0.0854909 -0.0252035 0)
  (-0.0908137 -0.0183269 0)
  (-0.0917226 -0.0112571 0)
  (-0.0897614 -0.00598272 0)
  (-0.0866659 -0.00288721 0)
  (-0.083466 -0.00157442 0)
  (-0.0806039 -0.00193358 0)
  (-0.0784208 -0.00332309 0)
  (-0.0767684 -0.00484349 0)
  (-0.0754048 -0.00636824 0)
  (-0.0742227 -0.00767884 0)
  (-0.0731353 -0.00875774 0)
  (-0.072137 -0.00968955 0)
  (-0.0712831 -0.0106475 0)
  (-0.0706451 -0.0119582 0)
  (-0.0702959 -0.0141829 0)
  (-0.070243 -0.0180568 0)
  (-0.0699731 -0.0240953 0)
  (-0.0679511 -0.0324181 0)
  (-0.062227 -0.0443057 0)
  (-0.0516107 -0.0590909 0)
  (-0.0345768 -0.068592 0)
  (0.0245623 -0.0322637 0)
  (-0.117458 0.0683286 0)
  (0.6948 0.35754 0)
  (-0.253691 0.0807896 0)
  (0.00873367 -0.0226114 0)
  (0.0371238 0.0102091 0)
  (0.0250681 0.0276591 0)
  (0.00581832 0.0192379 0)
  (-0.00605695 0.00652415 0)
  (-0.011665 0.000853761 0)
  (-0.0149053 -0.00175722 0)
  (-0.0160196 -0.00325811 0)
  (-0.0169996 -0.00452147 0)
  (-0.0188376 -0.0062961 0)
  (-0.0222505 -0.00902906 0)
  (-0.0275759 -0.0125739 0)
  (-0.034776 -0.0161948 0)
  (-0.0431613 -0.0184636 0)
  (-0.0510166 -0.0178765 0)
  (-0.0565317 -0.0146768 0)
  (-0.0591451 -0.0107739 0)
  (-0.0595213 -0.00742154 0)
  (-0.0585845 -0.005137 0)
  (-0.0570766 -0.00400752 0)
  (-0.0555486 -0.00401339 0)
  (-0.0543845 -0.00481621 0)
  (-0.0536773 -0.00593837 0)
  (-0.0533679 -0.00712302 0)
  (-0.0533879 -0.00817382 0)
  (-0.0536934 -0.00900111 0)
  (-0.0543271 -0.00959425 0)
  (-0.0554499 -0.0100428 0)
  (-0.0573691 -0.010622 0)
  (-0.0605521 -0.011901 0)
  (-0.0655078 -0.0147465 0)
  (-0.0724379 -0.0201309 0)
  (-0.081078 -0.0290143 0)
  (-0.0906481 -0.0421171 0)
  (-0.0979073 -0.0573887 0)
  (-0.0970307 -0.0634637 0)
  (-0.0988806 -0.0295611 0)
  (-0.175048 0.10691 0)
  (0.787021 0.371341 0)
  (-0.0679592 0.0389894 0)
  (0.0877334 -0.0824461 0)
  (0.136338 -0.0121779 0)
  (0.100972 0.0306987 0)
  (0.0631069 0.0291044 0)
  (0.0457142 0.0162681 0)
  (0.0367358 0.00710736 0)
  (0.0295145 0.00179744 0)
  (0.0235352 -0.00128983 0)
  (0.0195695 -0.00293273 0)
  (0.0167845 -0.00400205 0)
  (0.0136132 -0.00530772 0)
  (0.00935844 -0.007148 0)
  (0.00375954 -0.00934167 0)
  (-0.00302738 -0.0111769 0)
  (-0.00960064 -0.0115785 0)
  (-0.014851 -0.0104964 0)
  (-0.0182452 -0.00873014 0)
  (-0.0200041 -0.00695809 0)
  (-0.0206178 -0.00558941 0)
  (-0.0205876 -0.0048226 0)
  (-0.0203597 -0.00472159 0)
  (-0.0202758 -0.00514864 0)
  (-0.0205005 -0.00585763 0)
  (-0.0210666 -0.00664872 0)
  (-0.0219451 -0.00735166 0)
  (-0.0230829 -0.00783042 0)
  (-0.0244578 -0.00797014 0)
  (-0.0261313 -0.00769777 0)
  (-0.02833 -0.00705905 0)
  (-0.0315645 -0.00635241 0)
  (-0.0367432 -0.00630058 0)
  (-0.0452527 -0.0082581 0)
  (-0.0590471 -0.0143093 0)
  (-0.0800015 -0.026613 0)
  (-0.106591 -0.0461599 0)
  (-0.1335 -0.0721944 0)
  (-0.179559 -0.101361 0)
  (-0.384025 -0.129545 0)
  (0.916187 0.352181 0)
  (0.426603 0.178872 0)
  (0.216106 0.0848039 0)
  (0.261557 0.104796 0)
  (0.172918 0.101905 0)
  (0.107071 0.0734614 0)
  (0.0863555 0.0451696 0)
  (0.0795787 0.0262439 0)
  (0.0735843 0.0149483 0)
  (0.0680416 0.00817315 0)
  (0.0635465 0.00412518 0)
  (0.0595658 0.00173415 0)
  (0.0558143 0.000191104 0)
  (0.0519262 -0.00108112 0)
  (0.0475834 -0.00232375 0)
  (0.0426564 -0.0034813 0)
  (0.0375678 -0.00419467 0)
  (0.0329763 -0.00424908 0)
  (0.0293542 -0.00381306 0)
  (0.0267576 -0.00316818 0)
  (0.0249983 -0.00256747 0)
  (0.0238003 -0.00218634 0)
  (0.0228755 -0.00211313 0)
  (0.0219773 -0.00232352 0)
  (0.0209374 -0.00271148 0)
  (0.0196695 -0.00316865 0)
  (0.0181661 -0.00359591 0)
  (0.0164846 -0.003888 0)
  (0.0147261 -0.00392597 0)
  (0.0130255 -0.00358351 0)
  (0.0115384 -0.00276409 0)
  (0.0104171 -0.00148229 0)
  (0.00978892 1.23637e-05 0)
  (0.00970578 0.00107416 0)
  (0.00993993 0.000612055 0)
  (0.00991106 -0.00222222 0)
  (0.0106232 -0.00681289 0)
  (0.0178003 -0.0158064 0)
  (0.055462 -0.061543 0)
  (-0.252497 -0.158276 0)
  (-1.4721 0.0690759 0)
  (0.0486449 0.128289 0)
  (0.0278601 0.0927195 0)
  (0.0373656 0.0609044 0)
  (0.0658009 0.0390634 0)
  (0.0858055 0.0261819 0)
  (0.0943788 0.0199874 0)
  (0.0975073 0.0176819 0)
  (0.0987305 0.0172828 0)
  (0.0989817 0.0174996 0)
  (0.098396 0.0175531 0)
  (0.0969203 0.0170622 0)
  (0.0945835 0.0159882 0)
  (0.0915126 0.0145035 0)
  (0.0879338 0.0128845 0)
  (0.0842384 0.0113335 0)
  (0.0807815 0.00997143 0)
  (0.0777289 0.00887463 0)
  (0.0751255 0.00798138 0)
  (0.0729149 0.00718945 0)
  (0.0709776 0.00641029 0)
  (0.0691764 0.00560598 0)
  (0.0673801 0.00480808 0)
  (0.0654913 0.0040479 0)
  (0.0634789 0.00334125 0)
  (0.0613723 0.00272927 0)
  (0.0592536 0.00226572 0)
  (0.057266 0.00199797 0)
  (0.055623 0.00192471 0)
  (0.054596 0.00190451 0)
  (0.0544656 0.00150538 0)
  (0.0554081 -0.000158801 0)
  (0.0573014 -0.00440503 0)
  (0.0595913 -0.0124168 0)
  (0.0619108 -0.0244604 0)
  (0.0648071 -0.0414997 0)
  (0.0866151 -0.0727321 0)
  (-0.0523163 -0.127099 0)
  (-0.635607 0.0920221 0)
  (0.21743 0.0455311 0)
  (0.0907741 0.00339893 0)
  (0.077144 -0.0143927 0)
  (0.101843 -0.0325479 0)
  (0.123776 -0.0504511 0)
  (0.135169 -0.0659682 0)
  (0.139911 -0.0785226 0)
  (0.141409 -0.087682 0)
  (0.141166 -0.0933008 0)
  (0.139874 -0.0957947 0)
  (0.137992 -0.0959761 0)
  (0.135801 -0.0946978 0)
  (0.133429 -0.0926336 0)
  (0.130935 -0.0902238 0)
  (0.128362 -0.0876981 0)
  (0.125776 -0.0852316 0)
  (0.123277 -0.0830149 0)
  (0.120923 -0.0811467 0)
  (0.118708 -0.079659 0)
  (0.11657 -0.0785332 0)
  (0.114425 -0.0777045 0)
  (0.112229 -0.0769546 0)
  (0.109968 -0.0761713 0)
  (0.107633 -0.0754152 0)
  (0.105244 -0.0746953 0)
  (0.102846 -0.073998 0)
  (0.100518 -0.0733073 0)
  (0.0983853 -0.0726229 0)
  (0.0965853 -0.0719859 0)
  (0.0952021 -0.0715111 0)
  (0.0941255 -0.0714137 0)
  (0.0928636 -0.0719918 0)
  (0.090392 -0.0735086 0)
  (0.0853496 -0.0760261 0)
  (0.0759404 -0.0794801 0)
  (0.084669 -0.0858025 0)
  (-0.0865062 -0.0997035 0)
  (0.527817 0.205912 0)
  (0.277755 -0.1665 0)
  (-0.164208 0.16294 0)
  (0.20594 0.121732 0)
  (0.213079 0.129258 0)
  (0.179817 0.15344 0)
  (0.174452 0.18024 0)
  (0.178017 0.208452 0)
  (0.178814 0.235345 0)
  (0.177202 0.258031 0)
  (0.175666 0.274722 0)
  (0.17509 0.284868 0)
  (0.175304 0.289051 0)
  (0.175955 0.288611 0)
  (0.176757 0.28508 0)
  (0.177487 0.279766 0)
  (0.177986 0.273621 0)
  (0.178166 0.26724 0)
  (0.178007 0.261034 0)
  (0.177515 0.255321 0)
  (0.17669 0.250284 0)
  (0.175534 0.245995 0)
  (0.174052 0.242435 0)
  (0.172257 0.239525 0)
  (0.170159 0.236952 0)
  (0.167801 0.23452 0)
  (0.165246 0.232288 0)
  (0.162521 0.230257 0)
  (0.159641 0.228383 0)
  (0.156609 0.226598 0)
  (0.153396 0.224816 0)
  (0.149901 0.222938 0)
  (0.145897 0.220841 0)
  (0.140935 0.218367 0)
  (0.134237 0.215309 0)
  (0.124582 0.211456 0)
  (0.11032 0.206709 0)
  (0.0898759 0.20144 0)
  (0.0930368 0.193195 0)
  (-0.164237 0.237996 0)
)
;

boundaryField
{
  floor
  {
    type noSlip;
  }
  ceiling
  {
    type noSlip;
  }
  sWall
  {
    type noSlip;
  }
  nWall
  {
    type noSlip;
  }
  sideWalls
  {
    type empty;
  }
  glass1
  {
    type noSlip;
  }
  glass2
  {
    type noSlip;
  }
  sun
  {
    type noSlip;
  }
  heatsource1
  {
    type noSlip;
  }
  heatsource2
  {
    type noSlip;
  }
  Table_master
  {
    type noSlip;
  }
  Table_slave
  {
    type noSlip;
  }
  inlet
  {
    type fixedValue;
    value uniform (0.0382683 -0.092388 0);
  }
  outlet
  {
    type zeroGradient;
  }
} 	// ************************************************************************* //

