/*--------------------------------*- C++ -*----------------------------------*\
  =========                 |
  \\      /  F ield         | OpenFOAM: The Open Source CFD Toolbox
   \\    /   O peration     | Website:  https://openfoam.org
    \\  /    A nd           | Version:  6
     \\/     M anipulation  |
\*---------------------------------------------------------------------------*/
FoamFile
{
    version     2.0;
    format      ascii;
    class       surfaceScalarField;
    location    "800";
    object      phi;
}
// * * * * * * * * * * * * * * * * * * * * * * * * * * * * * * * * * * * * * //

dimensions      [1 0 -1 0 0 0 0];

internalField   nonuniform List<scalar> 
852
(
-0.00310307
0.0031598
-0.00431889
0.00121584
-0.00513794
0.000819068
-0.00563361
0.000495679
-0.00575675
0.000123162
-0.00546316
-0.00029357
-0.00474127
-0.000721874
-0.0036663
-0.00107495
-0.00238983
-0.00127645
-0.00108381
-0.00130601
7.59314e-05
-0.00115974
0.000827762
-0.000751826
0.00116373
-0.000335969
0.000987183
0.000176553
0.000989209
-0.000938476
0.000941075
-0.00087424
-6.42856e-05
-0.000289307
-0.000584977
0.000369996
-0.000659346
0.000912542
-0.00054259
0.00130747
-0.000394975
0.00153518
-0.000227757
0.00164363
-0.000108494
0.00170538
-6.17991e-05
0.00174691
-4.15874e-05
0.00177462
-2.77577e-05
0.00179122
-1.66538e-05
0.00179516
-3.99888e-06
0.00177642
1.86834e-05
0.00170863
6.77359e-05
0.00154616
0.000162405
0.00126249
0.000283607
0.000847579
0.000414851
0.000850656
-0.0022343
0.00554774
-0.00337533
0.00235689
-0.00421677
0.00166053
-0.00472768
0.00100661
-0.00487082
0.000266325
-0.00460561
-0.000558759
-0.00394437
-0.00138309
-0.00299335
-0.00202594
-0.00191976
-0.00235002
-0.000880468
-0.00234528
-1.26246e-06
-0.00203894
0.000678325
-0.00143141
0.00109809
-0.000755734
0.00132329
-4.86435e-05
0.00171242
0.000600073
0.000920083
0.000792286
0.000920027
-9.48201e-05
0.00104387
0.0003131
-0.000472254
0.000743289
-0.00101521
0.00109005
-0.00100614
0.00138214
-0.000834724
0.00159421
-0.000607084
0.0016434
-0.000276991
0.00165401
-0.000119152
0.00166542
-7.32631e-05
0.00167491
-5.11226e-05
0.00168128
-3.41854e-05
0.00168534
-2.07642e-05
0.00168643
-5.14824e-06
0.00168011
2.49502e-05
0.00163527
0.000112517
0.00144427
0.000353347
0.00111812
0.000609693
0.000695586
0.000837316
0.00155481
-0.00157227
0.00735627
-0.00253475
0.00331939
-0.00329476
0.00242057
-0.00375217
0.00146404
-0.00387341
0.000387586
-0.00358843
-0.000843706
-0.00293927
-0.00203222
-0.00207788
-0.00288729
-0.00117884
-0.00324903
-0.00035982
-0.00316429
0.000303148
-0.0027019
0.000837669
-0.00196593
0.00122418
-0.00114225
0.00149354
-0.000318
0.00164167
0.00045193
0.00132623
0.00110773
0.00224625
0.00133275
-0.00027767
0.00168273
-0.000822268
0.0017188
-0.00105131
0.00176847
-0.00105585
0.00184426
-0.000910549
0.00197653
-0.000739396
0.00169965
0.0015806
0.00150745
0.00145643
0.00142234
0.00140168
0.00139662
0.00142167
0.00153428
0.00124729
0.000640271
0.000923254
0.000933666
0.00053272
0.00122778
0.00210104
-0.0010915
0.00875527
-0.00182956
0.00405748
-0.00235825
0.00294928
-0.00267093
0.00177675
-0.00267657
0.000393256
-0.00228318
-0.00123707
-0.00162528
-0.00269007
-0.000885087
-0.00362744
-0.000202164
-0.00393191
0.000365846
-0.00373227
0.000811147
-0.00314719
0.00117272
-0.00232751
0.00145582
-0.00142536
0.00168704
-0.000549226
0.00190648
0.000232481
0.00219189
0.000822309
0.00328134
0.0011568
0.00288011
0.000410561
0.00276204
-0.000159609
0.00255819
-0.000618429
0.00233303
-0.000826174
0.00213476
-0.000857616
0.00198235
-0.000758172
0.00179764
-0.00055473
0.00201197
-0.000214535
0.00208582
-7.40535e-05
0.00210415
-1.854e-05
0.00208436
1.95797e-05
0.00202413
6.00209e-05
0.00191506
0.000108848
0.00174004
0.00017481
0.00146834
0.000271478
0.00104092
0.000427195
0.000912849
0.000768271
0.000664775
0.00118167
0.000328912
0.00156358
0.00244798
-0.00074869
0.00987271
-0.0012776
0.00458641
-0.00142238
0.00309407
-0.00149517
0.00184955
-0.00120483
0.000102939
-0.000609799
-0.00183207
2.04861e-05
-0.0033203
0.000546551
-0.00415344
0.00093483
-0.00432014
0.00120317
-0.00400059
0.00138869
-0.00333271
0.00152143
-0.00246026
0.00162692
-0.00153087
0.00174471
-0.000667031
0.00192849
4.86809e-05
0.00221067
0.000540114
0.00262859
0.000738868
0.00264816
0.000390978
0.00256765
-7.91096e-05
0.00235792
-0.000408724
0.00210584
-0.000574122
0.00185707
-0.000608882
0.00163956
-0.000540706
0.001475
-0.000390225
0.00144916
-0.000188752
0.0014304
-5.53501e-05
0.0013992
1.2587e-05
0.00136352
5.51984e-05
0.00132418
9.92909e-05
0.00127142
0.000161535
0.00119108
0.000255073
0.00106933
0.000393149
0.000911076
0.000585376
0.000794107
0.000885165
0.000698219
0.00127749
0.000464929
0.0017968
0.000531254
0.00238158
-0.000946735
0.0014777
-0.00139913
0.000452091
-0.00135377
-0.000620152
0.0109138
-0.000927801
0.00489408
-0.000479287
0.00264557
3.49773e-05
0.0013353
0.000748793
-0.000610869
0.00142549
-0.00250873
0.00188337
-0.00377812
0.00209961
-0.00436962
0.00214319
-0.00436367
0.00205826
-0.00391563
0.00190535
-0.0031798
0.0017352
-0.00229014
0.00159008
-0.00138578
0.00151041
-0.0005874
0.00152991
2.91571e-05
0.00165586
0.000414143
0.00186473
0.000529985
0.0019376
0.000318085
0.00184231
1.61566e-05
0.00164962
-0.000216073
0.00141937
-0.000343905
0.00118677
-0.000376343
0.000978011
-0.000332
0.000818897
-0.000231176
0.000734682
-0.000104605
0.000694185
-1.49257e-05
0.00067724
2.9458e-05
0.00067898
5.3381e-05
0.000694465
8.37278e-05
0.000717233
0.000138686
0.00074082
0.000231405
0.000762051
0.000371835
0.000781615
0.000565731
0.000840336
0.000826364
0.000986492
0.00113126
0.00122835
0.00155486
0.00175123
0.00185863
0.00206168
0.00116717
0.00171003
0.000803643
0.000411174
-0.000598587
0.011981
-0.00035648
0.00465199
0.000945953
0.00134315
0.00211402
0.000167236
0.00311353
-0.00161035
0.00369529
-0.00309044
0.00386081
-0.00394355
0.0036821
-0.00419083
0.00326977
-0.00395129
0.00272956
-0.0033754
0.0021603
-0.00261056
0.00163064
-0.00176053
0.00119819
-0.000953388
0.000900314
-0.000289573
0.000771684
0.000157747
0.000801906
0.00038389
0.000909947
0.000421914
0.000946567
0.000281431
0.000874888
8.77928e-05
0.000728132
-6.93686e-05
0.0005416
-0.000157432
0.000346347
-0.000181158
0.000169089
-0.000154816
3.46481e-05
-9.68122e-05
-3.879e-05
-3.12483e-05
-6.07409e-05
6.94151e-06
-4.59936e-05
1.46266e-05
-2.75605e-06
1.00584e-05
6.64945e-05
1.4391e-05
0.000159903
4.51897e-05
0.000277136
0.000114083
0.000421671
0.000227212
0.00059597
0.000391345
0.000822834
0.000599415
0.00114048
0.000813526
0.00160796
0.00108731
0.00231831
0.0011482
0.00288702
0.000598379
0.00294121
0.000749366
0.00341128
0.00292578
0.00958012
0.00380108
0.00377671
0.00445193
0.000692316
0.00562079
-0.00100161
0.00629556
-0.00228506
0.00632502
-0.00311982
0.00583529
-0.00345373
0.00499208
-0.00334754
0.00395433
-0.00291351
0.00286316
-0.00228425
0.0018487
-0.00159614
0.00097536
-0.000887274
0.00031521
-0.000293318
-7.36033e-05
9.91668e-05
-0.00020981
0.000293902
-0.000190058
0.000364091
-0.000120563
0.000352371
-9.89273e-05
0.000259741
-0.000150936
0.000139739
-0.000260705
4.03291e-05
-0.00040162
-1.65958e-05
-0.000548396
-3.4466e-05
-0.000677813
-2.5487e-05
-0.000771692
-3.0242e-06
-0.000818626
1.55928e-05
-0.000826293
1.45163e-05
-0.000807833
-3.92534e-06
-0.00076729
-3.05768e-05
-0.000698448
-5.4545e-05
-0.000592779
-6.05735e-05
-0.000447349
-3.14413e-05
-0.000261997
4.17659e-05
-2.34003e-05
0.000152655
0.000275047
0.000300878
0.000617412
0.000471075
0.00104366
0.000660978
0.0015078
0.000683984
0.00166705
0.000439049
0.000914536
0.0015018
0.00456654
0.0101588
0.0139297
0.0124336
0.00218843
0.0114823
-5.02822e-05
0.0102248
-0.00102741
0.00866228
-0.00155715
0.00690649
-0.00169785
0.00511405
-0.00155507
0.00339795
-0.00119745
0.00183546
-0.000721824
0.000520156
-0.000280938
-0.000441046
7.38052e-05
-0.000977026
0.00024257
-0.00117794
0.000300003
-0.00120956
0.000325459
-0.00117353
0.000327993
-0.00112444
0.000303211
-0.0011113
0.000246529
-0.00114889
0.000177238
-0.001226
0.000117353
-0.00132164
7.89496e-05
-0.0014182
6.19912e-05
-0.00150287
5.90831e-05
-0.00156695
6.09541e-05
-0.0016114
5.99403e-05
-0.00164863
5.16445e-05
-0.00169146
3.88025e-05
-0.00175192
2.97778e-05
-0.00184148
3.49127e-05
-0.00196838
6.62281e-05
-0.00213711
0.000137189
-0.00235911
0.000263659
-0.00267063
0.000464085
-0.00312498
0.000755138
-0.00379511
0.00114111
-0.00473782
0.0016036
-0.00606782
0.00201389
-0.0077035
0.00207464
-0.00722435
0.00102255
-0.00239652
0.00498164
0.00396313
0.00352616
0.00140526
0.00341171
-0.000912987
0.00288894
-0.00103446
0.0019286
-0.000737628
0.000783307
-0.000409923
-0.000361176
-5.31347e-05
-0.00128381
0.000200677
-0.0018516
0.000286748
-0.00210085
0.000322954
-0.00217535
0.000316971
-0.00217362
0.000298184
-0.00213168
0.000283435
-0.00207628
0.000272503
-0.0020299
0.000256744
-0.00201288
0.000229411
-0.00203051
0.000194768
-0.00207458
0.000161313
-0.00213104
0.000135303
-0.00218741
0.000118247
-0.00223648
0.000108047
-0.00227692
0.000101281
-0.00231212
9.50282e-05
-0.00234873
8.81363e-05
-0.0023926
8.25661e-05
-0.00244636
8.34231e-05
-0.00250993
9.83811e-05
-0.00258135
0.000137538
-0.00265789
0.000213627
-0.00273727
0.000342934
-0.002819
0.000545715
-0.00290268
0.000838718
-0.00297334
0.00121168
-0.00296819
0.00159835
-0.00281681
0.00186242
-0.00226766
0.00152538
-0.000999025
-0.000246185
-0.00333047
-0.000169325
0.0042019
0.000484425
0.000751425
-0.000501692
7.29559e-05
-0.00152999
-6.32585e-06
-0.0023437
7.59293e-05
-0.00292128
0.000167504
-0.00321681
0.000242258
-0.00329575
0.000279504
-0.00328115
0.000272028
-0.00320474
0.00024644
-0.00310455
0.000216681
-0.00300053
0.000194052
-0.00289905
0.000181851
-0.00280404
0.000177391
-0.0027221
0.000174694
-0.00266131
0.000168505
-0.00262469
0.000158036
-0.00260879
0.000145294
-0.00260637
0.000132761
-0.00261021
0.000121962
-0.00261553
0.000113246
-0.00262051
0.000106136
-0.00262538
9.97795e-05
-0.00263098
9.36151e-05
-0.00263687
8.8337e-05
-0.00263988
8.6315e-05
-0.00263332
9.1705e-05
-0.00260653
0.000110643
-0.00254439
0.000151373
-0.00242637
0.000224809
-0.00222742
0.000346656
-0.00192534
0.000536531
-0.00149667
0.000782905
-0.000889597
0.000991172
4.59268e-05
0.000926799
0.00122798
0.000343222
0.00163739
-0.000655701
-0.00162206
-0.00757981
-0.0104911
-0.00624919
-0.00548485
-0.00540879
-0.00541622
-0.00534384
-0.00518179
-0.00494661
-0.00467559
-0.00441324
-0.00417743
-0.00397215
-0.00379012
-0.00362085
-0.00345656
-0.0032955
-0.00314117
-0.00299785
-0.00286776
-0.00275062
-0.0026446
-0.00254751
-0.00245769
-0.0023743
-0.00229709
-0.00222509
-0.00215497
-0.0020792
-0.00198411
-0.0018478
-0.00163745
-0.00130458
-0.000781125
-1.06267e-05
0.000968783
0.00188378
0.00221457
0.00154556
)
;

boundaryField
{
    floor
    {
        type            calculated;
        value           nonuniform List<scalar> 
29
(
0
0
0
0
0
0
0
0
0
0
0
0
0
0
0
0
0
0
0
0
-3.14398e-06
-8.6356e-06
-1.35761e-05
-1.81039e-05
-2.02424e-06
-2.65328e-06
-8.02989e-06
-1.12712e-05
-9.33538e-06
)
;
    }
    ceiling
    {
        type            calculated;
        value           nonuniform List<scalar> 
43
(
-4.22719e-05
-4.12579e-05
-4.01699e-05
-1.30692e-05
-3.25107e-06
9.61857e-07
3.41826e-06
5.32635e-06
6.9538e-06
8.35861e-06
9.55254e-06
1.05137e-05
1.12765e-05
1.1903e-05
1.24533e-05
1.29774e-05
1.35077e-05
1.40507e-05
1.45853e-05
1.50752e-05
1.54882e-05
1.5808e-05
1.60358e-05
1.61829e-05
1.62612e-05
1.62745e-05
1.62157e-05
1.6068e-05
1.58123e-05
1.54361e-05
1.4941e-05
1.43431e-05
1.36707e-05
1.29651e-05
1.22948e-05
1.1654e-05
1.16913e-05
1.23261e-05
1.31906e-05
1.51174e-05
8.54087e-06
5.83523e-06
-6.93952e-05
)
;
    }
    sWall
    {
        type            calculated;
        value           uniform -0.000270528;
    }
    nWall
    {
        type            calculated;
        value           nonuniform List<scalar> 6(-4.56651e-05 -5.50084e-05 -5.89809e-05 -6.51939e-05 -7.11393e-05 -9.17502e-05);
    }
    sideWalls
    {
        type            empty;
        value           nonuniform 0();
    }
    glass1
    {
        type            calculated;
        value           nonuniform List<scalar> 9(-5.67044e-05 -0.000153628 -0.000236236 -0.000307484 -0.000368725 -0.000420875 -0.000468595 -0.000524914 -0.000587198);
    }
    glass2
    {
        type            calculated;
        value           nonuniform List<scalar> 2(-0.000240804 -0.000261385);
    }
    sun
    {
        type            calculated;
        value           uniform 0;
    }
    heatsource1
    {
        type            calculated;
        value           nonuniform List<scalar> 3(2.03788e-07 2.03687e-07 2.03724e-07);
    }
    heatsource2
    {
        type            calculated;
        value           nonuniform List<scalar> 4(5.11068e-08 5.12394e-08 0 0);
    }
    Table_master
    {
        type            calculated;
        value           nonuniform List<scalar> 9(-1.52952e-07 -1.53106e-07 -1.53152e-07 -1.53178e-07 -1.53194e-07 -1.53202e-07 -1.53203e-07 -1.53189e-07 -1.53142e-07);
    }
    Table_slave
    {
        type            calculated;
        value           nonuniform List<scalar> 9(1.52744e-07 1.52778e-07 1.52761e-07 1.52749e-07 1.52745e-07 1.52757e-07 1.52786e-07 1.52839e-07 1.52928e-07);
    }
    inlet
    {
        type            calculated;
        value           uniform -0.00675627;
    }
    outlet
    {
        type            calculated;
        value           nonuniform List<scalar> 2(0.00789248 0.00295244);
    }
}


// ************************************************************************* //
