// -*- C++ -*-
// File generated by PyFoam - sorry for the ugliness

FoamFile
{
 version 2.0;
 format ascii;
 class volScalarField;
 location "800";
 object T;
}

dimensions [ 0 0 0 1 0 0 0 ];

internalField nonuniform List<scalar> 459
(
  303.228
  302.966
  302.955
  302.952
  302.95
  302.947
  302.943
  302.937
  302.927
  302.916
  302.905
  302.898
  302.895
  302.898
  302.92
  303.003
  302.986
  302.981
  302.988
  302.995
  303.001
  303.005
  303.01
  303.014
  303.018
  303.022
  303.026
  303.03
  303.034
  303.038
  303.042
  303.048
  303.054
  303.076
  303.404
  303.007
  302.986
  302.99
  302.994
  302.995
  302.992
  302.982
  302.961
  302.936
  302.912
  302.896
  302.889
  302.888
  302.891
  302.884
  302.874
  303.005
  302.969
  302.969
  302.977
  302.987
  302.996
  302.998
  303
  303.001
  303.002
  303.003
  303.004
  303.005
  303.006
  303.009
  303.013
  303.019
  303.029
  303.062
  303.588
  303.058
  303.022
  303.035
  303.051
  303.062
  303.064
  303.049
  303.012
  302.965
  302.924
  302.898
  302.887
  302.887
  302.889
  302.888
  302.882
  302.968
  302.96
  302.966
  302.982
  302.999
  303.013
  303.012
  303.011
  303.009
  303.009
  303.008
  303.008
  303.007
  303.007
  303.008
  303.011
  303.016
  303.024
  303.057
  303.776
  303.119
  303.06
  303.082
  303.115
  303.143
  303.156
  303.132
  303.07
  302.995
  302.934
  302.896
  302.884
  302.887
  302.894
  302.898
  302.896
  302.906
  302.922
  302.946
  302.975
  303.004
  303.031
  303.053
  303.072
  303.088
  303.102
  303.115
  303.126
  303.135
  303.143
  303.149
  303.153
  303.108
  303.067
  303.044
  303.061
  303.959
  303.197
  303.101
  303.122
  303.171
  303.223
  303.251
  303.21
  303.117
  303.012
  302.935
  302.891
  302.879
  302.887
  302.902
  302.915
  302.926
  302.942
  302.965
  302.993
  303.026
  303.058
  303.088
  303.114
  303.139
  303.159
  303.176
  303.19
  303.2
  303.205
  303.206
  303.202
  303.193
  303.161
  303.114
  303.072
  303.066
  303.173
  303.223
  303.227
  304.126
  303.299
  303.168
  303.168
  303.222
  303.307
  303.321
  303.249
  303.13
  303.009
  302.921
  302.875
  302.869
  302.888
  302.917
  302.945
  302.969
  302.994
  303.024
  303.058
  303.093
  303.127
  303.157
  303.183
  303.205
  303.224
  303.24
  303.251
  303.258
  303.259
  303.254
  303.244
  303.228
  303.199
  303.155
  303.108
  303.084
  303.123
  303.145
  303.183
  304.279
  303.461
  303.324
  303.304
  303.34
  303.403
  303.365
  303.243
  303.091
  302.957
  302.872
  302.842
  302.856
  302.898
  302.948
  302.994
  303.033
  303.069
  303.103
  303.138
  303.171
  303.202
  303.228
  303.25
  303.269
  303.284
  303.295
  303.301
  303.304
  303.301
  303.291
  303.276
  303.257
  303.23
  303.193
  303.15
  303.122
  303.128
  303.14
  303.169
  304.5
  303.887
  303.73
  303.647
  303.632
  303.541
  303.359
  303.142
  302.952
  302.829
  302.782
  302.798
  302.855
  302.933
  303.012
  303.075
  303.124
  303.162
  303.193
  303.222
  303.249
  303.273
  303.293
  303.309
  303.321
  303.329
  303.334
  303.335
  303.332
  303.326
  303.316
  303.302
  303.284
  303.26
  303.233
  303.204
  303.188
  303.201
  303.218
  303.335
  304.816
  304.527
  304.266
  304.04
  303.811
  303.408
  303.022
  302.749
  302.617
  302.605
  302.676
  302.79
  302.909
  303.031
  303.13
  303.186
  303.221
  303.25
  303.275
  303.297
  303.316
  303.332
  303.344
  303.353
  303.358
  303.359
  303.357
  303.354
  303.348
  303.342
  303.337
  303.333
  303.331
  303.333
  303.342
  303.361
  303.391
  303.421
  303.441
  303.495
  296.731
  298.437
  299.294
  300.158
  300.918
  301.555
  302.062
  302.447
  302.755
  302.985
  303.11
  303.189
  303.241
  303.275
  303.301
  303.323
  303.341
  303.356
  303.368
  303.375
  303.38
  303.381
  303.381
  303.379
  303.376
  303.373
  303.37
  303.368
  303.366
  303.365
  303.366
  303.372
  303.382
  303.4
  303.422
  303.447
  303.469
  303.499
  297.142
  298.821
  299.96
  301.02
  301.832
  302.346
  302.694
  302.928
  303.084
  303.186
  303.251
  303.294
  303.324
  303.346
  303.363
  303.377
  303.388
  303.396
  303.4
  303.402
  303.402
  303.401
  303.399
  303.396
  303.394
  303.391
  303.389
  303.387
  303.386
  303.385
  303.386
  303.39
  303.397
  303.408
  303.423
  303.443
  303.447
  303.481
  301.369
  299.565
  299.455
  301.351
  302.281
  302.703
  302.921
  303.066
  303.17
  303.244
  303.296
  303.333
  303.358
  303.376
  303.389
  303.399
  303.406
  303.411
  303.413
  303.414
  303.414
  303.413
  303.411
  303.409
  303.408
  303.406
  303.404
  303.402
  303.401
  303.399
  303.398
  303.397
  303.397
  303.398
  303.401
  303.41
  303.418
  303.425
  303.43
  303.471
)
;

boundaryField
{
  floor
  {
    type wallHeatTransfer;
    Tinf uniform 305.2;
    alphaWall uniform 0.24;
    value nonuniform List<scalar> 29
(
  303.186
  303.412
  303.353
  303.317
  303.315
  303.324
  303.338
  303.357
  303.379
  303.401
  303.421
  303.442
  303.461
  303.48
  303.498
  303.516
  303.534
  303.554
  303.571
  303.615
  303.615
  303.526
  303.48
  303.456
  303.186
  303.412
  303.41
  303.248
  303.108
)
;
  }
  ceiling
  {
    type wallHeatTransfer;
    Tinf uniform 303.2;
    alphaWall uniform 0.24;
    value nonuniform List<scalar> 43
(
  301.489
  299.805
  299.699
  301.468
  302.344
  302.739
  302.942
  303.076
  303.172
  303.24
  303.287
  303.319
  303.34
  303.355
  303.365
  303.372
  303.377
  303.379
  303.381
  303.381
  303.38
  303.378
  303.377
  303.376
  303.375
  303.374
  303.373
  303.372
  303.372
  303.372
  303.372
  303.373
  303.374
  303.376
  303.379
  303.389
  303.397
  303.403
  303.406
  303.441
  304.742
  304.474
  297.518
)
;
  }
  sWall
  {
    type wallHeatTransfer;
    Tinf uniform 315.2;
    alphaWall uniform 0.36;
    value uniform 302.695;
  }
  nWall
  {
    type wallHeatTransfer;
    Tinf uniform 307.2;
    alphaWall uniform 0.36;
    value nonuniform List<scalar> 6
(
  303.953
  303.892
  303.802
  304.024
  304.002
  304.062
)
;
  }
  sideWalls
  {
    type empty;
  }
  glass1
  {
    type wallHeatTransfer;
    Tinf uniform 315.2;
    alphaWall uniform 4.3;
    value nonuniform List<scalar> 9
(
  311.348
  310.713
  310.317
  310.018
  309.77
  309.544
  309.373
  309.445
  309.673
)
;
  }
  glass2
  {
    type wallHeatTransfer;
    Tinf uniform 307.2;
    alphaWall uniform 4.3;
    value nonuniform List<scalar> 2
(
  305.699
  305.819
)
;
  }
  sun
  {
    type wallHeatTransfer;
    Tinf uniform 305.2;
    alphaWall uniform 0.24;
    value nonuniform List<scalar> 14
(
  303.432
  303.181
  303.167
  303.157
  303.148
  303.139
  303.13
  303.12
  303.109
  303.098
  303.091
  303.091
  303.1
  303.125
)
;
  }
  heatsource1
  {
    type fixedGradient;
    gradient uniform 0;
  }
  heatsource2
  {
    type fixedGradient;
    gradient uniform 0;
  }
  Table_master
  {
    type zeroGradient;
  }
  Table_slave
  {
    type zeroGradient;
  }
  inlet
  {
    type fixedValue;
    value uniform 293.15;
  }
  outlet
  {
    type zeroGradient;
  }
} 	// ************************************************************************* //

