/*--------------------------------*- C++ -*----------------------------------*\
  =========                 |
  \\      /  F ield         | OpenFOAM: The Open Source CFD Toolbox
   \\    /   O peration     | Website:  https://openfoam.org
    \\  /    A nd           | Version:  6
     \\/     M anipulation  |
\*---------------------------------------------------------------------------*/
FoamFile
{
    version     2.0;
    format      ascii;
    class       volScalarField;
    location    "900";
    object      epsilon;
}
// * * * * * * * * * * * * * * * * * * * * * * * * * * * * * * * * * * * * * //

dimensions      [0 2 -3 0 0 0 0];

internalField   nonuniform List<scalar> 
459
(
0.000651294
0.000882158
0.000984725
0.0011555
0.00134044
0.00155344
0.00175858
0.00190275
0.0019453
0.00186586
0.00166193
0.00122739
0.000891895
0.000580603
0.000364383
3.31314e-05
5.14274e-05
7.38165e-05
9.84937e-05
0.000107149
9.72612e-05
5.69817e-05
3.09103e-05
1.72202e-05
1.08895e-05
7.64265e-06
5.79311e-06
4.6231e-06
3.86482e-06
3.57475e-06
4.70153e-06
1.39428e-05
2.79164e-05
1.83646e-05
0.00140628
0.00182393
0.000815257
0.000823355
0.000903515
0.00104661
0.00122159
0.00135945
0.0014058
0.00134108
0.00118035
0.000935716
0.000734272
0.00056338
0.000421338
0.000688509
0.000356037
3.57414e-05
4.47263e-05
8.21603e-05
0.000107426
0.00011333
0.000108104
9.9775e-05
6.88748e-05
4.58706e-05
3.15704e-05
2.30192e-05
1.77994e-05
1.46137e-05
1.28919e-05
1.29403e-05
1.51421e-05
3.13757e-05
6.11879e-05
2.71895e-05
0.00234126
0.00385715
0.00090704
0.000785983
0.000896428
0.00110439
0.00133412
0.00148454
0.00152493
0.00145237
0.00127983
0.00106554
0.000863871
0.000686533
0.000530035
0.000497932
0.000644674
4.95256e-05
8.52241e-05
0.000116461
0.000132956
0.000136112
0.000134425
0.000224851
0.000132927
8.24913e-05
5.46513e-05
3.866e-05
2.90255e-05
2.29842e-05
1.91423e-05
1.71034e-05
1.63019e-05
2.02052e-05
5.98723e-05
4.9971e-05
0.00354267
0.00755176
0.00127654
0.00082035
0.000961514
0.00129238
0.00157197
0.00169824
0.00171105
0.00161278
0.00143021
0.00120129
0.000971103
0.00077417
0.000615299
0.000522801
0.000520529
0.00086106
0.000486787
0.000329667
0.000249241
0.000206735
0.000181133
0.000172173
0.000412913
0.000329407
0.000272424
0.000230262
0.000197289
0.000169877
0.00014536
0.000122166
9.91046e-05
5.86012e-05
3.78574e-05
5.61925e-05
5.47464e-05
0.00513586
0.0132647
0.00231755
0.0010133
0.00118305
0.00176463
0.00200804
0.00205473
0.00200761
0.00186839
0.00163756
0.00134418
0.00104929
0.000803893
0.000623629
0.000508237
0.000465876
0.00049093
0.000409976
0.000341279
0.000293136
0.000256765
0.000225263
0.000198781
0.000191968
0.000178211
0.000163885
0.000149712
0.000135656
0.000121328
0.000106372
9.09387e-05
7.5768e-05
5.89913e-05
4.48435e-05
4.41605e-05
5.43512e-05
7.03401e-05
8.00311e-05
0.000148559
0.00731226
0.0198711
0.00509468
0.00191812
0.00232593
0.00269959
0.00269999
0.0025989
0.0024552
0.0022341
0.00190998
0.00151294
0.00112387
0.000811514
0.000598588
0.000478288
0.000434208
0.000427672
0.00040313
0.000375426
0.000343514
0.000307156
0.00026848
0.000231947
0.000203676
0.000182488
0.000165783
0.000151219
0.000137655
0.000124396
0.000110981
9.73919e-05
8.42967e-05
7.24575e-05
6.31059e-05
5.88646e-05
6.22001e-05
7.38602e-05
0.000119673
0.000182219
0.00969067
0.0239595
0.010396
0.00551078
0.00486295
0.00422902
0.00372232
0.00336018
0.0030608
0.00270965
0.00224589
0.00170136
0.00119118
0.000805596
0.000565985
0.000454798
0.000426808
0.000429768
0.000423571
0.000402863
0.000369332
0.000326795
0.000281863
0.000240322
0.000206879
0.000182502
0.000165098
0.000152417
0.00014335
0.000137498
0.000134746
0.000134638
0.000136556
0.000141729
0.000152805
0.000176913
0.000206936
0.000217679
0.000327983
0.000347853
0.0102004
0.0247623
0.0147036
0.0103696
0.00761617
0.00588833
0.00486894
0.00426346
0.00380279
0.00327615
0.00260542
0.00184255
0.00118193
0.000731758
0.000508619
0.000439049
0.000430153
0.000435427
0.000425842
0.000398025
0.00035664
0.000309028
0.000262954
0.000223272
0.0001925
0.000170724
0.000156658
0.000149909
0.000151558
0.000163616
0.000187973
0.00022627
0.00027981
0.000351696
0.00045524
0.000608677
0.00077713
0.00099803
0.0016757
0.000433852
0.00945532
0.0155717
0.012474
0.00970986
0.00764056
0.0063986
0.0056804
0.00518077
0.00460679
0.00378277
0.00275731
0.0016344
0.000905588
0.000598705
0.000476104
0.000436581
0.000428734
0.000423128
0.000404181
0.000371289
0.000329833
0.00028622
0.000245664
0.000211091
0.000183569
0.000163078
0.000149622
0.000144266
0.000148998
0.000165603
0.000194443
0.00023477
0.000286313
0.000349534
0.000425084
0.000510041
0.000595901
0.000680891
0.000746747
0.000478411
0.00344938
0.00482463
0.00623259
0.00647496
0.00620523
0.00549495
0.00421057
0.00262303
0.00156693
0.0009565
0.000659165
0.000527119
0.000473351
0.000454112
0.000445466
0.00043315
0.00041152
0.000382178
0.000349197
0.000316241
0.00028555
0.000257985
0.000233708
0.000212912
0.000196365
0.000185526
0.000182242
0.000188463
0.000206281
0.000238214
0.000287278
0.000356029
0.000444891
0.000547196
0.000640208
0.000677302
0.000574568
0.000470486
0.00226465
0.00731407
0.00799115
0.00648248
0.00490184
0.00344361
0.00224898
0.00144101
0.000975997
0.000728193
0.0006093
0.000556398
0.000536302
0.000532301
0.000535354
0.000539994
0.000542931
0.000542847
0.000539318
0.000532177
0.000521505
0.000507808
0.000492107
0.000475871
0.000460896
0.000449155
0.000442369
0.000441357
0.000445483
0.000452942
0.000462202
0.000473557
0.000488724
0.000503992
0.000503513
0.000490397
0.000441283
0.000546445
0.0017841
0.00211804
0.00237679
0.00309186
0.00278111
0.00259341
0.0022529
0.00185961
0.00147522
0.00117428
0.000972607
0.000850997
0.000781527
0.00074225
0.000718266
0.000699349
0.000678636
0.000652698
0.000621748
0.000588196
0.000554838
0.000523787
0.000496165
0.000472301
0.000452126
0.000435532
0.000422538
0.000413256
0.000407778
0.000406131
0.000408363
0.000414689
0.000425328
0.000439369
0.000453908
0.000451802
0.00041207
0.00031896
0.000297735
0.000572115
)
;

boundaryField
{
    floor
    {
        Cmu             0.09;
        kappa           0.41;
        E               9.8;
        type            epsilonWallFunction;
        value           nonuniform List<scalar> 
29
(
0.000364383
3.31314e-05
5.14274e-05
7.38165e-05
9.84937e-05
0.000107149
9.72612e-05
5.69817e-05
3.09103e-05
1.72202e-05
1.08895e-05
7.64265e-06
5.79311e-06
4.6231e-06
3.86482e-06
3.57475e-06
4.70153e-06
1.39428e-05
2.79164e-05
1.83646e-05
1.83646e-05
2.71895e-05
4.9971e-05
5.47464e-05
0.000364383
3.31314e-05
3.57414e-05
4.95256e-05
0.00086106
)
;
    }
    ceiling
    {
        Cmu             0.09;
        kappa           0.41;
        E               9.8;
        type            epsilonWallFunction;
        value           nonuniform List<scalar> 
43
(
0.0017841
0.00211804
0.00237679
0.00309186
0.00278111
0.00259341
0.0022529
0.00185961
0.00147522
0.00117428
0.000972607
0.000850997
0.000781527
0.00074225
0.000718266
0.000699349
0.000678636
0.000652698
0.000621748
0.000588196
0.000554838
0.000523787
0.000496165
0.000472301
0.000452126
0.000435532
0.000422538
0.000413256
0.000407778
0.000406131
0.000408363
0.000414689
0.000425328
0.000439369
0.000453908
0.000451802
0.00041207
0.00031896
0.000297735
0.000572115
0.00945532
0.0155717
0.00226465
)
;
    }
    sWall
    {
        Cmu             0.09;
        kappa           0.41;
        E               9.8;
        type            epsilonWallFunction;
        value           uniform 0.0017841;
    }
    nWall
    {
        Cmu             0.09;
        kappa           0.41;
        E               9.8;
        type            epsilonWallFunction;
        value           nonuniform List<scalar> 6(0.000148559 0.000182219 0.000347853 0.000470486 0.000546445 0.000572115);
    }
    sideWalls
    {
        type            empty;
    }
    glass1
    {
        Cmu             0.09;
        kappa           0.41;
        E               9.8;
        type            epsilonWallFunction;
        value           nonuniform List<scalar> 9(0.000651294 0.00140628 0.00234126 0.00354267 0.00513586 0.00731226 0.00969067 0.0102004 0.00945532);
    }
    glass2
    {
        Cmu             0.09;
        kappa           0.41;
        E               9.8;
        type            epsilonWallFunction;
        value           nonuniform List<scalar> 2(0.000433852 0.000478411);
    }
    sun
    {
        Cmu             0.09;
        kappa           0.41;
        E               9.8;
        type            epsilonWallFunction;
        value           nonuniform List<scalar> 
14
(
0.000651294
0.000882158
0.000984725
0.0011555
0.00134044
0.00155344
0.00175858
0.00190275
0.0019453
0.00186586
0.00166193
0.00122739
0.000891895
0.000580603
)
;
    }
    heatsource1
    {
        Cmu             0.09;
        kappa           0.41;
        E               9.8;
        type            epsilonWallFunction;
        value           nonuniform List<scalar> 3(7.03401e-05 8.00311e-05 0.000148559);
    }
    heatsource2
    {
        Cmu             0.09;
        kappa           0.41;
        E               9.8;
        type            epsilonWallFunction;
        value           nonuniform List<scalar> 4(0.000688509 0.000356037 0.000356037 0.000644674);
    }
    Table_master
    {
        Cmu             0.09;
        kappa           0.41;
        E               9.8;
        type            epsilonWallFunction;
        value           nonuniform List<scalar> 9(0.000224851 0.000132927 8.24913e-05 5.46513e-05 3.866e-05 2.90255e-05 2.29842e-05 1.91423e-05 1.71034e-05);
    }
    Table_slave
    {
        Cmu             0.09;
        kappa           0.41;
        E               9.8;
        type            epsilonWallFunction;
        value           nonuniform List<scalar> 9(0.000412913 0.000329407 0.000272424 0.000230262 0.000197289 0.000169877 0.00014536 0.000122166 9.91046e-05);
    }
    inlet
    {
        type            turbulentMixingLengthDissipationRateInlet;
        mixingLength    0.01;
        phi             phi;
        k               k;
        value           uniform 0.000101881;
    }
    outlet
    {
        type            zeroGradient;
    }
}


// ************************************************************************* //
