/*--------------------------------*- C++ -*----------------------------------*\
  =========                 |
  \\      /  F ield         | OpenFOAM: The Open Source CFD Toolbox
   \\    /   O peration     | Website:  https://openfoam.org
    \\  /    A nd           | Version:  6
     \\/     M anipulation  |
\*---------------------------------------------------------------------------*/
FoamFile
{
    version     2.0;
    format      ascii;
    class       surfaceScalarField;
    location    "1100";
    object      phi;
}
// * * * * * * * * * * * * * * * * * * * * * * * * * * * * * * * * * * * * * //

dimensions      [1 0 -1 0 0 0 0];

internalField   nonuniform List<scalar> 
852
(
-0.00295457
0.00301201
-0.00398734
0.00103278
-0.00478599
0.000798647
-0.00541167
0.000625679
-0.00583108
0.000419411
-0.00601656
0.000185482
-0.00594015
-7.64032e-05
-0.00557875
-0.0003614
-0.00494492
-0.000633825
-0.0040998
-0.000845117
-0.00313998
-0.000959822
-0.00217556
-0.00096442
-0.00130668
-0.000868879
-0.000591187
-0.000715489
-0.000589519
-0.000770427
0.000773441
-0.000507654
-0.00026277
8.7706e-05
-0.000595357
0.000583168
-0.000495459
0.000924468
-0.000341297
0.0011454
-0.000220928
0.00126804
-0.000122634
0.00132746
-5.94173e-05
0.00136029
-3.28324e-05
0.00138035
-2.00559e-05
0.00139155
-1.12e-05
0.0013954
-3.84724e-06
0.00139058
4.82341e-06
0.00136966
2.09279e-05
0.00131174
5.7925e-05
0.00118181
0.000129932
0.000968503
0.000213308
0.000710472
0.000258035
0.000714514
-0.00211656
0.00528331
-0.00313256
0.00204877
-0.00396096
0.00162705
-0.00458281
0.00124753
-0.00500011
0.000836715
-0.00519451
0.000379881
-0.00513474
-0.000136167
-0.00480132
-0.000694826
-0.00421877
-0.00121637
-0.00345936
-0.00160452
-0.0026188
-0.00180039
-0.001792
-0.00179122
-0.00105995
-0.00160092
-0.000501433
-0.00127401
-0.000238329
-0.000852621
8.97012e-05
-0.00032808
8.96525e-05
0.00027204
0.000510157
0.000674411
-0.000665139
0.000935369
-0.000856312
0.00115548
-0.000715568
0.00132954
-0.000515355
0.00144078
-0.000332165
0.00146009
-0.000141939
0.00146494
-6.42613e-05
0.00147084
-3.87343e-05
0.00147582
-2.50287e-05
0.00147913
-1.45133e-05
0.00148092
-5.62611e-06
0.00148052
5.21721e-06
0.00147478
2.66713e-05
0.00143614
9.65716e-05
0.00127038
0.000295697
0.000982209
0.000501481
0.000621866
0.000618381
0.00134663
-0.00148817
0.00700817
-0.00236896
0.00292956
-0.00310974
0.00236784
-0.00364776
0.00178555
-0.0040186
0.00120756
-0.00419933
0.000560605
-0.0041366
-0.000198889
-0.00380085
-0.00103058
-0.00324099
-0.00177623
-0.00254832
-0.00229719
-0.00181634
-0.00253236
-0.00112015
-0.00248741
-0.0005127
-0.00220837
-3.37854e-05
-0.00175292
0.000283391
-0.0011698
0.000438132
-0.000482819
0.000527787
0.00149217
-0.000972483
0.00171072
-0.000883684
0.00166848
-0.000814067
0.00165731
-0.000704396
0.00168139
-0.000539441
0.00171884
-0.000369606
0.00157706
0.00151295
0.00147437
0.0014495
0.00143514
0.00142967
0.00143505
0.00146187
0.0015586
0.00128801
0.00056629
0.000956055
0.000833443
0.000536843
0.0010376
0.00189897
-0.00104298
0.00835757
-0.00174541
0.003632
-0.00224406
0.00286648
-0.0026054
0.0021469
-0.00286249
0.00146465
-0.00298169
0.000679813
-0.00286712
-0.000313464
-0.00249313
-0.00140456
-0.00195577
-0.00231359
-0.00135856
-0.0028944
-0.000776995
-0.00311393
-0.000254848
-0.00300956
0.000190841
-0.00265406
0.000558477
-0.00212055
0.000883733
-0.00149505
0.00125143
-0.000850509
0.00208722
-0.000308007
0.00247059
-0.000374922
0.00211164
-0.000613529
0.00198142
-0.000753461
0.0018597
-0.000692348
0.00175084
-0.00059553
0.00168422
-0.000472821
0.00163549
-0.000320874
0.00177631
-0.000140971
0.00186541
-8.92462e-05
0.00193792
-7.26638e-05
0.00199493
-5.71602e-05
0.00202193
-2.71552e-05
0.001997
2.47875e-05
0.00189476
0.000102082
0.00168215
0.00021246
0.00130449
0.000377515
0.00114356
0.000727224
0.000829716
0.00114729
0.000357721
0.00150959
0.0022769
-0.000729408
0.00945257
-0.00126521
0.0041678
-0.00138908
0.00299036
-0.00148601
0.00224383
-0.00155344
0.00153208
-0.00153239
0.000658763
-0.00128001
-0.000565845
-0.000851175
-0.00183339
-0.000377871
-0.00278689
5.87297e-05
-0.003331
0.000419973
-0.00347517
0.000698728
-0.00328831
0.000913116
-0.00286844
0.00109418
-0.00230162
0.00127518
-0.00167605
0.00150482
-0.00108014
0.00182639
-0.000629576
0.0019385
-0.000487036
0.00185881
-0.00053383
0.00168634
-0.000580991
0.00153399
-0.000539995
0.00140537
-0.000466916
0.00131366
-0.000381101
0.00127455
-0.000281763
0.00132257
-0.000188991
0.00138101
-0.000147679
0.00144348
-0.000135138
0.00150621
-0.000119881
0.00155824
-7.91802e-05
0.00157891
4.11761e-06
0.00154683
0.000134164
0.00145065
0.000308643
0.00129174
0.000536431
0.00114342
0.000875543
0.000976531
0.00131418
0.000616581
0.00186955
0.000508846
0.00238463
-0.000993736
0.00150238
-0.00145761
0.000463672
-0.00140896
-0.000632019
0.0105
-0.00100194
0.00453773
-0.000610978
0.0025994
-0.000325773
0.00195862
-0.000120817
0.00132712
0.000179115
0.000358833
0.000641176
-0.0010279
0.00107843
-0.00227064
0.0013994
-0.00310786
0.00158472
-0.00351631
0.0016547
-0.00354515
0.00164328
-0.0032769
0.00158043
-0.00280559
0.00150348
-0.00222466
0.00144593
-0.00161851
0.00143351
-0.00106772
0.00146088
-0.000656943
0.00142855
-0.000454703
0.00130507
-0.000410342
0.00112882
-0.000404744
0.000969072
-0.000380244
0.000844182
-0.000342023
0.000761769
-0.000298686
0.000731965
-0.000251956
0.000756964
-0.000213986
0.000811725
-0.000202438
0.000882368
-0.000205778
0.000962966
-0.000200476
0.00104727
-0.000163483
0.00112342
-7.20239e-05
0.00117293
8.46545e-05
0.00119113
0.000290443
0.00118752
0.000540045
0.00120686
0.000856205
0.0012955
0.00122555
0.0014694
0.00169565
0.00190754
0.00194649
0.00216717
0.00124276
0.00177665
0.0008542
0.000426129
-0.000722587
0.0116826
-0.000612362
0.0044275
0.000456345
0.00153069
0.00111464
0.00130033
0.00165193
0.000789836
0.00227926
-0.000268495
0.00284468
-0.00159332
0.00316588
-0.00259184
0.00323495
-0.00317693
0.0030956
-0.00337696
0.00280927
-0.00325881
0.00243989
-0.00290752
0.00204108
-0.00240678
0.00166098
-0.00184455
0.00133359
-0.00129112
0.0010791
-0.00081322
0.000896392
-0.000474234
0.000741466
-0.000299775
0.000579675
-0.000248548
0.000418723
-0.000243789
0.000281979
-0.000243497
0.000180355
-0.000240396
0.000117624
-0.000235952
9.75007e-05
-0.00023183
0.000117543
-0.000234026
0.000164
-0.000248892
0.000226479
-0.000268254
0.000303212
-0.000277206
0.000398241
-0.000258509
0.000516451
-0.000190232
0.000645312
-4.4203e-05
0.000773629
0.000162129
0.0009122
0.000401477
0.00109952
0.000668888
0.00138191
0.00094316
0.00182582
0.00125174
0.00249559
0.00127673
0.00303929
0.00069906
0.00305801
0.000835487
0.00354699
0.00259433
0.00960212
0.00326613
0.00375571
0.0034172
0.00137962
0.0038463
0.000871235
0.00450853
0.000127612
0.00519966
-0.00095963
0.00549833
-0.00189198
0.00539817
-0.00249169
0.00497926
-0.00275802
0.00434243
-0.00274013
0.00358835
-0.00250474
0.00280426
-0.00212342
0.0020489
-0.00165142
0.00137742
-0.00117307
0.000819634
-0.000733329
0.000395855
-0.000389439
0.000108967
-0.000187343
-8.32584e-05
-0.000107547
-0.000229262
-0.000102541
-0.000350379
-0.000122669
-0.000448536
-0.000145337
-0.000522373
-0.000166557
-0.000571604
-0.000186717
-0.000596274
-0.000207158
-0.000599816
-0.000230481
-0.000590928
-0.000257777
-0.000575376
-0.000283803
-0.000552396
-0.000300183
-0.000513599
-0.000297302
-0.00043985
-0.000263978
-0.000300284
-0.000183767
-0.000111625
-2.6527e-05
0.00010807
0.000181786
0.000380817
0.000396145
0.000716691
0.000607289
0.0011563
0.00081213
0.00162961
0.000803424
0.00181896
0.000509719
0.00106877
0.00158568
0.0048754
0.0101661
0.0139146
0.0122132
0.003081
0.0112768
0.00180765
0.0105398
0.00086466
0.00967692
-9.67861e-05
0.00855642
-0.000771485
0.00728377
-0.00121903
0.00595254
-0.00142679
0.0046293
-0.00141689
0.00337566
-0.0012511
0.00224579
-0.000993553
0.0012464
-0.000652022
0.000420995
-0.000347671
-0.000195707
-0.000116625
-0.000588291
3.14758e-06
-0.000805297
2.96657e-05
-0.000930549
1.77082e-05
-0.00102283
-1.02537e-05
-0.00110373
-4.17684e-05
-0.0011767
-7.23706e-05
-0.00124219
-0.000101055
-0.00130104
-0.000127871
-0.00135484
-0.000153348
-0.00140763
-0.000177694
-0.00146648
-0.000198922
-0.00153862
-0.000211659
-0.00163125
-0.000207557
-0.00175325
-0.000175296
-0.00191605
-0.000101169
-0.00212707
2.72524e-05
-0.00237259
0.000219001
-0.00267958
0.000488779
-0.00313646
0.000853024
-0.00383762
0.00130846
-0.00484706
0.00182157
-0.00627872
0.00223509
-0.00800059
0.00223159
-0.00749064
0.00107574
-0.00232745
0.00511263
0.00459068
0.004136
0.00278428
0.00455971
0.000440936
0.0046118
-0.000148879
0.00421821
-0.000377892
0.00355207
-0.000552898
0.00271626
-0.000590978
0.00180161
-0.000502237
0.000884956
-0.000334445
1.60535e-05
-0.000124648
-0.000705748
6.97836e-05
-0.00119113
0.000137718
-0.00146218
0.000154422
-0.00159614
0.000137117
-0.00166935
0.000102876
-0.0017204
6.87642e-05
-0.00176794
3.72828e-05
-0.00181995
1.02484e-05
-0.00187926
-1.30589e-05
-0.00194547
-3.48428e-05
-0.00201839
-5.49441e-05
-0.00209879
-7.29429e-05
-0.00218805
-8.84375e-05
-0.00228824
-9.87232e-05
-0.00240044
-9.94613e-05
-0.00252343
-8.45663e-05
-0.00265255
-4.6171e-05
-0.00277899
2.52756e-05
-0.00289095
0.000139214
-0.00298639
0.000314449
-0.00307402
0.000576415
-0.00316128
0.000940283
-0.00324628
0.00139346
-0.00328245
0.00185774
-0.0032103
0.00216294
-0.00285016
0.00187146
-0.00157679
-0.000197628
-0.00382892
-0.000424854
0.0050716
0.000872064
0.00148736
0.000876781
0.000436216
0.000643308
8.45924e-05
0.000303272
-3.78542e-05
-0.000197494
-5.21288e-05
-0.000788532
6.30468e-08
-0.00135755
6.67812e-05
-0.00181755
0.000125558
-0.00211353
0.000171338
-0.00223919
0.000195445
-0.00228546
0.000183989
-0.00229041
0.000159384
-0.00228399
0.000130693
-0.00228463
0.000103525
-0.00229616
8.02903e-05
-0.00231845
5.95769e-05
-0.00234884
4.06456e-05
-0.00238573
2.38332e-05
-0.00242919
8.62433e-06
-0.00247904
-5.09599e-06
-0.0025352
-1.67827e-05
-0.00259735
-2.62854e-05
-0.00266364
-3.24294e-05
-0.00273001
-3.30862e-05
-0.00278948
-2.50924e-05
-0.0028313
-4.34953e-06
-0.00284322
3.71992e-05
-0.00281235
0.000108347
-0.00271545
0.000217552
-0.00251975
0.000380719
-0.00219812
0.000618662
-0.0017362
0.000931537
-0.00111089
0.00123244
-0.000141604
0.00119366
0.0011616
0.00056825
0.00157104
-0.000607064
-0.00217521
0.000214063
-0.010815
-0.00569943
-0.00418883
-0.00373798
-0.00364361
-0.00367484
-0.00372266
-0.00372005
-0.00365202
-0.00352627
-0.00335564
-0.00316169
-0.00297985
-0.00282316
-0.00269558
-0.00259551
-0.00251891
-0.00246322
-0.00242657
-0.00240679
-0.00240225
-0.0024114
-0.00243221
-0.00246246
-0.00249878
-0.00253567
-0.00256447
-0.00257242
-0.00253869
-0.00243369
-0.00221936
-0.00184174
-0.00122608
-0.000297475
0.000932045
0.00212269
0.00268774
0.00207725
)
;

boundaryField
{
    floor
    {
        type            calculated;
        value           nonuniform List<scalar> 
29
(
0
0
0
0
0
0
0
0
0
0
0
0
0
0
0
0
0
0
0
0
-4.03899e-06
-1.02484e-05
-1.54963e-05
-2.0197e-05
-1.6656e-06
-3.01096e-06
-8.75288e-06
-9.52955e-06
-8.44412e-06
)
;
    }
    ceiling
    {
        type            calculated;
        value           nonuniform List<scalar> 
43
(
-2.36537e-05
-4.37546e-05
-4.39959e-05
-2.32349e-05
-1.46376e-05
-9.77544e-06
-6.61235e-06
-4.30477e-06
-2.54377e-06
-1.25331e-06
-1.90156e-07
7.15248e-07
1.49702e-06
2.15774e-06
2.69464e-06
3.11861e-06
3.44982e-06
3.70239e-06
3.88347e-06
3.99968e-06
4.06125e-06
4.08016e-06
4.06542e-06
4.02537e-06
3.96742e-06
3.89422e-06
3.80766e-06
3.70899e-06
3.59865e-06
3.47548e-06
3.34839e-06
3.22414e-06
3.10779e-06
3.00637e-06
2.93298e-06
2.92039e-06
3.02052e-06
3.19655e-06
3.42973e-06
4.4472e-06
1.02539e-05
7.20407e-06
-5.60732e-05
)
;
    }
    sWall
    {
        type            calculated;
        value           uniform -0.000230327;
    }
    nWall
    {
        type            calculated;
        value           nonuniform List<scalar> 6(-4.88459e-05 -5.84444e-05 -6.28492e-05 -7.53162e-05 -8.26644e-05 -0.000102402);
    }
    sideWalls
    {
        type            empty;
        value           nonuniform 0();
    }
    glass1
    {
        type            calculated;
        value           nonuniform List<scalar> 9(-5.74363e-05 -0.000154737 -0.00023669 -0.00030642 -0.000365589 -0.000415444 -0.000459957 -0.000513868 -0.000574226);
    }
    glass2
    {
        type            calculated;
        value           nonuniform List<scalar> 2(-0.000259635 -0.000287794);
    }
    sun
    {
        type            calculated;
        value           uniform 0;
    }
    heatsource1
    {
        type            calculated;
        value           nonuniform List<scalar> 3(2.04225e-07 2.04164e-07 2.04181e-07);
    }
    heatsource2
    {
        type            calculated;
        value           nonuniform List<scalar> 4(5.11927e-08 5.12846e-08 0 0);
    }
    Table_master
    {
        type            calculated;
        value           nonuniform List<scalar> 9(-1.53162e-07 -1.5325e-07 -1.53282e-07 -1.53303e-07 -1.53319e-07 -1.53329e-07 -1.53335e-07 -1.5333e-07 -1.53301e-07);
    }
    Table_slave
    {
        type            calculated;
        value           nonuniform List<scalar> 9(1.5304e-07 1.53057e-07 1.53035e-07 1.53017e-07 1.53009e-07 1.53013e-07 1.53027e-07 1.5307e-07 1.53151e-07);
    }
    inlet
    {
        type            calculated;
        value           uniform -0.00662232;
    }
    outlet
    {
        type            calculated;
        value           nonuniform List<scalar> 2(3.992e-05 0.0110729);
    }
}


// ************************************************************************* //
