// -*- C++ -*-
// File generated by PyFoam - sorry for the ugliness

FoamFile
{
 version 2.0;
 format ascii;
 class volVectorField;
 location "600";
 object U;
}

dimensions [ 0 1 -1 0 0 0 0 ];

internalField nonuniform List<vector> 459
(
  (0.022347 0.0890296 0)
  (-0.174903 0.0281446 0)
  (-0.205121 0.0167689 0)
  (-0.235395 0.00817361 0)
  (-0.252407 -0.00105311 0)
  (-0.25401 -0.0108168 0)
  (-0.238666 -0.0211613 0)
  (-0.207851 -0.0310287 0)
  (-0.164949 -0.0384634 0)
  (-0.115692 -0.0422172 0)
  (-0.0665585 -0.0418906 0)
  (-0.0238758 -0.037224 0)
  (0.0157149 -0.0194839 0)
  (0.0269626 -0.00229744 0)
  (0.0151232 0.0220242 0)
  (-0.0202421 0.0136519 0)
  (-0.0421606 -0.0124527 0)
  (-0.0206941 -0.0255329 0)
  (0.00248883 -0.026423 0)
  (0.0259265 -0.0205841 0)
  (0.0444025 -0.0146626 0)
  (0.0572565 -0.00842772 0)
  (0.0647814 -0.00502116 0)
  (0.0684179 -0.00374083 0)
  (0.0702633 -0.00324923 0)
  (0.0715461 -0.00295236 0)
  (0.072562 -0.0027149 0)
  (0.0732568 -0.00245672 0)
  (0.0733929 -0.00199434 0)
  (0.0723101 -0.000898763 0)
  (0.0686551 0.00141062 0)
  (0.0607792 0.0045168 0)
  (0.0493341 0.0088565 0)
  (0.00443428 0.0243177 0)
  (0.19084 0.182554 0)
  (-0.15872 0.0761873 0)
  (-0.164467 0.0553645 0)
  (-0.195955 0.0374434 0)
  (-0.213448 0.0168987 0)
  (-0.215931 -0.00633741 0)
  (-0.201768 -0.0311514 0)
  (-0.1735 -0.0533671 0)
  (-0.135354 -0.0684672 0)
  (-0.0930766 -0.0743948 0)
  (-0.052161 -0.071202 0)
  (-0.0171501 -0.0594684 0)
  (0.0124153 -0.0357824 0)
  (0.0310334 -0.00934724 0)
  (0.0412848 0.0178934 0)
  (0.0483894 0.0232734 0)
  (0.0347588 0.0318871 0)
  (0.0386686 0.0440939 0)
  (0.00824924 -0.0165966 0)
  (0.0264203 -0.0363547 0)
  (0.0395322 -0.0366658 0)
  (0.0518749 -0.0304682 0)
  (0.0623804 -0.0220974 0)
  (0.0675983 -0.0101694 0)
  (0.0689251 -0.00294846 0)
  (0.0689521 -0.000183307 0)
  (0.0691108 0.00082164 0)
  (0.0694189 0.00132858 0)
  (0.0696486 0.00166742 0)
  (0.0697545 0.00208934 0)
  (0.0697124 0.00305467 0)
  (0.0689709 0.00544929 0)
  (0.0652093 0.0117723 0)
  (0.0556632 0.0184635 0)
  (0.0462203 0.0260458 0)
  (-0.0298122 0.0513025 0)
  (0.346174 0.27262 0)
  (-0.169194 0.119307 0)
  (-0.123462 0.0886213 0)
  (-0.154099 0.0580792 0)
  (-0.170256 0.0242107 0)
  (-0.171751 -0.0137535 0)
  (-0.156166 -0.0532628 0)
  (-0.128361 -0.0869151 0)
  (-0.0940126 -0.107549 0)
  (-0.0585449 -0.11335 0)
  (-0.0257936 -0.105469 0)
  (0.00167822 -0.0857391 0)
  (0.0234837 -0.05651 0)
  (0.0403101 -0.0247193 0)
  (0.0518018 0.00556634 0)
  (0.0558375 0.0275985 0)
  (0.0505272 0.0635865 0)
  (0.0994957 -0.00203688 0)
  (0.0737069 -0.0311876 0)
  (0.0713642 -0.0431845 0)
  (0.0736777 -0.043444 0)
  (0.0761953 -0.0376432 0)
  (0.0795331 -0.0312086 0)
  (0.0793809 -0.0237968 0)
  (0.0713371 -0.0157169 0)
  (0.0650987 -0.0113546 0)
  (0.0622442 -0.00892082 0)
  (0.0608873 -0.00738019 0)
  (0.0598922 -0.00635299 0)
  (0.0591316 -0.00556999 0)
  (0.059102 -0.00453822 0)
  (0.0611852 -0.00103499 0)
  (0.0594231 0.0162001 0)
  (0.0478281 0.0297362 0)
  (0.0464653 0.0423761 0)
  (-0.0628061 0.077958 0)
  (0.488303 0.344779 0)
  (-0.198066 0.156465 0)
  (-0.0805373 0.117508 0)
  (-0.109276 0.0766689 0)
  (-0.12106 0.0316988 0)
  (-0.116991 -0.0208086 0)
  (-0.0966298 -0.0754845 0)
  (-0.068959 -0.11865 0)
  (-0.040134 -0.141857 0)
  (-0.0136189 -0.145671 0)
  (0.00981396 -0.132314 0)
  (0.0276458 -0.107339 0)
  (0.0424676 -0.0746275 0)
  (0.0554707 -0.0394006 0)
  (0.0680499 -0.00583476 0)
  (0.081426 0.0240167 0)
  (0.100065 0.0579101 0)
  (0.130614 0.0535265 0)
  (0.126387 0.00206431 0)
  (0.11217 -0.0249956 0)
  (0.101355 -0.0362184 0)
  (0.0925722 -0.0380567 0)
  (0.0847812 -0.0341105 0)
  (0.0778587 -0.0265331 0)
  (0.0763716 -0.0152676 0)
  (0.0822169 -0.00967865 0)
  (0.0862667 -0.00661349 0)
  (0.0871912 -0.00469564 0)
  (0.0861182 -0.0030825 0)
  (0.0835833 -0.00143694 0)
  (0.0790549 0.000539234 0)
  (0.0713507 0.00329031 0)
  (0.0577256 0.00745659 0)
  (0.0457942 0.0263382 0)
  (0.035459 0.0433322 0)
  (0.048526 0.0595391 0)
  (-0.0952031 0.100193 0)
  (0.613513 0.400008 0)
  (-0.236852 0.185493 0)
  (-0.0382694 0.134653 0)
  (-0.0623543 0.0876383 0)
  (-0.066465 0.034445 0)
  (-0.047388 -0.0326339 0)
  (-0.0207373 -0.0996515 0)
  (0.00422761 -0.146469 0)
  (0.0238862 -0.16656 0)
  (0.0384042 -0.165301 0)
  (0.0488433 -0.148163 0)
  (0.0561539 -0.119986 0)
  (0.0618251 -0.0854893 0)
  (0.0673682 -0.0497422 0)
  (0.07448 -0.0170295 0)
  (0.0845315 0.00937009 0)
  (0.0993585 0.02386 0)
  (0.110408 0.00537236 0)
  (0.109216 -0.0142016 0)
  (0.10161 -0.0242405 0)
  (0.0913064 -0.0284182 0)
  (0.0807121 -0.028621 0)
  (0.0709501 -0.0253396 0)
  (0.0629546 -0.0187419 0)
  (0.058923 -0.0083817 0)
  (0.058714 -0.00240718 0)
  (0.058816 0.000215297 0)
  (0.0582424 0.00173862 0)
  (0.0575245 0.00333685 0)
  (0.0565852 0.0055617 0)
  (0.054923 0.00886015 0)
  (0.0519579 0.0137457 0)
  (0.0468666 0.0210085 0)
  (0.0411531 0.0350717 0)
  (0.0333343 0.0526058 0)
  (0.0567076 0.073878 0)
  (-0.0188615 0.109692 0)
  (0.0464308 0.0362253 0)
  (-0.0590963 -0.0329856 0)
  (-0.263451 -0.0548032 0)
  (0.70776 0.444931 0)
  (-0.27722 0.203472 0)
  (-0.00462974 0.131496 0)
  (-0.0129004 0.0880961 0)
  (-0.00285601 0.0252882 0)
  (0.0413304 -0.0605033 0)
  (0.0680452 -0.124915 0)
  (0.0844232 -0.163503 0)
  (0.0917627 -0.177549 0)
  (0.0922755 -0.1715 0)
  (0.0881948 -0.150724 0)
  (0.0818027 -0.120567 0)
  (0.0751349 -0.0857587 0)
  (0.0700318 -0.0512321 0)
  (0.0679768 -0.0212248 0)
  (0.0699531 0.000945589 0)
  (0.0758813 0.0116333 0)
  (0.0799448 0.00557505 0)
  (0.0781193 -0.00425767 0)
  (0.0712114 -0.0122966 0)
  (0.0618952 -0.0169481 0)
  (0.0522442 -0.0181712 0)
  (0.0433078 -0.016335 0)
  (0.0359644 -0.0118947 0)
  (0.0313712 -0.00580359 0)
  (0.0296105 -0.00198835 0)
  (0.0292286 -0.000314263 0)
  (0.0296386 0.000680647 0)
  (0.0306702 0.00204756 0)
  (0.0321566 0.00446559 0)
  (0.0337706 0.00847362 0)
  (0.0352873 0.0145258 0)
  (0.0365464 0.0231526 0)
  (0.0385084 0.0358894 0)
  (0.0392045 0.0525363 0)
  (0.0639988 0.075483 0)
  (0.0466177 0.0982758 0)
  (0.0892713 0.0674572 0)
  (0.112095 0.0435394 0)
  (-0.125267 -0.00622438 0)
  (0.770754 0.485367 0)
  (-0.297777 0.185954 0)
  (0.0301467 0.0760374 0)
  (0.0579123 0.0481775 0)
  (0.10519 -0.0195149 0)
  (0.144553 -0.0933522 0)
  (0.164752 -0.144663 0)
  (0.168481 -0.170599 0)
  (0.159312 -0.174613 0)
  (0.141449 -0.161638 0)
  (0.119052 -0.137174 0)
  (0.095902 -0.106311 0)
  (0.0746363 -0.0728681 0)
  (0.0574322 -0.0412437 0)
  (0.0455065 -0.0152396 0)
  (0.0389638 0.00257188 0)
  (0.0386309 0.0102605 0)
  (0.0389541 0.0075164 0)
  (0.0364926 0.000854727 0)
  (0.0315607 -0.00522554 0)
  (0.0245111 -0.00888757 0)
  (0.0168685 -0.0100137 0)
  (0.00963531 -0.00897991 0)
  (0.00370742 -0.00633824 0)
  (-1.15915e-05 -0.00308654 0)
  (-0.0013898 -0.00120121 0)
  (-0.00123372 -0.000729594 0)
  (9.52147e-06 -0.000742504 0)
  (0.00243512 -0.000300359 0)
  (0.0061369 0.00147897 0)
  (0.010807 0.00519046 0)
  (0.0162867 0.0108883 0)
  (0.0227032 0.0188241 0)
  (0.0311148 0.0295512 0)
  (0.0401949 0.0427471 0)
  (0.0639068 0.0610727 0)
  (0.078559 0.0718893 0)
  (0.112453 0.0498703 0)
  (0.152006 0.0412423 0)
  (-0.0340707 0.0876887 0)
  (0.878774 0.481697 0)
  (-0.0477233 0.162215 0)
  (0.120816 -0.0103016 0)
  (0.209378 -0.067831 0)
  (0.257946 -0.103534 0)
  (0.275121 -0.134685 0)
  (0.270677 -0.154514 0)
  (0.248302 -0.159439 0)
  (0.212926 -0.150632 0)
  (0.170514 -0.130969 0)
  (0.126539 -0.10459 0)
  (0.0856764 -0.075529 0)
  (0.0502692 -0.0460978 0)
  (0.0232546 -0.0201284 0)
  (0.00485444 -0.00109663 0)
  (-0.00356683 0.0089795 0)
  (-0.00471929 0.0116118 0)
  (-0.00494409 0.00891814 0)
  (-0.00676071 0.00407342 0)
  (-0.0102166 -0.000211186 0)
  (-0.0149889 -0.00279862 0)
  (-0.0204569 -0.0037231 0)
  (-0.0255861 -0.00340344 0)
  (-0.0296446 -0.00235963 0)
  (-0.0320943 -0.00132548 0)
  (-0.0329896 -0.0011457 0)
  (-0.0328397 -0.00186887 0)
  (-0.0319738 -0.0030425 0)
  (-0.0303768 -0.00408632 0)
  (-0.0277616 -0.00434385 0)
  (-0.0232634 -0.00314202 0)
  (-0.015981 -0.000107866 0)
  (-0.00805846 0.00449078 0)
  (0.00299394 0.0103996 0)
  (0.0155245 0.0162252 0)
  (0.0364239 0.0234638 0)
  (0.0569009 0.0198597 0)
  (0.0766474 -0.00158701 0)
  (0.13298 0.047606 0)
  (-0.422311 0.196557 0)
  (1.0295 0.427767 0)
  (0.494787 0.282146 0)
  (0.505335 0.174202 0)
  (0.52741 0.0808073 0)
  (0.488737 0.00607714 0)
  (0.425211 -0.0507721 0)
  (0.3573 -0.084566 0)
  (0.286789 -0.0963881 0)
  (0.215524 -0.0914849 0)
  (0.147146 -0.0752441 0)
  (0.0854382 -0.0533108 0)
  (0.0337929 -0.0300777 0)
  (-0.00926433 -0.00775811 0)
  (-0.0333912 0.00499004 0)
  (-0.0437339 0.0104825 0)
  (-0.0468325 0.0123791 0)
  (-0.0468647 0.0119382 0)
  (-0.0466285 0.00963681 0)
  (-0.0475681 0.00646304 0)
  (-0.0498837 0.00358385 0)
  (-0.0530775 0.00161973 0)
  (-0.0565223 0.00052786 0)
  (-0.0598078 2.21124e-05 0)
  (-0.0624982 -0.000256278 0)
  (-0.0644064 -0.000695773 0)
  (-0.0657697 -0.0015841 0)
  (-0.0671597 -0.00281498 0)
  (-0.0691671 -0.00401738 0)
  (-0.0721853 -0.00471002 0)
  (-0.076702 -0.00420977 0)
  (-0.0830869 -0.00178021 0)
  (-0.0913004 0.00308826 0)
  (-0.100984 0.0106053 0)
  (-0.114734 0.021113 0)
  (-0.135255 0.034819 0)
  (-0.164525 0.0511332 0)
  (-0.206936 0.0670474 0)
  (-0.261014 0.0797055 0)
  (-0.33449 0.0866529 0)
  (-0.588851 0.0801244 0)
  (-0.0985238 0.0524435 0)
  (0.108266 -0.00616037 0)
  (0.178265 -0.0644164 0)
  (0.157505 -0.0716941 0)
  (0.126455 -0.0614167 0)
  (0.0877199 -0.0466165 0)
  (0.0440119 -0.0297776 0)
  (-0.00382745 -0.0103931 0)
  (-0.0440353 0.00423684 0)
  (-0.0686765 0.0119504 0)
  (-0.0811106 0.01499 0)
  (-0.0856655 0.0151862 0)
  (-0.0866343 0.0147625 0)
  (-0.0857988 0.0142606 0)
  (-0.0843883 0.0135125 0)
  (-0.083431 0.0123844 0)
  (-0.0835357 0.0111179 0)
  (-0.0847323 0.0101594 0)
  (-0.0866561 0.00979993 0)
  (-0.088856 0.0100287 0)
  (-0.0909993 0.010641 0)
  (-0.0929121 0.0113712 0)
  (-0.0946297 0.0119761 0)
  (-0.096366 0.0122845 0)
  (-0.0983552 0.0122619 0)
  (-0.100747 0.0120125 0)
  (-0.103679 0.0118599 0)
  (-0.107011 0.0122606 0)
  (-0.110473 0.0139017 0)
  (-0.113936 0.0177897 0)
  (-0.11713 0.0249787 0)
  (-0.119927 0.0362717 0)
  (-0.122133 0.0516432 0)
  (-0.123099 0.069268 0)
  (-0.120604 0.0827137 0)
  (-0.105712 0.0770376 0)
  (-0.0755799 0.0225869 0)
  (-0.180941 -0.176224 0)
  (0.0462314 0.200374 0)
  (0.0478928 0.0497348 0)
  (0.0161454 -0.0189839 0)
  (-0.0249367 -0.0246798 0)
  (-0.0601108 -0.0148332 0)
  (-0.0908112 -0.00739126 0)
  (-0.113612 -0.00160848 0)
  (-0.126434 0.00175285 0)
  (-0.130814 0.00166725 0)
  (-0.131107 -0.000278303 0)
  (-0.128598 -0.00266058 0)
  (-0.124848 -0.00538137 0)
  (-0.120889 -0.00798042 0)
  (-0.117054 -0.0103904 0)
  (-0.11359 -0.0129694 0)
  (-0.110808 -0.0160998 0)
  (-0.108932 -0.0198667 0)
  (-0.107961 -0.0240619 0)
  (-0.107693 -0.0283601 0)
  (-0.107862 -0.0324772 0)
  (-0.108258 -0.0362253 0)
  (-0.108771 -0.0394828 0)
  (-0.109387 -0.0421187 0)
  (-0.110136 -0.0439097 0)
  (-0.111011 -0.044492 0)
  (-0.111914 -0.0434348 0)
  (-0.112623 -0.040357 0)
  (-0.112778 -0.0350096 0)
  (-0.111849 -0.0272716 0)
  (-0.109041 -0.0170769 0)
  (-0.10327 -0.0042425 0)
  (-0.0933285 0.0114595 0)
  (-0.0780944 0.0294636 0)
  (-0.057001 0.0465344 0)
  (-0.0322415 0.0556256 0)
  (0.028428 0.0271503 0)
  (0.145718 -0.0393526 0)
  (-0.0438366 -0.0768409 0)
  (-0.0708341 -0.333345 0)
  (-0.426044 -0.123241 0)
  (-0.302799 0.0776162 0)
  (-0.263449 -0.00105284 0)
  (-0.226626 0.00285005 0)
  (-0.221809 0.0169787 0)
  (-0.22116 0.0266096 0)
  (-0.217771 0.0346071 0)
  (-0.211123 0.0423161 0)
  (-0.201453 0.049352 0)
  (-0.190334 0.0551286 0)
  (-0.179378 0.0600235 0)
  (-0.169346 0.0644964 0)
  (-0.160521 0.0688534 0)
  (-0.152729 0.073435 0)
  (-0.145609 0.0784833 0)
  (-0.138939 0.0841662 0)
  (-0.132697 0.0905433 0)
  (-0.126971 0.0974955 0)
  (-0.121825 0.104713 0)
  (-0.117255 0.111784 0)
  (-0.113198 0.118334 0)
  (-0.109569 0.124098 0)
  (-0.106298 0.1289 0)
  (-0.103349 0.132555 0)
  (-0.100714 0.134791 0)
  (-0.0983787 0.135248 0)
  (-0.096272 0.133593 0)
  (-0.0942021 0.129689 0)
  (-0.0917688 0.123766 0)
  (-0.0881993 0.116493 0)
  (-0.0821338 0.108928 0)
  (-0.0716744 0.102418 0)
  (-0.0552192 0.0984402 0)
  (-0.0327697 0.0981171 0)
  (-0.00168333 0.100294 0)
  (0.0299598 0.0982303 0)
  (0.0706902 0.0814225 0)
  (0.141369 0.0463027 0)
  (-0.503879 0.126453 0)
)
;

boundaryField
{
  floor
  {
    type noSlip;
  }
  ceiling
  {
    type noSlip;
  }
  sWall
  {
    type noSlip;
  }
  nWall
  {
    type noSlip;
  }
  sideWalls
  {
    type empty;
  }
  glass1
  {
    type noSlip;
  }
  glass2
  {
    type noSlip;
  }
  sun
  {
    type noSlip;
  }
  heatsource1
  {
    type noSlip;
  }
  heatsource2
  {
    type noSlip;
  }
  Table_master
  {
    type noSlip;
  }
  Table_slave
  {
    type noSlip;
  }
  inlet
  {
    type fixedValue;
    value uniform (0.3 0 0);
  }
  outlet
  {
    type zeroGradient;
  }
} 	// ************************************************************************* //

