// -*- C++ -*-
// File generated by PyFoam - sorry for the ugliness

FoamFile
{
 version 2.0;
 format ascii;
 class volScalarField;
 location "700";
 object T;
}

dimensions [ 0 0 0 1 0 0 0 ];

internalField nonuniform List<scalar> 459
(
  303.351
  303.097
  303.074
  303.063
  303.053
  303.042
  303.032
  303.03
  303.048
  303.102
  303.135
  303.162
  303.184
  303.207
  303.238
  304.123
  304.071
  304.031
  303.993
  303.981
  303.992
  304.044
  304.097
  304.136
  304.149
  304.135
  304.098
  304.049
  304.007
  303.987
  303.987
  304.009
  303.989
  303.931
  303.499
  303.126
  303.085
  303.069
  303.055
  303.034
  303.006
  302.992
  303.019
  303.082
  303.133
  303.171
  303.196
  303.217
  303.238
  303.256
  303.288
  304.13
  304.061
  303.97
  303.896
  303.883
  303.9
  303.943
  304.003
  304.065
  304.114
  304.142
  304.151
  304.151
  304.147
  304.143
  304.138
  304.113
  304.081
  304.067
  303.662
  303.174
  303.12
  303.109
  303.096
  303.06
  302.996
  302.959
  302.994
  303.072
  303.145
  303.198
  303.229
  303.247
  303.259
  303.273
  303.293
  304.114
  304.024
  303.875
  303.807
  303.803
  303.829
  303.874
  303.939
  304.014
  304.085
  304.138
  304.174
  304.198
  304.216
  304.224
  304.215
  304.19
  304.173
  304.19
  303.832
  303.244
  303.177
  303.18
  303.179
  303.113
  302.992
  302.929
  302.969
  303.068
  303.17
  303.244
  303.283
  303.298
  303.302
  303.304
  303.309
  303.334
  303.533
  303.568
  303.604
  303.656
  303.723
  303.791
  303.846
  303.894
  303.938
  303.981
  304.022
  304.063
  304.102
  304.139
  304.174
  304.208
  304.219
  304.219
  304.228
  304.004
  303.334
  303.255
  303.274
  303.291
  303.164
  302.98
  302.901
  302.948
  303.075
  303.214
  303.315
  303.365
  303.378
  303.373
  303.363
  303.36
  303.379
  303.441
  303.498
  303.578
  303.676
  303.779
  303.874
  303.958
  304.028
  304.09
  304.145
  304.191
  304.231
  304.264
  304.288
  304.303
  304.304
  304.296
  304.282
  304.271
  304.292
  304.317
  304.378
  304.169
  303.452
  303.366
  303.394
  303.379
  303.173
  302.953
  302.863
  302.933
  303.104
  303.289
  303.422
  303.485
  303.497
  303.48
  303.461
  303.455
  303.481
  303.544
  303.633
  303.738
  303.853
  303.963
  304.06
  304.143
  304.213
  304.27
  304.316
  304.354
  304.385
  304.409
  304.424
  304.429
  304.419
  304.4
  304.377
  304.361
  304.367
  304.373
  304.398
  304.339
  303.627
  303.555
  303.592
  303.429
  303.115
  302.859
  302.799
  302.931
  303.172
  303.415
  303.58
  303.654
  303.657
  303.63
  303.61
  303.616
  303.667
  303.758
  303.873
  303.992
  304.107
  304.209
  304.295
  304.365
  304.416
  304.455
  304.487
  304.513
  304.534
  304.549
  304.557
  304.555
  304.542
  304.519
  304.494
  304.474
  304.464
  304.444
  304.433
  304.56
  304.036
  303.938
  303.782
  303.344
  302.89
  302.657
  302.717
  302.978
  303.323
  303.626
  303.807
  303.866
  303.853
  303.831
  303.827
  303.858
  303.937
  304.048
  304.173
  304.293
  304.394
  304.478
  304.538
  304.579
  304.609
  304.631
  304.649
  304.664
  304.676
  304.685
  304.689
  304.684
  304.667
  304.64
  304.613
  304.591
  304.57
  304.549
  304.559
  304.885
  304.624
  304.396
  303.638
  302.719
  302.266
  302.319
  302.713
  303.191
  303.648
  303.963
  304.075
  304.096
  304.092
  304.094
  304.117
  304.173
  304.264
  304.374
  304.484
  304.581
  304.657
  304.711
  304.748
  304.771
  304.787
  304.798
  304.806
  304.812
  304.817
  304.82
  304.822
  304.823
  304.826
  304.839
  304.871
  304.925
  304.996
  305.083
  305.226
  295.639
  296.581
  298.836
  300.806
  302.245
  303.34
  303.907
  304.172
  304.294
  304.34
  304.36
  304.377
  304.404
  304.449
  304.516
  304.6
  304.689
  304.771
  304.838
  304.888
  304.921
  304.941
  304.953
  304.959
  304.962
  304.962
  304.96
  304.956
  304.951
  304.944
  304.937
  304.935
  304.944
  304.969
  305.015
  305.08
  305.219
  305.376
  296.367
  298.852
  301.269
  302.916
  303.761
  304.216
  304.433
  304.535
  304.591
  304.626
  304.656
  304.689
  304.73
  304.78
  304.84
  304.904
  304.966
  305.019
  305.059
  305.087
  305.105
  305.115
  305.118
  305.118
  305.115
  305.109
  305.1
  305.09
  305.077
  305.063
  305.05
  305.039
  305.035
  305.042
  305.08
  305.147
  305.268
  305.369
  301.216
  301.131
  301.115
  303.334
  304.167
  304.499
  304.675
  304.785
  304.855
  304.905
  304.945
  304.98
  305.014
  305.049
  305.084
  305.121
  305.158
  305.193
  305.223
  305.246
  305.263
  305.272
  305.277
  305.276
  305.273
  305.267
  305.259
  305.249
  305.238
  305.225
  305.21
  305.196
  305.181
  305.168
  305.16
  305.165
  305.214
  305.308
  305.45
  305.712
)
;

boundaryField
{
  floor
  {
    type wallHeatTransfer;
    Tinf uniform 305.2;
    alphaWall uniform 0.24;
    value nonuniform List<scalar> 29
(
  303.44
  304.324
  304.263
  304.214
  304.169
  304.152
  304.162
  304.225
  304.291
  304.35
  304.387
  304.407
  304.41
  304.398
  304.372
  304.341
  304.315
  304.291
  304.262
  304.241
  304.241
  304.31
  304.382
  304.405
  303.44
  304.324
  304.331
  304.313
  303.511
)
;
  }
  ceiling
  {
    type wallHeatTransfer;
    Tinf uniform 303.2;
    alphaWall uniform 0.24;
    value nonuniform List<scalar> 43
(
  301.359
  301.272
  301.252
  303.326
  304.105
  304.412
  304.571
  304.666
  304.724
  304.764
  304.798
  304.829
  304.86
  304.892
  304.924
  304.958
  304.992
  305.023
  305.049
  305.068
  305.081
  305.087
  305.089
  305.087
  305.082
  305.074
  305.065
  305.054
  305.041
  305.026
  305.011
  304.995
  304.979
  304.966
  304.957
  304.958
  304.998
  305.078
  305.209
  305.456
  304.808
  304.566
  296.835
)
;
  }
  sWall
  {
    type wallHeatTransfer;
    Tinf uniform 315.2;
    alphaWall uniform 0.36;
    value uniform 302.67;
  }
  nWall
  {
    type wallHeatTransfer;
    Tinf uniform 307.2;
    alphaWall uniform 0.36;
    value nonuniform List<scalar> 6
(
  305.003
  304.891
  304.85
  305.629
  305.605
  305.929
)
;
  }
  sideWalls
  {
    type empty;
  }
  glass1
  {
    type wallHeatTransfer;
    Tinf uniform 315.2;
    alphaWall uniform 4.3;
    value nonuniform List<scalar> 9
(
  310.981
  310.456
  310.121
  309.866
  309.653
  309.464
  309.361
  309.455
  309.698
)
;
  }
  glass2
  {
    type wallHeatTransfer;
    Tinf uniform 307.2;
    alphaWall uniform 4.3;
    value nonuniform List<scalar> 2
(
  306.346
  306.542
)
;
  }
  sun
  {
    type wallHeatTransfer;
    Tinf uniform 305.2;
    alphaWall uniform 0.24;
    value nonuniform List<scalar> 14
(
  303.517
  303.271
  303.244
  303.226
  303.209
  303.192
  303.179
  303.175
  303.193
  303.251
  303.29
  303.325
  303.358
  303.393
)
;
  }
  heatsource1
  {
    type fixedGradient;
    gradient uniform 0;
  }
  heatsource2
  {
    type fixedGradient;
    gradient uniform 0;
  }
  Table_master
  {
    type zeroGradient;
  }
  Table_slave
  {
    type zeroGradient;
  }
  inlet
  {
    type fixedValue;
    value uniform 293.15;
  }
  outlet
  {
    type zeroGradient;
  }
} 	// ************************************************************************* //

