/*--------------------------------*- C++ -*----------------------------------*\
  =========                 |
  \\      /  F ield         | OpenFOAM: The Open Source CFD Toolbox
   \\    /   O peration     | Website:  https://openfoam.org
    \\  /    A nd           | Version:  6
     \\/     M anipulation  |
\*---------------------------------------------------------------------------*/
FoamFile
{
    version     2.0;
    format      ascii;
    class       volScalarField;
    location    "1500";
    object      nut;
}
// * * * * * * * * * * * * * * * * * * * * * * * * * * * * * * * * * * * * * //

dimensions      [0 2 -1 0 0 0 0];

internalField   nonuniform List<scalar> 
459
(
0.00106464
0.00116052
0.00118244
0.00123881
0.00129103
0.00134027
0.0013892
0.00143592
0.00146871
0.00148128
0.00146761
0.00142347
0.00134687
0.00124009
0.00111495
0.000460569
0.000548546
0.000619348
0.0006253
0.000606849
0.000580644
0.000544369
0.000507464
0.000473952
0.000444328
0.00041821
0.00039511
0.000374599
0.000356302
0.000339552
0.00032352
0.000307114
0.000297671
0.000273364
0.00144976
0.0034303
0.00324422
0.00376206
0.00426991
0.00477957
0.00522313
0.00556889
0.00589054
0.00615834
0.00633554
0.00638444
0.00625958
0.00585288
0.00470815
0.00113466
0.000703617
0.000480109
0.00100814
0.00140982
0.00171276
0.0018913
0.00189867
0.00149923
0.00128586
0.00113435
0.00101872
0.000927369
0.000853381
0.000791142
0.000733458
0.000677839
0.000628478
0.000584956
0.000701404
0.000366008
0.00177058
0.00465414
0.00395495
0.0049218
0.0053666
0.00569171
0.00594732
0.00617357
0.00643585
0.00671935
0.00699098
0.00720056
0.00730281
0.00722219
0.00673661
0.00516995
0.00116823
0.000900016
0.00130813
0.00170033
0.00208113
0.00236377
0.00233591
0.00077607
0.000685851
0.000612615
0.000553195
0.000504648
0.000464623
0.000431372
0.000403759
0.000381252
0.000410115
0.000470695
0.000795192
0.000429435
0.00207926
0.00595802
0.00390537
0.00513734
0.00547097
0.0055542
0.00562674
0.00575882
0.00598065
0.00627593
0.006614
0.00692372
0.00715636
0.00724679
0.00714449
0.0065865
0.00442139
0.00136612
0.0016304
0.00207059
0.00255254
0.00298138
0.00327617
0.003123
0.000879299
0.000803067
0.000748466
0.000706947
0.000671741
0.00063906
0.000607664
0.000574634
0.000536292
0.000503808
0.000509005
0.000931571
0.000479526
0.00239427
0.00766086
0.00422493
0.00490032
0.00535624
0.00531043
0.00527306
0.00537666
0.0055851
0.00588638
0.00625945
0.00659982
0.00683797
0.00693005
0.00687676
0.00665263
0.00608441
0.00514673
0.00481703
0.00475082
0.00478199
0.00482328
0.00481846
0.0046604
0.00396507
0.00362138
0.00342103
0.00326712
0.00310576
0.00287599
0.00255817
0.00216657
0.00172928
0.00129538
0.000960516
0.00094584
0.000656194
0.000595938
0.000717443
0.000805838
0.00272897
0.00952989
0.00581826
0.00474455
0.005185
0.00533009
0.00519809
0.00529427
0.00546649
0.00574514
0.00610738
0.00646176
0.00669825
0.00675101
0.00663473
0.00643219
0.0062349
0.00609961
0.00609014
0.00609979
0.00605908
0.00595983
0.00580623
0.00558712
0.0052612
0.00496706
0.00470492
0.00445257
0.00419588
0.00392227
0.00358143
0.00315847
0.00265335
0.00209505
0.0015946
0.00116913
0.000912259
0.000782118
0.00110741
0.000842818
0.00304335
0.0108813
0.00835126
0.00603646
0.00563378
0.0056665
0.00552966
0.00545232
0.00553472
0.00579865
0.00617979
0.00655145
0.00677635
0.00677899
0.00659385
0.00637098
0.00630748
0.00646343
0.00665951
0.00671521
0.0066054
0.00637901
0.0060782
0.00572864
0.005354
0.00500324
0.0046819
0.0043832
0.00410719
0.00385988
0.00364337
0.00338298
0.00301337
0.00255014
0.00209961
0.00167216
0.00137472
0.00126569
0.0012526
0.000954775
0.00311146
0.00987765
0.00856924
0.00759267
0.00699638
0.00633713
0.005783
0.00554954
0.00565262
0.00600795
0.00646785
0.00685852
0.00702827
0.00692677
0.00664768
0.00642698
0.00649453
0.00676409
0.0068716
0.00673041
0.00641264
0.00598751
0.00551138
0.00503762
0.00461194
0.00425398
0.00395489
0.00370626
0.00350875
0.0033674
0.0032872
0.00325417
0.00313819
0.00286431
0.00261883
0.00249377
0.00256767
0.00283658
0.00352929
0.00145263
0.00303671
0.00362616
0.00409535
0.00424312
0.00425588
0.00435408
0.00463807
0.00513519
0.00580125
0.00650474
0.00707954
0.00738165
0.00731518
0.00694563
0.00654655
0.00645768
0.00650182
0.00648542
0.00628056
0.00589329
0.00538385
0.00482809
0.00429811
0.00384711
0.00349186
0.00321821
0.00300341
0.00283111
0.00269051
0.00257226
0.0024675
0.00236967
0.00229419
0.00223922
0.0022174
0.00222419
0.00220937
0.00212743
0.00198631
0.00135037
0.00182861
0.00325973
0.00451197
0.00555518
0.00640469
0.00716936
0.00776718
0.00806967
0.00803374
0.00767801
0.00705278
0.00634213
0.00590093
0.00572924
0.00555138
0.00523963
0.00479714
0.00428361
0.00376979
0.00331076
0.0029409
0.00266716
0.00247133
0.00233155
0.0022317
0.00216191
0.00211631
0.00209156
0.00208772
0.00210835
0.00213997
0.00217981
0.00222364
0.002255
0.00224612
0.00218089
0.00192947
0.0010785
0.00212894
0.00456018
0.00624828
0.0070443
0.00758154
0.00795592
0.00793305
0.00743487
0.00666777
0.00584389
0.00514974
0.00464588
0.00430938
0.00401331
0.00366362
0.00327158
0.00288247
0.00254107
0.00227388
0.00208343
0.00195545
0.00187005
0.00181499
0.00178646
0.00178104
0.00179513
0.00182559
0.00186858
0.0019284
0.0020024
0.0020882
0.00218046
0.00226613
0.00232468
0.00234179
0.00231693
0.00166778
0.00110288
0.00183116
0.00192825
0.00200008
0.00206943
0.00187699
0.00172443
0.00165146
0.0015771
0.00146884
0.00133537
0.00118315
0.00103226
0.000898863
0.000793152
0.000716693
0.000662708
0.000623728
0.000595402
0.000575958
0.000564645
0.000560621
0.000562828
0.000570304
0.000582419
0.000598988
0.000619467
0.000643726
0.000672046
0.000704967
0.000743483
0.000787144
0.000835981
0.000890418
0.000950781
0.00101657
0.00108696
0.00110135
0.000984201
0.000933987
0.00110514
)
;

boundaryField
{
    floor
    {
        type            nutkWallFunction;
        Cmu             0.09;
        kappa           0.41;
        E               9.8;
        value           nonuniform List<scalar> 
29
(
0.000134164
5.46448e-05
6.58796e-05
7.4759e-05
7.54996e-05
7.32008e-05
6.99213e-05
6.53514e-05
6.06635e-05
5.63699e-05
5.25429e-05
4.91421e-05
4.61117e-05
4.3402e-05
4.09688e-05
3.87271e-05
3.6568e-05
3.43439e-05
3.30567e-05
2.97178e-05
2.97177e-05
4.2261e-05
5.06061e-05
5.70859e-05
0.000134164
5.46448e-05
5.71613e-05
0.000108888
0.00016301
)
;
    }
    ceiling
    {
        type            nutkWallFunction;
        Cmu             0.09;
        kappa           0.41;
        E               9.8;
        value           nonuniform List<scalar> 
43
(
0.000214801
0.000225437
0.000233269
0.000240894
0.000219943
0.000203151
0.000195063
0.000186776
0.000174629
0.000159513
0.000142063
0.000124513
0.000108751
9.60678e-05
8.67706e-05
8.01353e-05
7.53042e-05
7.17706e-05
6.93333e-05
6.79105e-05
6.74037e-05
6.76817e-05
6.86226e-05
7.01441e-05
7.22189e-05
7.47738e-05
7.7787e-05
8.12874e-05
8.53345e-05
9.00408e-05
9.53412e-05
0.000101229
0.000107745
0.000114917
0.000122673
0.000130909
0.000132585
0.000118864
0.000112927
0.000133028
0.000343951
0.000404879
0.000247139
)
;
    }
    sWall
    {
        type            nutkWallFunction;
        Cmu             0.09;
        kappa           0.41;
        E               9.8;
        value           uniform 0.000214861;
    }
    nWall
    {
        type            nutkWallFunction;
        Cmu             0.09;
        kappa           0.41;
        E               9.8;
        value           nonuniform List<scalar> 6(9.76006e-05 0.000102052 0.000115393 0.000129931 0.000132772 0.000133036);
    }
    sideWalls
    {
        type            empty;
    }
    glass1
    {
        type            nutkWallFunction;
        Cmu             0.09;
        kappa           0.41;
        E               9.8;
        value           nonuniform List<scalar> 9(0.000128402 0.000172697 0.000208576 0.000242427 0.000276419 0.000312021 0.000345047 0.000352163 0.000344379);
    }
    glass2
    {
        type            nutkWallFunction;
        Cmu             0.09;
        kappa           0.41;
        E               9.8;
        value           nonuniform List<scalar> 2(0.000172878 0.000161287);
    }
    sun
    {
        type            nutkWallFunction;
        Cmu             0.09;
        kappa           0.41;
        E               9.8;
        value           nonuniform List<scalar> 
14
(
0.000128305
0.000139448
0.000141982
0.000148471
0.000154454
0.000160072
0.00016563
0.000170918
0.000174617
0.000176032
0.000174492
0.00016951
0.000160821
0.000148618
)
;
    }
    heatsource1
    {
        type            nutkWallFunction;
        Cmu             0.09;
        kappa           0.41;
        E               9.8;
        value           nonuniform List<scalar> 3(7.18392e-05 8.68627e-05 9.75997e-05);
    }
    heatsource2
    {
        type            nutkWallFunction;
        Cmu             0.09;
        kappa           0.41;
        E               9.8;
        value           nonuniform List<scalar> 4(0.000136447 8.51704e-05 8.51704e-05 0.000140335);
    }
    Table_master
    {
        type            nutkWallFunction;
        Cmu             0.09;
        kappa           0.41;
        E               9.8;
        value           nonuniform List<scalar> 9(9.40002e-05 8.29887e-05 7.39226e-05 6.64705e-05 6.03092e-05 5.51743e-05 5.08665e-05 4.72573e-05 4.42923e-05);
    }
    Table_slave
    {
        type            nutkWallFunction;
        Cmu             0.09;
        kappa           0.41;
        E               9.8;
        value           nonuniform List<scalar> 9(0.000106417 9.72652e-05 9.0648e-05 8.5578e-05 8.12512e-05 7.72102e-05 7.33046e-05 6.91692e-05 6.43322e-05);
    }
    inlet
    {
        type            calculated;
        value           uniform 0.000100623;
    }
    outlet
    {
        type            calculated;
        value           nonuniform List<scalar> 2(0.00183116 0.00192825);
    }
}


// ************************************************************************* //
