// -*- C++ -*-
// File generated by PyFoam - sorry for the ugliness

FoamFile
{
 version 2.0;
 format ascii;
 class volScalarField;
 location "1500";
 object T;
}

dimensions [ 0 0 0 1 0 0 0 ];

internalField nonuniform List<scalar> 459
(
  303.381
  303.118
  303.105
  303.101
  303.098
  303.094
  303.089
  303.084
  303.075
  303.063
  303.051
  303.04
  303.034
  303.033
  303.039
  303.126
  303.106
  303.098
  303.1
  303.104
  303.108
  303.112
  303.116
  303.12
  303.124
  303.127
  303.131
  303.135
  303.139
  303.143
  303.147
  303.151
  303.157
  303.176
  303.56
  303.16
  303.137
  303.14
  303.143
  303.144
  303.142
  303.134
  303.118
  303.093
  303.065
  303.042
  303.026
  303.019
  303.018
  303.015
  303.012
  303.128
  303.09
  303.084
  303.085
  303.09
  303.094
  303.096
  303.097
  303.099
  303.1
  303.101
  303.102
  303.103
  303.105
  303.107
  303.111
  303.117
  303.126
  303.159
  303.747
  303.21
  303.173
  303.185
  303.2
  303.211
  303.216
  303.209
  303.182
  303.138
  303.089
  303.049
  303.024
  303.014
  303.013
  303.014
  303.014
  303.08
  303.073
  303.076
  303.083
  303.092
  303.1
  303.1
  303.1
  303.1
  303.1
  303.1
  303.1
  303.1
  303.1
  303.101
  303.104
  303.108
  303.116
  303.152
  303.935
  303.272
  303.21
  303.229
  303.26
  303.288
  303.307
  303.302
  303.259
  303.188
  303.112
  303.054
  303.02
  303.008
  303.009
  303.014
  303.019
  303.029
  303.041
  303.058
  303.076
  303.094
  303.11
  303.123
  303.133
  303.142
  303.15
  303.157
  303.163
  303.168
  303.171
  303.174
  303.175
  303.153
  303.134
  303.125
  303.151
  304.119
  303.35
  303.249
  303.266
  303.308
  303.357
  303.398
  303.392
  303.328
  303.226
  303.123
  303.051
  303.012
  303
  303.006
  303.018
  303.031
  303.046
  303.064
  303.085
  303.107
  303.128
  303.147
  303.162
  303.176
  303.188
  303.197
  303.205
  303.211
  303.213
  303.213
  303.209
  303.202
  303.184
  303.159
  303.138
  303.149
  303.224
  303.269
  303.275
  304.285
  303.451
  303.314
  303.307
  303.347
  303.408
  303.471
  303.449
  303.356
  303.232
  303.117
  303.035
  302.994
  302.988
  303.004
  303.027
  303.052
  303.075
  303.1
  303.126
  303.151
  303.173
  303.193
  303.208
  303.222
  303.232
  303.241
  303.248
  303.252
  303.252
  303.247
  303.238
  303.227
  303.208
  303.183
  303.157
  303.152
  303.183
  303.2
  303.235
  304.433
  303.611
  303.468
  303.432
  303.451
  303.507
  303.534
  303.469
  303.337
  303.189
  303.065
  302.988
  302.963
  302.975
  303.009
  303.05
  303.088
  303.122
  303.153
  303.18
  303.204
  303.225
  303.242
  303.255
  303.266
  303.275
  303.282
  303.286
  303.287
  303.285
  303.277
  303.265
  303.25
  303.23
  303.207
  303.182
  303.169
  303.176
  303.186
  303.216
  304.651
  304.035
  303.871
  303.769
  303.72
  303.702
  303.602
  303.426
  303.227
  303.057
  302.949
  302.908
  302.924
  302.973
  303.036
  303.098
  303.148
  303.187
  303.217
  303.24
  303.259
  303.275
  303.288
  303.298
  303.306
  303.312
  303.316
  303.317
  303.316
  303.312
  303.304
  303.292
  303.276
  303.259
  303.241
  303.223
  303.216
  303.227
  303.245
  303.378
  304.962
  304.674
  304.408
  304.178
  303.99
  303.763
  303.429
  303.111
  302.884
  302.774
  302.762
  302.819
  302.916
  303.016
  303.111
  303.184
  303.227
  303.255
  303.276
  303.293
  303.307
  303.318
  303.327
  303.334
  303.338
  303.341
  303.342
  303.342
  303.34
  303.338
  303.336
  303.336
  303.338
  303.344
  303.357
  303.379
  303.41
  303.443
  303.467
  303.529
  297.022
  299.138
  300.248
  300.707
  301.154
  301.598
  302.008
  302.357
  302.637
  302.863
  303.056
  303.163
  303.228
  303.268
  303.294
  303.312
  303.326
  303.337
  303.346
  303.353
  303.358
  303.362
  303.364
  303.366
  303.367
  303.368
  303.369
  303.37
  303.372
  303.374
  303.378
  303.385
  303.397
  303.415
  303.437
  303.459
  303.479
  303.518
  297.458
  299.327
  300.268
  300.972
  301.573
  302.108
  302.515
  302.799
  302.996
  303.131
  303.217
  303.27
  303.304
  303.325
  303.341
  303.353
  303.362
  303.369
  303.374
  303.377
  303.38
  303.382
  303.384
  303.385
  303.387
  303.388
  303.389
  303.39
  303.392
  303.394
  303.397
  303.402
  303.41
  303.422
  303.436
  303.452
  303.472
  303.496
  299.53
  299.46
  299.455
  301.235
  302.099
  302.542
  302.792
  302.969
  303.097
  303.185
  303.248
  303.292
  303.32
  303.339
  303.352
  303.361
  303.367
  303.372
  303.376
  303.379
  303.381
  303.383
  303.385
  303.387
  303.389
  303.391
  303.392
  303.394
  303.396
  303.397
  303.399
  303.401
  303.404
  303.407
  303.411
  303.419
  303.428
  303.433
  303.489
  303.578
)
;

boundaryField
{
  floor
  {
    type wallHeatTransfer;
    Tinf uniform 305.2;
    alphaWall uniform 0.24;
    value nonuniform List<scalar> 29
(
  303.262
  303.526
  303.466
  303.43
  303.43
  303.44
  303.453
  303.472
  303.493
  303.514
  303.534
  303.553
  303.572
  303.59
  303.607
  303.624
  303.641
  303.66
  303.674
  303.714
  303.714
  303.615
  303.565
  303.537
  303.262
  303.526
  303.518
  303.337
  303.22
)
;
  }
  ceiling
  {
    type wallHeatTransfer;
    Tinf uniform 303.2;
    alphaWall uniform 0.24;
    value nonuniform List<scalar> 43
(
  299.784
  299.708
  299.697
  301.359
  302.174
  302.59
  302.823
  302.987
  303.105
  303.187
  303.244
  303.282
  303.306
  303.321
  303.33
  303.336
  303.341
  303.344
  303.346
  303.349
  303.35
  303.352
  303.354
  303.356
  303.358
  303.36
  303.363
  303.365
  303.367
  303.37
  303.373
  303.375
  303.379
  303.383
  303.388
  303.396
  303.404
  303.407
  303.455
  303.538
  304.88
  304.615
  297.808
)
;
  }
  sWall
  {
    type wallHeatTransfer;
    Tinf uniform 315.2;
    alphaWall uniform 0.36;
    value uniform 301.109;
  }
  nWall
  {
    type wallHeatTransfer;
    Tinf uniform 307.2;
    alphaWall uniform 0.36;
    value nonuniform List<scalar> 6
(
  304.001
  303.946
  303.871
  304.074
  304.045
  304.114
)
;
  }
  sideWalls
  {
    type empty;
  }
  glass1
  {
    type wallHeatTransfer;
    Tinf uniform 315.2;
    alphaWall uniform 4.3;
    value nonuniform List<scalar> 9
(
  311.493
  310.857
  310.456
  310.149
  309.893
  309.66
  309.479
  309.544
  309.766
)
;
  }
  glass2
  {
    type wallHeatTransfer;
    Tinf uniform 307.2;
    alphaWall uniform 4.3;
    value nonuniform List<scalar> 2
(
  305.76
  305.871
)
;
  }
  sun
  {
    type wallHeatTransfer;
    Tinf uniform 305.2;
    alphaWall uniform 0.24;
    value nonuniform List<scalar> 14
(
  303.576
  303.326
  303.311
  303.301
  303.291
  303.282
  303.273
  303.263
  303.252
  303.24
  303.23
  303.225
  303.227
  303.238
)
;
  }
  heatsource1
  {
    type fixedGradient;
    gradient uniform 0;
  }
  heatsource2
  {
    type fixedGradient;
    gradient uniform 0;
  }
  Table_master
  {
    type zeroGradient;
  }
  Table_slave
  {
    type zeroGradient;
  }
  inlet
  {
    type fixedValue;
    value uniform 293.15;
  }
  outlet
  {
    type zeroGradient;
  }
} 	// ************************************************************************* //

