/*--------------------------------*- C++ -*----------------------------------*\
  =========                 |
  \\      /  F ield         | OpenFOAM: The Open Source CFD Toolbox
   \\    /   O peration     | Website:  https://openfoam.org
    \\  /    A nd           | Version:  6
     \\/     M anipulation  |
\*---------------------------------------------------------------------------*/
FoamFile
{
    version     2.0;
    format      ascii;
    class       surfaceScalarField;
    location    "1400";
    object      phi;
}
// * * * * * * * * * * * * * * * * * * * * * * * * * * * * * * * * * * * * * //

dimensions      [1 0 -1 0 0 0 0];

internalField   nonuniform List<scalar> 
852
(
-0.0029563
0.00301366
-0.00399302
0.00103672
-0.00479258
0.000799559
-0.00541719
0.000624609
-0.00583352
0.00041633
-0.00601377
0.000180248
-0.00592992
-8.38493e-05
-0.00555938
-0.000370534
-0.00491622
-0.000643164
-0.00406332
-0.000852895
-0.00309885
-0.000964479
-0.00213366
-0.000965182
-0.00126897
-0.000864694
-0.000564995
-0.000703973
-0.000563334
-0.000773479
0.000776464
-0.00051393
-0.000259549
8.19219e-05
-0.00059585
0.000581499
-0.000499576
0.000927719
-0.000346219
0.00115318
-0.000225455
0.00127869
-0.000125514
0.0013394
-6.07086e-05
0.00137295
-3.35511e-05
0.00139354
-2.05841e-05
0.00140514
-1.15991e-05
0.00140928
-4.13823e-06
0.00140462
4.65479e-06
0.00138367
2.09589e-05
0.00132532
5.83469e-05
0.00119418
0.000131148
0.000978193
0.000215984
0.000714003
0.000264191
0.000717999
-0.00211771
0.00528592
-0.00313576
0.00205477
-0.00396436
0.00162816
-0.00458507
0.00124532
-0.00499949
0.000830755
-0.00518895
0.000369711
-0.00512214
-0.00015066
-0.00478035
-0.000712325
-0.00418984
-0.00123368
-0.00342442
-0.00161831
-0.00258099
-0.00180791
-0.00175444
-0.00179173
-0.00102564
-0.00159349
-0.000470859
-0.00125875
-0.000204799
-0.000829394
0.000104452
-0.000309302
0.000104402
0.000262378
0.00052277
0.000667234
-0.000664404
0.000932365
-0.000860981
0.00115564
-0.000722844
0.00133302
-0.0005236
0.00144731
-0.000339749
0.00146751
-0.000145711
0.00147245
-6.56496e-05
0.00147847
-3.95721e-05
0.00148354
-2.56495e-05
0.0014869
-1.49536e-05
0.00148869
-5.9273e-06
0.00148828
5.06848e-06
0.00148245
2.67865e-05
0.00144354
9.72568e-05
0.0012769
0.000297788
0.00098718
0.000505707
0.00062412
0.000627253
0.00135228
-0.00148859
0.00701093
-0.00237011
0.00293629
-0.00311062
0.00236867
-0.00364748
0.00178217
-0.00401562
0.00119889
-0.00419152
0.000545616
-0.00412148
-0.000220699
-0.00377761
-0.0010562
-0.00321112
-0.00180016
-0.00251431
-0.00231512
-0.00178152
-0.0025407
-0.00108676
-0.00248649
-0.000482673
-0.00219758
-6.24346e-06
-0.00173518
0.000308725
-0.00114436
0.000456031
-0.000456607
0.000560433
0.00149315
-0.000960901
0.00171245
-0.000883706
0.00167127
-0.000819796
0.00166076
-0.000712332
0.00168575
-0.000548592
0.00172705
-0.000381052
0.0015815
0.001516
0.00147658
0.00145109
0.00143629
0.00143052
0.00143574
0.00146268
0.00156009
0.00128932
0.000568567
0.000957221
0.000837804
0.00053764
0.00104684
0.00190529
-0.00104275
0.0083598
-0.00174466
0.0036382
-0.00224274
0.00286674
-0.0026028
0.00214224
-0.00285724
0.00145333
-0.002971
0.000659371
-0.00284788
-0.000343815
-0.00246626
-0.00143782
-0.00192453
-0.00234189
-0.0013257
-0.00291395
-0.000745465
-0.00312094
-0.000225655
-0.0030063
0.000217156
-0.00264039
0.000582036
-0.00210006
0.000906818
-0.00146914
0.00127341
-0.000823198
0.00211643
-0.000282589
0.00248693
-0.000362108
0.00213172
-0.000605691
0.0019983
-0.000750287
0.00187221
-0.000693707
0.00175916
-0.000599275
0.00168809
-0.000477521
0.0016322
-0.000325164
0.00177344
-0.000141392
0.00186111
-8.78226e-05
0.00193207
-7.11073e-05
0.00198803
-5.61186e-05
0.00201483
-2.69485e-05
0.00199053
2.41496e-05
0.00188943
0.000100952
0.0016779
0.000211372
0.00130084
0.00037691
0.0011414
0.000728009
0.000829604
0.0011496
0.00036175
0.00151469
0.00228709
-0.000728881
0.00945395
-0.00126322
0.00417254
-0.00138619
0.00298971
-0.00148134
0.00223739
-0.00154628
0.00151827
-0.00151701
0.000630101
-0.00125469
-0.000606132
-0.000820391
-0.00187212
-0.000345885
-0.0028164
8.86023e-05
-0.00334844
0.00044638
-0.00347871
0.000721433
-0.00328136
0.000933574
-0.00285253
0.00111311
-0.0022796
0.00129426
-0.00165029
0.00152507
-0.00105401
0.00184906
-0.000606581
0.00195837
-0.000471416
0.0018769
-0.000524215
0.00170187
-0.000575257
0.00154556
-0.0005374
0.00141245
-0.000466157
0.00131582
-0.000380897
0.0012716
-0.000280939
0.00131639
-0.000186182
0.00137228
-0.000143711
0.00143259
-0.000131412
0.00149391
-0.000117443
0.00154572
-7.87525e-05
0.00156748
2.39255e-06
0.00153737
0.000131058
0.00144331
0.000305443
0.00128615
0.000534069
0.00113952
0.000874637
0.0009745
0.00131463
0.000618503
0.00187069
0.000516162
0.00238943
-0.000991156
0.00150712
-0.00145504
0.000463684
-0.00140658
-0.000631323
0.0105004
-0.000999177
0.00454039
-0.000606797
0.00259733
-0.000317801
0.0019484
-0.000108475
0.00130895
0.000202487
0.00031914
0.000673236
-0.00107688
0.00111097
-0.00230985
0.00142832
-0.00313376
0.00160836
-0.00352848
0.00167395
-0.00354431
0.00165822
-0.00326562
0.00159237
-0.00278669
0.00151389
-0.00220112
0.0014564
-0.0015928
0.00144525
-0.00104285
0.0014743
-0.000635636
0.00144188
-0.000438995
0.00131715
-0.000399478
0.00113901
-0.000397125
0.000976387
-0.000374771
0.000847881
-0.00033765
0.000761409
-0.000294423
0.000727492
-0.000247021
0.000749216
-0.000207904
0.000801496
-0.000195988
0.000870231
-0.000200146
0.00094955
-0.000196759
0.00103344
-0.00016264
0.00111063
-7.48001e-05
0.00116253
7.91622e-05
0.00118304
0.000284932
0.00118123
0.000535885
0.00120185
0.00085402
0.00129121
0.00122527
0.00146551
0.00169639
0.0019036
0.00195135
0.00216223
0.00124848
0.00177226
0.000853656
0.00042392
-0.000719571
0.0116796
-0.000607382
0.0044282
0.000464478
0.00152547
0.00113169
0.00128119
0.00168593
0.000754708
0.00232158
-0.000316508
0.00288198
-0.00163729
0.00319639
-0.00262426
0.00325767
-0.00319503
0.00311043
-0.00338124
0.0028174
-0.00325128
0.00244262
-0.00289084
0.00204031
-0.00238438
0.00165879
-0.00181959
0.00133163
-0.00126564
0.00107904
-0.000790257
0.000898927
-0.000455522
0.000745761
-0.000285828
0.000584557
-0.000238272
0.00042314
-0.000235706
0.000284899
-0.000236529
0.000180999
-0.000233749
0.000115592
-0.000229014
9.28268e-05
-0.000224254
0.000110811
-0.000225887
0.000155799
-0.000240974
0.000217221
-0.000261566
0.000293166
-0.000272702
0.000387599
-0.000257072
0.000505478
-0.000192676
0.000635624
-5.09813e-05
0.000766034
0.000154524
0.000905891
0.00039603
0.00109366
0.000666249
0.00137594
0.000942997
0.00181861
0.00125372
0.00248701
0.00128295
0.00302983
0.000705666
0.00305046
0.00083303
0.00353716
0.00259777
0.00959541
0.00327239
0.00375359
0.00343003
0.00136783
0.00387002
0.000841198
0.00454541
7.93147e-05
0.00523719
-0.00100829
0.00552859
-0.00192868
0.00541748
-0.00251315
0.00498733
-0.00276489
0.00434068
-0.0027346
0.00357902
-0.00248961
0.00278933
-0.00210116
0.00203105
-0.0016261
0.00135947
-0.00114801
0.000803173
-0.00070935
0.000383651
-0.000370733
0.000101813
-0.000173683
-8.64402e-05
-9.75727e-05
-0.000230139
-9.45722e-05
-0.0003504
-0.000115443
-0.000448705
-0.000138222
-0.000523216
-0.000159235
-0.000573252
-0.000178975
-0.00059855
-0.000198954
-0.000602296
-0.000222139
-0.000593289
-0.000249979
-0.000577523
-0.000277329
-0.00055447
-0.000295753
-0.000516031
-0.000295508
-0.000443487
-0.000265219
-0.000306246
-0.00018822
-0.000117766
-3.39537e-05
0.000103421
0.000174845
0.000377151
0.000392521
0.000714483
0.000605667
0.00115634
0.000811867
0.00163402
0.000805276
0.00182763
0.000512053
0.00107556
0.0015851
0.00487157
0.010159
0.0139054
0.0122188
0.0030544
0.0112998
0.0017602
0.0105642
0.000814987
0.00968859
-0.000132731
0.00855593
-0.000796022
0.00727218
-0.0012294
0.00593102
-0.00142373
0.00460014
-0.00140371
0.00334189
-0.00123136
0.00220898
-0.000968254
0.00120963
-0.000626747
0.000387336
-0.000325713
-0.000222977
-9.90355e-05
-0.000607174
1.34654e-05
-0.000817472
3.66167e-05
-0.000938174
2.31316e-05
-0.00102745
-5.2979e-06
-0.00110635
-3.65377e-05
-0.00117793
-6.6643e-05
-0.00124224
-9.49193e-05
-0.00129987
-0.000121347
-0.00135244
-0.000146375
-0.00140393
-0.000170645
-0.00146156
-0.000192348
-0.00153274
-0.000206152
-0.00162482
-0.000203673
-0.00174685
-0.000173469
-0.00191045
-0.000101618
-0.00212331
2.46406e-05
-0.00237196
0.000214702
-0.00268063
0.000483515
-0.00313581
0.000847699
-0.00383372
0.00130358
-0.00483924
0.00181739
-0.00626632
0.00223236
-0.00798484
0.00223058
-0.00747756
0.00107782
-0.00231918
0.00510608
0.00457358
0.00411684
0.00274943
0.00452961
0.000402205
0.00457637
-0.000179494
0.00417633
-0.00039599
0.00350169
-0.000554763
0.00266001
-0.000582056
0.00174307
-0.000486772
0.00082642
-0.000314707
-3.86065e-05
-0.000103225
-0.000749437
8.40857e-05
-0.0012209
0.000145749
-0.00148015
0.00016022
-0.0016079
0.000141221
-0.0016782
0.00010691
-0.00172762
7.25534e-05
-0.00177373
4.08241e-05
-0.00182382
1.3554e-05
-0.00188106
-9.40581e-06
-0.00194536
-3.06151e-05
-0.00201637
-5.03326e-05
-0.00209531
-6.74351e-05
-0.00218347
-8.24798e-05
-0.00228298
-9.28431e-05
-0.00239492
-9.42113e-05
-0.00251811
-8.04759e-05
-0.00264794
-4.36403e-05
-0.00277562
2.60687e-05
-0.00288902
0.000138041
-0.0029857
0.000311381
-0.00307415
0.000571974
-0.00316139
0.000934939
-0.00324526
0.00138745
-0.0032795
0.00185163
-0.00320536
0.00215822
-0.00284362
0.00186883
-0.00157054
-0.00019526
-0.00381463
-0.000415985
0.00504597
0.00087052
0.00146292
0.000853823
0.000418897
0.000601004
7.33235e-05
0.000242299
-3.72839e-05
-0.000269339
-4.31203e-05
-0.000859619
8.22651e-06
-0.00141953
7.3145e-05
-0.00186553
0.000131294
-0.00214502
0.000176269
-0.0022595
0.000198568
-0.00229988
0.000186131
-0.00230063
0.000160965
-0.00229154
0.000132133
-0.00229001
0.000105386
-0.00230008
8.26238e-05
-0.00232167
6.24239e-05
-0.00235216
4.40392e-05
-0.00238922
2.76624e-05
-0.0024329
1.30589e-05
-0.00248274
-4.87045e-07
-0.00253828
-1.18954e-05
-0.00259941
-2.13482e-05
-0.00266445
-2.77934e-05
-0.00272952
-2.91377e-05
-0.0027878
-2.21992e-05
-0.00282861
-2.82931e-06
-0.00283995
3.74162e-05
-0.00280921
0.0001073
-0.00271314
0.000215318
-0.00251875
0.000377578
-0.0021986
0.000614794
-0.00173767
0.000926523
-0.00111249
0.00122645
-0.000143017
0.00118876
0.00116183
0.000563989
0.00157477
-0.000608205
-0.00215744
0.000249496
-0.0107972
-0.00570721
-0.00422122
-0.00378796
-0.00370516
-0.00373611
-0.00377521
-0.0037647
-0.00369058
-0.00355939
-0.00338416
-0.00318744
-0.00300383
-0.00284595
-0.00271735
-0.00261583
-0.00253735
-0.00247927
-0.00243971
-0.0024166
-0.00240812
-0.00241318
-0.00242961
-0.00245543
-0.00248761
-0.00252105
-0.00254744
-0.00255433
-0.00252084
-0.00241733
-0.00220566
-0.00183159
-0.00122018
-0.00029695
0.000926243
0.00211164
0.0026721
0.0020601
)
;

boundaryField
{
    floor
    {
        type            calculated;
        value           nonuniform List<scalar> 
29
(
0
0
0
0
0
0
0
0
0
0
0
0
0
0
0
0
0
0
0
0
-3.99382e-06
-1.01558e-05
-1.53726e-05
-2.00434e-05
-1.65999e-06
-2.98345e-06
-8.68235e-06
-9.47749e-06
-8.38443e-06
)
;
    }
    ceiling
    {
        type            calculated;
        value           nonuniform List<scalar> 
43
(
-2.35199e-05
-4.36948e-05
-4.40117e-05
-2.30637e-05
-1.43606e-05
-9.47261e-06
-6.32896e-06
-4.02326e-06
-2.27646e-06
-9.73033e-07
1.09129e-07
1.03853e-06
1.84579e-06
2.53088e-06
3.08758e-06
3.52842e-06
3.87616e-06
4.14643e-06
4.34583e-06
4.47897e-06
4.55413e-06
4.58245e-06
4.57347e-06
4.53345e-06
4.47274e-06
4.39429e-06
4.30011e-06
4.19148e-06
4.06884e-06
3.93095e-06
3.78765e-06
3.64563e-06
3.51033e-06
3.38934e-06
3.29656e-06
3.26274e-06
3.35649e-06
3.53932e-06
3.78958e-06
4.83066e-06
1.02851e-05
7.23484e-06
-5.64061e-05
)
;
    }
    sWall
    {
        type            calculated;
        value           uniform -0.000230248;
    }
    nWall
    {
        type            calculated;
        value           nonuniform List<scalar> 6(-4.86684e-05 -5.82327e-05 -6.27856e-05 -7.50824e-05 -8.24149e-05 -0.000102167);
    }
    sideWalls
    {
        type            empty;
        value           nonuniform 0();
    }
    glass1
    {
        type            calculated;
        value           nonuniform List<scalar> 9(-5.73587e-05 -0.000154543 -0.000236422 -0.000306113 -0.000365267 -0.000415118 -0.000459655 -0.000513567 -0.000573915);
    }
    glass2
    {
        type            calculated;
        value           nonuniform List<scalar> 2(-0.000258842 -0.000286808);
    }
    sun
    {
        type            calculated;
        value           uniform 0;
    }
    heatsource1
    {
        type            calculated;
        value           nonuniform List<scalar> 3(2.04198e-07 2.0414e-07 2.04157e-07);
    }
    heatsource2
    {
        type            calculated;
        value           nonuniform List<scalar> 4(5.11911e-08 5.12792e-08 0 0);
    }
    Table_master
    {
        type            calculated;
        value           nonuniform List<scalar> 9(-1.53145e-07 -1.53234e-07 -1.53267e-07 -1.53288e-07 -1.53303e-07 -1.53314e-07 -1.53319e-07 -1.53314e-07 -1.53284e-07);
    }
    Table_slave
    {
        type            calculated;
        value           nonuniform List<scalar> 9(1.53024e-07 1.53042e-07 1.5302e-07 1.53002e-07 1.52994e-07 1.52998e-07 1.53012e-07 1.53054e-07 1.53135e-07);
    }
    inlet
    {
        type            calculated;
        value           uniform -0.00662527;
    }
    outlet
    {
        type            calculated;
        value           nonuniform List<scalar> 2(4.27425e-06 0.0110904);
    }
}


// ************************************************************************* //
