/*--------------------------------*- C++ -*----------------------------------*\
  =========                 |
  \\      /  F ield         | OpenFOAM: The Open Source CFD Toolbox
   \\    /   O peration     | Website:  https://openfoam.org
    \\  /    A nd           | Version:  6
     \\/     M anipulation  |
\*---------------------------------------------------------------------------*/
FoamFile
{
    version     2.0;
    format      ascii;
    class       volScalarField;
    location    "200";
    object      epsilon;
}
// * * * * * * * * * * * * * * * * * * * * * * * * * * * * * * * * * * * * * //

dimensions      [0 2 -3 0 0 0 0];

internalField   nonuniform List<scalar> 
459
(
0.000107717
0.000115365
7.43773e-05
8.02867e-05
8.9132e-05
9.87926e-05
0.000109313
0.000121048
0.000133633
0.000145837
0.000156595
0.000164263
0.000166621
0.000160959
0.00014339
5.08242e-06
5.6644e-06
5.18132e-06
5.30302e-06
5.53379e-06
5.85471e-06
6.448e-06
7.51914e-06
9.05854e-06
1.12743e-05
1.41685e-05
1.78353e-05
2.23449e-05
2.78611e-05
3.49355e-05
4.17422e-05
4.04361e-05
3.06998e-05
1.92198e-05
0.000645454
0.00147982
0.000137546
6.06487e-05
5.94138e-05
6.41379e-05
7.01798e-05
7.73481e-05
8.5707e-05
9.49848e-05
0.000105062
0.000115405
0.000124465
0.000129267
0.000130258
0.000166074
5.37034e-05
1.12577e-05
1.93914e-05
5.56837e-06
5.846e-06
6.94616e-06
6.88751e-06
6.37909e-06
8.21355e-06
1.07143e-05
1.41391e-05
1.886e-05
2.53212e-05
3.38526e-05
4.44151e-05
5.49548e-05
5.68037e-05
5.26758e-05
4.97681e-05
3.98219e-05
0.00182231
0.00532899
0.000493283
9.6216e-05
6.94353e-05
7.13359e-05
7.76726e-05
8.57075e-05
9.52298e-05
0.000105977
0.000117597
0.000129334
0.000139365
0.000144556
0.000143003
0.000142263
0.000169321
3.55469e-05
5.99438e-05
2.54141e-05
2.47035e-05
2.85267e-05
2.90304e-05
1.05919e-05
1.34419e-05
1.76674e-05
2.3602e-05
3.23337e-05
4.52158e-05
6.38043e-05
9.05593e-05
0.000131308
9.11876e-05
9.54366e-05
0.000103157
0.000124855
0.00379182
0.0119058
0.00151219
0.000219544
0.000104089
9.32725e-05
9.76677e-05
0.000106501
0.000117644
0.000130778
0.0001449
0.000158864
0.000170314
0.000175598
0.000172075
0.000163638
0.000167091
0.000212042
9.9808e-05
7.25237e-05
7.46155e-05
8.59161e-05
0.00010241
0.000130123
0.000179897
0.000182999
0.000184544
0.000184744
0.000185076
0.000187595
0.000195282
0.000212814
0.00024834
0.000133338
0.000150613
0.000187772
0.000285923
0.00650237
0.0200704
0.0037203
0.00065656
0.000231088
0.000155293
0.000140679
0.000143776
0.000154313
0.000169984
0.000188753
0.000209205
0.00022844
0.000241073
0.000240315
0.000221835
0.000189022
0.000149585
0.000106517
9.23105e-05
9.43096e-05
0.000102471
0.000113075
0.000123203
0.000130733
0.000133862
0.000135609
0.000136645
0.000137633
0.0001394
0.000142933
0.000149181
0.000158432
0.000168855
0.000195896
0.000239323
0.000308991
0.00046781
0.000397127
0.000244298
0.00985381
0.0267644
0.00759532
0.00210195
0.000811806
0.000409521
0.000274121
0.000230385
0.000220571
0.000227146
0.000244861
0.000270667
0.000301706
0.000331907
0.000351639
0.000350079
0.000320825
0.000269552
0.00021519
0.000179047
0.000166396
0.000167834
0.000174475
0.00018164
0.000186955
0.000189759
0.000190831
0.000190579
0.000189414
0.000187989
0.000187369
0.000189269
0.000196373
0.000212714
0.000244687
0.000298339
0.000375445
0.000463583
0.000517314
0.000259626
0.0133004
0.0284701
0.0134508
0.00630814
0.00320935
0.00156968
0.000819732
0.00051717
0.000393104
0.000339139
0.000326108
0.000338156
0.000369173
0.000412029
0.000455349
0.000483076
0.000479665
0.00044276
0.000387388
0.000336761
0.000303726
0.000287704
0.000282518
0.000282754
0.000284275
0.000285076
0.000284595
0.000282579
0.000278984
0.000274124
0.000268899
0.000265144
0.000266186
0.000277919
0.000310838
0.000380492
0.00050259
0.000683978
0.000877963
0.000726211
0.0132787
0.0289622
0.0231067
0.0170327
0.010006
0.00525858
0.00277109
0.00155125
0.00095275
0.000655775
0.000510072
0.000454242
0.000450915
0.000482535
0.000536237
0.00059402
0.000626978
0.000622964
0.000587887
0.000540894
0.000499036
0.000468954
0.000450252
0.000439781
0.000433685
0.00042925
0.000424938
0.000419722
0.000412921
0.000404304
0.000394325
0.000384429
0.000377413
0.000378482
0.000398921
0.000463092
0.000619254
0.000953989
0.00150269
0.00124361
0.0114398
0.0178617
0.0757254
0.0516624
0.0259551
0.0124526
0.0061777
0.0032898
0.00191811
0.00123665
0.000887168
0.000708875
0.00063276
0.000624507
0.00066172
0.000721497
0.000778454
0.000812515
0.000816378
0.000797199
0.000767907
0.000738225
0.000712974
0.000693111
0.000677347
0.000664162
0.000652313
0.000640667
0.000628201
0.000614164
0.000598349
0.000581404
0.00056502
0.000552255
0.000549003
0.000566027
0.000616291
0.000744899
0.00148799
0.00144516
0.231641
0.173621
0.0331125
0.0120461
0.00617513
0.00364318
0.00238932
0.00172819
0.00136947
0.00117727
0.00108335
0.00105047
0.00105719
0.0010911
0.0011394
0.00118785
0.00122383
0.00124018
0.00123846
0.00122447
0.00120422
0.00118103
0.00115641
0.0011315
0.00110698
0.00108296
0.00105906
0.00103459
0.00100892
0.000981828
0.000953766
0.000926066
0.000901272
0.000883777
0.000881794
0.000937619
0.00126015
0.00143764
0.142632
0.0882681
0.0301084
0.0130026
0.00697549
0.0044422
0.00324707
0.0026554
0.00237155
0.00225762
0.00223877
0.00227054
0.00232648
0.00238944
0.00244616
0.00248528
0.00249966
0.00249011
0.00246246
0.00242429
0.00238244
0.00233839
0.00229194
0.00224418
0.00219633
0.00214905
0.00210214
0.00205482
0.00200604
0.00195496
0.00190106
0.00184417
0.00178431
0.0017212
0.00165743
0.00161796
0.0023178
0.00153589
0.00100802
0.00196944
0.0428736
0.0320477
0.0195779
0.0118656
0.00758831
0.0051834
0.00377435
0.00291914
0.00239083
0.00206694
0.00187632
0.00177404
0.00172982
0.00172257
0.0017367
0.00175972
0.0017813
0.0017935
0.00179218
0.00177681
0.00174933
0.00171694
0.00168186
0.00164396
0.00160376
0.00156187
0.00151861
0.00147383
0.00142686
0.00137665
0.00132186
0.00126103
0.00119264
0.00111505
0.00102684
0.00093082
0.000901126
0.000601749
)
;

boundaryField
{
    floor
    {
        Cmu             0.09;
        kappa           0.41;
        E               9.8;
        type            epsilonWallFunction;
        value           nonuniform List<scalar> 
29
(
0.00014339
5.08242e-06
5.6644e-06
5.18132e-06
5.30302e-06
5.53379e-06
5.85471e-06
6.448e-06
7.51914e-06
9.05854e-06
1.12743e-05
1.41685e-05
1.78353e-05
2.23449e-05
2.78611e-05
3.49355e-05
4.17422e-05
4.04361e-05
3.06998e-05
1.92198e-05
1.92198e-05
3.98219e-05
0.000124855
0.000285923
0.00014339
5.08242e-06
1.12577e-05
3.55469e-05
0.000212042
)
;
    }
    ceiling
    {
        Cmu             0.09;
        kappa           0.41;
        E               9.8;
        type            epsilonWallFunction;
        value           nonuniform List<scalar> 
43
(
0.00100802
0.00196944
0.0428736
0.0320477
0.0195779
0.0118656
0.00758831
0.0051834
0.00377435
0.00291914
0.00239083
0.00206694
0.00187632
0.00177404
0.00172982
0.00172257
0.0017367
0.00175972
0.0017813
0.0017935
0.00179218
0.00177681
0.00174933
0.00171694
0.00168186
0.00164396
0.00160376
0.00156187
0.00151861
0.00147383
0.00142686
0.00137665
0.00132186
0.00126103
0.00119264
0.00111505
0.00102684
0.00093082
0.000901126
0.000601749
0.0114398
0.0178617
0.142632
)
;
    }
    sWall
    {
        Cmu             0.09;
        kappa           0.41;
        E               9.8;
        type            epsilonWallFunction;
        value           uniform 0.00100802;
    }
    nWall
    {
        Cmu             0.09;
        kappa           0.41;
        E               9.8;
        type            epsilonWallFunction;
        value           nonuniform List<scalar> 6(0.000244298 0.000259626 0.000726211 0.00143764 0.00153589 0.000601749);
    }
    sideWalls
    {
        type            empty;
    }
    glass1
    {
        Cmu             0.09;
        kappa           0.41;
        E               9.8;
        type            epsilonWallFunction;
        value           nonuniform List<scalar> 9(0.000107717 0.000645454 0.00182231 0.00379182 0.00650237 0.00985381 0.0133004 0.0132787 0.0114398);
    }
    glass2
    {
        Cmu             0.09;
        kappa           0.41;
        E               9.8;
        type            epsilonWallFunction;
        value           nonuniform List<scalar> 2(0.00124361 0.00144516);
    }
    sun
    {
        Cmu             0.09;
        kappa           0.41;
        E               9.8;
        type            epsilonWallFunction;
        value           nonuniform List<scalar> 
14
(
0.000107717
0.000115365
7.43773e-05
8.02867e-05
8.9132e-05
9.87926e-05
0.000109313
0.000121048
0.000133633
0.000145837
0.000156595
0.000164263
0.000166621
0.000160959
)
;
    }
    heatsource1
    {
        Cmu             0.09;
        kappa           0.41;
        E               9.8;
        type            epsilonWallFunction;
        value           nonuniform List<scalar> 3(0.00046781 0.000397127 0.000244298);
    }
    heatsource2
    {
        Cmu             0.09;
        kappa           0.41;
        E               9.8;
        type            epsilonWallFunction;
        value           nonuniform List<scalar> 4(0.000166074 5.37034e-05 5.37034e-05 0.000169321);
    }
    Table_master
    {
        Cmu             0.09;
        kappa           0.41;
        E               9.8;
        type            epsilonWallFunction;
        value           nonuniform List<scalar> 9(1.05919e-05 1.34419e-05 1.76674e-05 2.3602e-05 3.23337e-05 4.52158e-05 6.38043e-05 9.05593e-05 0.000131308);
    }
    Table_slave
    {
        Cmu             0.09;
        kappa           0.41;
        E               9.8;
        type            epsilonWallFunction;
        value           nonuniform List<scalar> 9(0.000179897 0.000182999 0.000184544 0.000184744 0.000185076 0.000187595 0.000195282 0.000212814 0.00024834);
    }
    inlet
    {
        type            turbulentMixingLengthDissipationRateInlet;
        mixingLength    0.01;
        phi             phi;
        k               k;
        value           uniform 0.231641;
    }
    outlet
    {
        type            zeroGradient;
    }
}


// ************************************************************************* //
