/*--------------------------------*- C++ -*----------------------------------*\
  =========                 |
  \\      /  F ield         | OpenFOAM: The Open Source CFD Toolbox
   \\    /   O peration     | Website:  https://openfoam.org
    \\  /    A nd           | Version:  6
     \\/     M anipulation  |
\*---------------------------------------------------------------------------*/
FoamFile
{
    version     2.0;
    format      ascii;
    class       surfaceScalarField;
    location    "700";
    object      phi;
}
// * * * * * * * * * * * * * * * * * * * * * * * * * * * * * * * * * * * * * //

dimensions      [1 0 -1 0 0 0 0];

internalField   nonuniform List<scalar> 
852
(
-0.00295867
0.00301616
-0.0039954
0.00103673
-0.00479423
0.00079884
-0.00541706
0.000622836
-0.00583012
0.000413056
-0.0060051
0.000174986
-0.00591369
-9.14023e-05
-0.00553383
-0.000379855
-0.00488138
-0.000652449
-0.00402142
-0.000859956
-0.00305386
-0.000967558
-0.00209042
-0.000963429
-0.00123306
-0.000857359
-0.000542922
-0.000690135
-0.000541228
-0.000780514
0.000783545
-0.000526331
-0.000254179
6.72797e-05
-0.000593608
0.000567365
-0.000500082
0.000914542
-0.000347174
0.00114089
-0.000226347
0.00126694
-0.000126042
0.00132775
-6.08049e-05
0.00136124
-3.34945e-05
0.00138174
-2.04945e-05
0.00139325
-1.15008e-05
0.00139731
-4.05916e-06
0.00139265
4.66034e-06
0.00137187
2.07889e-05
0.00131407
5.77944e-05
0.0011843
0.000129782
0.00097138
0.000212919
0.000713348
0.000258035
0.000717406
-0.00212014
0.00529119
-0.00313951
0.0020561
-0.00396837
0.0016277
-0.00458805
0.00124252
-0.00499979
0.0008248
-0.00518435
0.000359549
-0.00511016
-0.000165583
-0.00475941
-0.000730599
-0.00416052
-0.00125134
-0.00338927
-0.0016312
-0.00254373
-0.00181309
-0.00171865
-0.0017885
-0.000994451
-0.00158155
-0.000445473
-0.00123911
-0.000179895
-0.000806802
0.000111605
-0.000291548
0.000111558
0.000253563
0.000538811
0.000654245
-0.000654858
0.000919757
-0.000859116
0.00114335
-0.000723672
0.0013215
-0.000525319
0.0014367
-0.00034155
0.0014572
-0.000146531
0.00146225
-6.58522e-05
0.00146839
-3.96289e-05
0.00147355
-2.56603e-05
0.00147699
-1.49326e-05
0.00147885
-5.91186e-06
0.00147851
4.99918e-06
0.00147283
2.64746e-05
0.00143423
9.6394e-05
0.00126831
0.000295702
0.000980539
0.000500697
0.000621973
0.000616604
0.00134969
-0.00149072
0.00701886
-0.00237397
0.00293936
-0.00311547
0.0023692
-0.0036522
0.00177925
-0.00401844
0.00119105
-0.00418991
0.000531023
-0.00411224
-0.000243256
-0.00375946
-0.00108337
-0.00318575
-0.00182505
-0.00248483
-0.00233212
-0.00175154
-0.00254638
-0.00105875
-0.00248129
-0.00045833
-0.00218196
1.48099e-05
-0.00171225
0.000326702
-0.00111869
0.000468904
-0.000433745
0.000580465
0.00149155
-0.000943082
0.00171049
-0.000873786
0.0016665
-0.000815132
0.00165463
-0.000711797
0.00167957
-0.000550255
0.00172169
-0.000383668
0.00157532
0.00150962
0.00147015
0.00144464
0.00142987
0.00142411
0.00142927
0.0014559
0.00155245
0.00128066
0.000567493
0.000948981
0.000832379
0.000533347
0.00103224
0.00189862
-0.00104437
0.00837002
-0.00174792
0.00364292
-0.00224725
0.00286853
-0.00260779
0.00213979
-0.00286108
0.00144435
-0.00297064
0.000640592
-0.00283907
-0.000374826
-0.00244926
-0.00147317
-0.00190266
-0.00237164
-0.00130219
-0.00293259
-0.000723229
-0.00312533
-0.000205948
-0.00299857
0.000233859
-0.00262177
0.000596494
-0.00207488
0.000919299
-0.00144149
0.00128302
-0.000797468
0.0021251
-0.000261609
0.00248188
-0.000348266
0.00212999
-0.000591188
0.00199715
-0.000740939
0.00187128
-0.000689253
0.00175808
-0.0005986
0.00168695
-0.000479116
0.00163095
-0.000327671
0.00177408
-0.000143284
0.00186329
-8.93563e-05
0.00193561
-7.2472e-05
0.00199262
-5.71592e-05
0.00201982
-2.73523e-05
0.001995
2.46701e-05
0.00189231
0.000102533
0.00167813
0.000214028
0.00129732
0.000380657
0.00113448
0.000730343
0.000819236
0.00114762
0.000347473
0.00150401
0.0022664
-0.000729987
0.00946609
-0.0012656
0.00417854
-0.00138949
0.00299243
-0.00148504
0.00223535
-0.00154921
0.00150852
-0.00151448
0.000605863
-0.00124312
-0.000646177
-0.00080353
-0.00191276
-0.000327838
-0.00284733
0.000104961
-0.00336538
0.000459862
-0.00348023
0.000731753
-0.00327045
0.0009419
-0.00283191
0.00112017
-0.00225315
0.00130047
-0.00162179
0.00153025
-0.00102724
0.00185285
-0.000584204
0.00195863
-0.000454041
0.00187843
-0.000510992
0.00170404
-0.000566545
0.00154778
-0.000532994
0.0014142
-0.000465009
0.00131685
-0.00038177
0.00127197
-0.000282783
0.00131681
-0.000188123
0.001373
-0.000145543
0.00143373
-0.0001332
0.00149554
-0.000118971
0.00154767
-7.94831e-05
0.00156922
3.12316e-06
0.00153814
0.000133612
0.00144244
0.000309727
0.00128355
0.000539549
0.00113459
0.00087931
0.000966807
0.0013154
0.000604569
0.00186625
0.000494379
0.00237659
-0.000997227
0.0014914
-0.00145886
0.000461428
-0.00141017
-0.000632132
0.0105143
-0.00100074
0.00454715
-0.000608179
0.00259987
-0.0003182
0.00194538
-0.000107204
0.00129752
0.000212313
0.00028635
0.000690072
-0.00112393
0.00112736
-0.00235004
0.00144103
-0.00316098
0.00161643
-0.00354078
0.00167828
-0.00354207
0.00165919
-0.00325136
0.00159133
-0.00276404
0.00151217
-0.00217399
0.0014549
-0.00156451
0.00144439
-0.00101673
0.0014741
-0.00061392
0.00144231
-0.000422247
0.00131864
-0.00038732
0.00114112
-0.000389019
0.000978182
-0.000370053
0.000848531
-0.000335357
0.000760467
-0.000293704
0.000724999
-0.000247314
0.000745695
-0.000208818
0.000797573
-0.000197419
0.000866442
-0.000202069
0.000946355
-0.000198883
0.00103117
-0.000164296
0.00110926
-7.49624e-05
0.00116162
8.12515e-05
0.00118224
0.000289099
0.00118045
0.000541348
0.00120079
0.000858971
0.00128967
0.00122652
0.00146305
0.00169287
0.00190223
0.00193741
0.00216304
0.0012306
0.00177607
0.000848394
0.000424367
-0.000719818
0.0116948
-0.00060729
0.00443463
0.000467246
0.00152533
0.00114014
0.00127249
0.00170716
0.000730506
0.00234977
-0.000356264
0.00290423
-0.00167838
0.00321106
-0.00265687
0.0032644
-0.00321431
0.00310988
-0.00338626
0.00281124
-0.00324342
0.00243251
-0.00287263
0.0020284
-0.00235993
0.00164715
-0.00179273
0.00132153
-0.00123889
0.00107157
-0.000766764
0.000894425
-0.00043677
0.000743758
-0.000271578
0.000584127
-0.000227687
0.000423032
-0.000227922
0.000283823
-0.000230842
0.000178122
-0.000229654
0.000110672
-0.000226252
8.61174e-05
-0.000222758
0.000102919
-0.000225619
0.000147415
-0.000241914
0.000208946
-0.000263599
0.000285553
-0.00027549
0.000381232
-0.000259974
0.000501001
-0.000194731
0.000633241
-5.09882e-05
0.000765591
0.00015675
0.000907437
0.000399503
0.00109714
0.000669269
0.0013811
0.000942562
0.00182593
0.00124804
0.00249629
0.00126706
0.00304116
0.000685723
0.0030625
0.000827063
0.00354971
0.00260347
0.00960605
0.00327961
0.00375849
0.00343927
0.00136567
0.00388593
0.000825841
0.00457148
4.49517e-05
0.00526314
-0.00104791
0.00554649
-0.00196173
0.00542407
-0.00253444
0.00498284
-0.00277308
0.00432724
-0.00273065
0.00355948
-0.00247566
0.00276601
-0.00207915
0.00200704
-0.00160096
0.00133758
-0.00112327
0.000784668
-0.000685974
0.00037028
-0.000352375
9.34235e-05
-0.000159912
-9.14536e-05
-8.66998e-05
-0.000233674
-8.54649e-05
-0.000354035
-0.00010756
-0.000453449
-0.000131427
-0.000529442
-0.00015366
-0.000580918
-0.000174776
-0.000607404
-0.000196271
-0.000611998
-0.000221024
-0.00060352
-0.000250392
-0.000588012
-0.000279106
-0.000564936
-0.000298565
-0.000526069
-0.00029884
-0.000452431
-0.000268369
-0.00031295
-0.000190469
-0.000121371
-3.48288e-05
0.000103049
0.000175084
0.000379389
0.00039293
0.000717231
0.000604721
0.0011563
0.000808968
0.00162481
0.000798554
0.00180769
0.000502843
0.0010556
0.00157916
0.00486547
0.0101712
0.0139226
0.0122356
0.00305264
0.0113247
0.00173681
0.0105874
0.000782213
0.00969837
-0.000158861
0.00855207
-0.000815418
0.00725602
-0.00123839
0.00590475
-0.0014218
0.00456701
-0.0013929
0.00330563
-0.00121429
0.00217113
-0.00094465
0.0011741
-0.000603927
0.000356523
-0.000305689
-0.000247021
-8.2429e-05
-0.000623725
2.43304e-05
-0.000828607
4.49714e-05
-0.000945975
3.06694e-05
-0.00103349
2.05576e-06
-0.00111187
-2.91814e-05
-0.00118366
-5.96423e-05
-0.00124834
-8.89749e-05
-0.00130635
-0.000116764
-0.00135933
-0.000143294
-0.00141133
-0.000169028
-0.00146966
-0.000192057
-0.00154183
-0.000206938
-0.00163523
-0.000205161
-0.00175889
-0.000175179
-0.00192428
-0.00010298
-0.00213903
2.42861e-05
-0.00238981
0.000215946
-0.00270163
0.000486905
-0.00316199
0.000853289
-0.00386753
0.00131026
-0.00488136
0.0018228
-0.00631614
0.00223334
-0.00803831
0.00222502
-0.00751497
0.00105582
-0.00236114
0.00510872
0.004571
0.00410639
0.00273916
0.0045079
0.000380714
0.00454694
-0.000197884
0.00413887
-0.000407343
0.00345531
-0.000554816
0.00260788
-0.000574362
0.00168871
-0.000473731
0.000771841
-0.00029742
-8.87547e-05
-8.40546e-05
-0.000788902
9.6221e-05
-0.00124832
0.000153732
-0.00149678
0.000166027
-0.0016182
0.000145758
-0.00168529
0.000112054
-0.00173283
7.82153e-05
-0.0017775
4.67239e-05
-0.00182586
1.91856e-05
-0.00188139
-4.11465e-06
-0.00194435
-2.60208e-05
-0.00201425
-4.68548e-05
-0.00209227
-6.52795e-05
-0.00217977
-8.15206e-05
-0.00227895
-9.28789e-05
-0.0023909
-9.49885e-05
-0.00251437
-8.16908e-05
-0.00264457
-4.49754e-05
-0.00277248
2.49258e-05
-0.002886
0.000137813
-0.00298281
0.000312755
-0.00307145
0.000575544
-0.00315926
0.000941099
-0.00324423
0.00139523
-0.00327829
0.00185686
-0.00319932
0.00215437
-0.00282304
0.00184874
-0.0015508
-0.000216418
-0.00383653
-0.000453508
0.00508082
0.00084606
0.0014396
0.000821427
0.000405354
0.000556839
6.67084e-05
0.000185041
-3.55444e-05
-0.000335221
-3.45591e-05
-0.000925458
1.58722e-05
-0.0014787
7.9509e-05
-0.00191317
0.000137045
-0.00217812
0.000180898
-0.0022831
0.000201203
-0.00231773
0.000188358
-0.00231456
0.000162864
-0.00230272
0.000133912
-0.0022981
0.000107439
-0.00230461
8.47284e-05
-0.00232223
6.43441e-05
-0.00234867
4.56216e-05
-0.0023813
2.85157e-05
-0.00242068
1.33619e-05
-0.00246682
-7.14587e-07
-0.00251947
-1.26305e-05
-0.00257852
-2.2473e-05
-0.00264226
-2.91353e-05
-0.00270675
-3.04961e-05
-0.00276508
-2.33549e-05
-0.00280655
-3.51426e-06
-0.00281883
3.72163e-05
-0.00278869
0.00010767
-0.00269251
0.000216577
-0.00249712
0.000380149
-0.00217546
0.000619448
-0.00171396
0.000933726
-0.00108933
0.00123223
-0.000120004
0.00118505
0.00117212
0.000556617
0.00156781
-0.000612107
-0.00218594
-0.00797412
-0.0108292
-0.00570427
-0.0042416
-0.00382188
-0.00374564
-0.00377474
-0.00380511
-0.00378675
-0.00370601
-0.00356878
-0.00338858
-0.00318883
-0.00300257
-0.00284233
-0.00271145
-0.00260737
-0.00252625
-0.00246569
-0.00242396
-0.0023994
-0.00239001
-0.00239468
-0.00241121
-0.00243753
-0.00247043
-0.00250461
-0.00253154
-0.00253852
-0.00250464
-0.00240019
-0.0021867
-0.00180952
-0.00119294
-0.000262012
0.000967435
0.00214959
0.00270314
0.00208774
)
;

boundaryField
{
    floor
    {
        type            calculated;
        value           nonuniform List<scalar> 
29
(
0
0
0
0
0
0
0
0
0
0
0
0
0
0
0
0
0
0
0
0
-4.05409e-06
-1.03053e-05
-1.55807e-05
-2.03034e-05
-1.69014e-06
-3.02812e-06
-8.8248e-06
-9.65825e-06
-8.51288e-06
)
;
    }
    ceiling
    {
        type            calculated;
        value           nonuniform List<scalar> 
43
(
-4.66525e-05
-4.53755e-05
-4.41052e-05
-2.30743e-05
-1.43675e-05
-9.53691e-06
-6.44928e-06
-4.1843e-06
-2.49365e-06
-1.2273e-06
-1.87156e-07
6.96161e-07
1.4559e-06
2.0991e-06
2.62173e-06
3.03507e-06
3.35868e-06
3.60606e-06
3.78346e-06
3.89655e-06
3.95488e-06
3.96997e-06
3.95191e-06
3.90696e-06
3.84478e-06
3.76814e-06
3.67888e-06
3.57812e-06
3.46619e-06
3.34185e-06
3.21402e-06
3.08908e-06
2.97221e-06
2.87065e-06
2.79778e-06
2.78854e-06
2.88992e-06
3.06613e-06
3.29614e-06
4.30893e-06
1.01077e-05
7.08033e-06
-5.63054e-05
)
;
    }
    sWall
    {
        type            calculated;
        value           uniform -0.000271212;
    }
    nWall
    {
        type            calculated;
        value           nonuniform List<scalar> 6(-4.88876e-05 -5.84638e-05 -6.28401e-05 -7.54e-05 -8.2781e-05 -0.00010251);
    }
    sideWalls
    {
        type            empty;
        value           nonuniform 0();
    }
    glass1
    {
        type            calculated;
        value           nonuniform List<scalar> 9(-5.74844e-05 -0.000154884 -0.000236943 -0.00030679 -0.000366078 -0.000416044 -0.00046069 -0.000514733 -0.000575225);
    }
    glass2
    {
        type            calculated;
        value           nonuniform List<scalar> 2(-0.000260167 -0.000288363);
    }
    sun
    {
        type            calculated;
        value           uniform 0;
    }
    heatsource1
    {
        type            calculated;
        value           nonuniform List<scalar> 3(2.04246e-07 2.04179e-07 2.04196e-07);
    }
    heatsource2
    {
        type            calculated;
        value           nonuniform List<scalar> 4(5.12033e-08 5.12895e-08 0 0);
    }
    Table_master
    {
        type            calculated;
        value           nonuniform List<scalar> 9(-1.53177e-07 -1.53267e-07 -1.53299e-07 -1.53321e-07 -1.53337e-07 -1.53348e-07 -1.53353e-07 -1.53349e-07 -1.5332e-07);
    }
    Table_slave
    {
        type            calculated;
        value           nonuniform List<scalar> 9(1.53052e-07 1.53069e-07 1.53047e-07 1.53028e-07 1.5302e-07 1.53023e-07 1.53037e-07 1.53079e-07 1.53161e-07);
    }
    inlet
    {
        type            calculated;
        value           uniform -0.00662708;
    }
    outlet
    {
        type            calculated;
        value           nonuniform List<scalar> 2(0.00829199 0.00290045);
    }
}


// ************************************************************************* //
