// -*- C++ -*-
// File generated by PyFoam - sorry for the ugliness

FoamFile
{
 version 2.0;
 format ascii;
 class volScalarField;
 location "200";
 object T;
}

dimensions [ 0 0 0 1 0 0 0 ];

internalField nonuniform List<scalar> 459
(
  302.256
  301.891
  301.889
  301.904
  301.917
  301.928
  301.937
  301.945
  301.952
  301.958
  301.959
  301.957
  301.951
  301.941
  301.929
  300.632
  300.62
  300.624
  300.583
  300.542
  300.543
  300.557
  300.557
  300.527
  300.513
  300.508
  300.51
  300.519
  300.539
  300.583
  300.656
  300.703
  300.693
  300.688
  302.527
  301.986
  301.953
  301.972
  301.993
  302.013
  302.03
  302.044
  302.055
  302.063
  302.063
  302.053
  302.032
  301.997
  301.947
  301.891
  301.723
  300.732
  300.761
  300.791
  300.823
  300.819
  300.726
  300.666
  300.628
  300.626
  300.628
  300.643
  300.671
  300.717
  300.795
  300.902
  301.015
  300.997
  300.856
  300.736
  302.773
  302.097
  302.028
  302.05
  302.082
  302.112
  302.139
  302.162
  302.18
  302.192
  302.192
  302.178
  302.145
  302.091
  302.016
  301.926
  301.845
  301.198
  301.14
  301.157
  301.212
  301.267
  301.307
  300.867
  300.718
  300.787
  300.856
  300.923
  300.992
  301.064
  301.143
  301.234
  301.318
  301.187
  301.121
  301.068
  302.998
  302.216
  302.106
  302.127
  302.171
  302.214
  302.255
  302.292
  302.321
  302.34
  302.345
  302.331
  302.294
  302.232
  302.142
  302.024
  301.882
  301.754
  301.643
  301.664
  301.75
  301.856
  301.946
  302.005
  302.048
  302.054
  302.059
  302.063
  302.067
  302.071
  302.075
  302.076
  302.048
  301.933
  301.872
  301.841
  301.836
  303.203
  302.342
  302.192
  302.201
  302.254
  302.31
  302.366
  302.419
  302.463
  302.496
  302.511
  302.505
  302.477
  302.427
  302.358
  302.276
  302.192
  302.12
  302.069
  302.06
  302.081
  302.11
  302.131
  302.145
  302.152
  302.156
  302.161
  302.168
  302.178
  302.19
  302.204
  302.218
  302.229
  302.231
  302.249
  302.281
  302.315
  302.353
  302.336
  302.334
  303.38
  302.481
  302.307
  302.282
  302.332
  302.397
  302.466
  302.534
  302.596
  302.645
  302.672
  302.676
  302.656
  302.615
  302.555
  302.483
  302.41
  302.345
  302.297
  302.269
  302.257
  302.252
  302.249
  302.245
  302.241
  302.239
  302.24
  302.247
  302.261
  302.282
  302.308
  302.337
  302.369
  302.402
  302.437
  302.47
  302.497
  302.508
  302.428
  302.373
  303.529
  302.684
  302.53
  302.449
  302.445
  302.495
  302.563
  302.638
  302.718
  302.779
  302.816
  302.831
  302.824
  302.795
  302.746
  302.682
  302.612
  302.545
  302.49
  302.447
  302.415
  302.391
  302.372
  302.354
  302.338
  302.325
  302.315
  302.315
  302.326
  302.35
  302.384
  302.422
  302.459
  302.493
  302.522
  302.545
  302.56
  302.561
  302.531
  302.39
  303.769
  303.128
  303.015
  302.88
  302.763
  302.722
  302.739
  302.787
  302.856
  302.91
  302.945
  302.965
  302.969
  302.957
  302.925
  302.873
  302.81
  302.745
  302.685
  302.632
  302.586
  302.548
  302.515
  302.485
  302.456
  302.428
  302.402
  302.383
  302.377
  302.388
  302.415
  302.45
  302.487
  302.521
  302.55
  302.575
  302.598
  302.625
  302.655
  302.697
  304.098
  303.837
  303.819
  303.624
  303.398
  303.249
  303.167
  303.128
  303.105
  303.096
  303.098
  303.102
  303.103
  303.096
  303.078
  303.045
  302.999
  302.944
  302.885
  302.828
  302.775
  302.727
  302.683
  302.642
  302.602
  302.561
  302.521
  302.482
  302.45
  302.431
  302.427
  302.437
  302.455
  302.471
  302.479
  302.484
  302.502
  302.532
  302.578
  302.703
  305.267
  303.91
  303.613
  303.469
  303.386
  303.339
  303.311
  303.291
  303.277
  303.265
  303.253
  303.239
  303.221
  303.196
  303.163
  303.121
  303.074
  303.022
  302.969
  302.918
  302.868
  302.819
  302.772
  302.724
  302.676
  302.626
  302.578
  302.534
  302.499
  302.478
  302.468
  302.466
  302.464
  302.461
  302.464
  302.475
  302.497
  302.551
  304.891
  304.068
  303.799
  303.657
  303.575
  303.524
  303.491
  303.468
  303.446
  303.426
  303.406
  303.385
  303.363
  303.337
  303.309
  303.276
  303.239
  303.198
  303.154
  303.107
  303.059
  303.01
  302.96
  302.91
  302.859
  302.806
  302.751
  302.694
  302.639
  302.592
  302.556
  302.531
  302.514
  302.503
  302.499
  302.503
  302.515
  302.566
  304.821
  304.799
  304.821
  304.33
  304.055
  303.897
  303.804
  303.741
  303.696
  303.66
  303.627
  303.596
  303.566
  303.537
  303.507
  303.478
  303.448
  303.418
  303.387
  303.355
  303.322
  303.288
  303.252
  303.214
  303.175
  303.134
  303.091
  303.046
  302.998
  302.945
  302.887
  302.826
  302.768
  302.717
  302.677
  302.647
  302.622
  302.599
  302.579
  302.597
)
;

boundaryField
{
  floor
  {
    type wallHeatTransfer;
    Tinf uniform 305.2;
    alphaWall uniform 0.24;
    value nonuniform List<scalar> 29
(
  302.34
  301.627
  301.563
  301.553
  301.648
  301.795
  301.875
  301.903
  301.904
  301.859
  301.79
  301.714
  301.645
  301.589
  301.549
  301.52
  301.515
  301.522
  301.525
  301.587
  301.587
  301.498
  301.654
  302.189
  302.34
  301.627
  301.539
  301.682
  302.099
)
;
  }
  ceiling
  {
    type wallHeatTransfer;
    Tinf uniform 303.2;
    alphaWall uniform 0.24;
    value nonuniform List<scalar> 43
(
  304.739
  304.731
  304.765
  304.289
  304.018
  303.862
  303.77
  303.709
  303.663
  303.627
  303.595
  303.564
  303.535
  303.506
  303.478
  303.45
  303.422
  303.394
  303.366
  303.337
  303.308
  303.277
  303.245
  303.212
  303.178
  303.143
  303.105
  303.065
  303.023
  302.975
  302.922
  302.866
  302.811
  302.764
  302.727
  302.7
  302.678
  302.659
  302.641
  302.66
  304.06
  303.814
  304.844
)
;
  }
  sWall
  {
    type wallHeatTransfer;
    Tinf uniform 315.2;
    alphaWall uniform 0.36;
    value uniform 305.594;
  }
  nWall
  {
    type wallHeatTransfer;
    Tinf uniform 307.2;
    alphaWall uniform 0.36;
    value nonuniform List<scalar> 6
(
  303.038
  303.051
  303.076
  303.076
  303.143
  303.284
)
;
  }
  sideWalls
  {
    type empty;
  }
  glass1
  {
    type wallHeatTransfer;
    Tinf uniform 315.2;
    alphaWall uniform 4.3;
    value nonuniform List<scalar> 9
(
  311.944
  310.675
  309.923
  309.418
  309.075
  308.824
  308.641
  308.744
  309.028
)
;
  }
  glass2
  {
    type wallHeatTransfer;
    Tinf uniform 307.2;
    alphaWall uniform 4.3;
    value nonuniform List<scalar> 2
(
  305.493
  305.4
)
;
  }
  sun
  {
    type wallHeatTransfer;
    Tinf uniform 305.2;
    alphaWall uniform 0.24;
    value nonuniform List<scalar> 14
(
  302.667
  302.347
  302.4
  302.403
  302.402
  302.399
  302.396
  302.392
  302.388
  302.383
  302.376
  302.368
  302.359
  302.349
)
;
  }
  heatsource1
  {
    type fixedGradient;
    gradient uniform 0;
  }
  heatsource2
  {
    type fixedGradient;
    gradient uniform 0;
  }
  Table_master
  {
    type zeroGradient;
  }
  Table_slave
  {
    type zeroGradient;
  }
  inlet
  {
    type fixedValue;
    value uniform 293.15;
  }
  outlet
  {
    type zeroGradient;
  }
} 	// ************************************************************************* //

