// -*- C++ -*-
// File generated by PyFoam - sorry for the ugliness

FoamFile
{
 version 2.0;
 format ascii;
 class volScalarField;
 location "300";
 object T;
}

dimensions [ 0 0 0 1 0 0 0 ];

internalField nonuniform List<scalar> 459
(
  302.928
  302.644
  302.636
  302.637
  302.638
  302.637
  302.637
  302.635
  302.632
  302.625
  302.615
  302.603
  302.592
  302.585
  302.583
  301.748
  301.749
  301.758
  301.723
  301.67
  301.629
  301.597
  301.567
  301.539
  301.515
  301.496
  301.482
  301.474
  301.472
  301.476
  301.475
  301.493
  301.489
  301.445
  303.132
  302.682
  302.666
  302.675
  302.683
  302.69
  302.694
  302.696
  302.691
  302.677
  302.654
  302.628
  302.606
  302.59
  302.576
  302.555
  302.482
  301.791
  301.959
  302.083
  302.079
  302.04
  301.99
  301.932
  301.878
  301.825
  301.776
  301.734
  301.697
  301.67
  301.653
  301.645
  301.63
  301.633
  301.594
  301.476
  303.342
  302.729
  302.699
  302.718
  302.739
  302.757
  302.77
  302.777
  302.771
  302.746
  302.704
  302.659
  302.623
  302.602
  302.591
  302.578
  302.547
  302.12
  302.197
  302.232
  302.252
  302.256
  302.25
  302.223
  302.193
  302.159
  302.122
  302.082
  302.042
  302.002
  301.962
  301.919
  301.893
  301.845
  301.73
  301.512
  303.55
  302.787
  302.73
  302.758
  302.793
  302.827
  302.855
  302.87
  302.864
  302.824
  302.757
  302.686
  302.635
  302.609
  302.602
  302.598
  302.587
  302.591
  302.567
  302.549
  302.531
  302.513
  302.496
  302.48
  302.482
  302.486
  302.493
  302.502
  302.513
  302.523
  302.53
  302.53
  302.524
  302.431
  302.312
  301.986
  301.627
  303.749
  302.86
  302.759
  302.785
  302.831
  302.88
  302.926
  302.957
  302.955
  302.897
  302.8
  302.705
  302.64
  302.611
  302.608
  302.612
  302.613
  302.612
  302.608
  302.601
  302.592
  302.581
  302.57
  302.561
  302.561
  302.565
  302.575
  302.588
  302.602
  302.614
  302.62
  302.617
  302.599
  302.551
  302.458
  302.264
  302.132
  302.139
  302.145
  302.222
  303.924
  302.954
  302.803
  302.802
  302.845
  302.898
  302.957
  303.016
  303.025
  302.946
  302.822
  302.71
  302.638
  302.61
  302.612
  302.625
  302.633
  302.635
  302.633
  302.63
  302.624
  302.618
  302.613
  302.611
  302.616
  302.625
  302.64
  302.656
  302.67
  302.679
  302.68
  302.674
  302.654
  302.616
  302.553
  302.449
  302.367
  302.33
  302.286
  302.294
  304.066
  303.112
  302.937
  302.874
  302.88
  302.915
  302.97
  303.055
  303.054
  302.958
  302.818
  302.695
  302.623
  302.602
  302.616
  302.64
  302.656
  302.662
  302.663
  302.661
  302.658
  302.657
  302.657
  302.661
  302.671
  302.684
  302.699
  302.712
  302.72
  302.72
  302.714
  302.702
  302.683
  302.652
  302.607
  302.547
  302.495
  302.453
  302.399
  302.363
  304.292
  303.577
  303.368
  303.201
  303.106
  303.078
  303.115
  303.139
  303.073
  302.923
  302.758
  302.64
  302.587
  302.59
  302.625
  302.664
  302.688
  302.697
  302.698
  302.699
  302.7
  302.702
  302.708
  302.717
  302.727
  302.738
  302.747
  302.75
  302.747
  302.738
  302.725
  302.71
  302.692
  302.67
  302.636
  302.598
  302.565
  302.53
  302.481
  302.563
  304.609
  304.292
  304.018
  303.766
  303.573
  303.447
  303.366
  303.226
  303.011
  302.776
  302.608
  302.535
  302.539
  302.588
  302.653
  302.707
  302.728
  302.736
  302.739
  302.742
  302.745
  302.751
  302.759
  302.768
  302.776
  302.78
  302.779
  302.773
  302.763
  302.75
  302.735
  302.722
  302.711
  302.705
  302.702
  302.703
  302.711
  302.725
  302.741
  302.807
  297.86
  300.424
  301.701
  302.162
  302.303
  302.342
  302.324
  302.288
  302.329
  302.423
  302.531
  302.637
  302.724
  302.759
  302.773
  302.778
  302.782
  302.786
  302.79
  302.796
  302.802
  302.808
  302.812
  302.813
  302.81
  302.802
  302.792
  302.779
  302.767
  302.757
  302.748
  302.743
  302.742
  302.747
  302.761
  302.785
  302.825
  302.892
  298.266
  300.386
  301.25
  301.678
  301.876
  301.948
  301.999
  302.102
  302.338
  302.536
  302.696
  302.76
  302.793
  302.808
  302.815
  302.819
  302.822
  302.826
  302.829
  302.833
  302.837
  302.84
  302.841
  302.842
  302.839
  302.835
  302.827
  302.817
  302.805
  302.792
  302.78
  302.77
  302.765
  302.766
  302.775
  302.795
  302.819
  302.873
  299.531
  299.474
  299.469
  300.83
  301.375
  301.668
  301.831
  301.882
  301.927
  302.193
  302.724
  302.817
  302.839
  302.85
  302.859
  302.866
  302.87
  302.872
  302.874
  302.875
  302.876
  302.876
  302.877
  302.877
  302.877
  302.876
  302.875
  302.873
  302.869
  302.863
  302.853
  302.841
  302.825
  302.809
  302.798
  302.794
  302.796
  302.805
  302.817
  302.865
)
;

boundaryField
{
  floor
  {
    type wallHeatTransfer;
    Tinf uniform 305.2;
    alphaWall uniform 0.24;
    value nonuniform List<scalar> 29
(
  302.884
  302.539
  302.479
  302.462
  302.435
  302.411
  302.394
  302.379
  302.367
  302.362
  302.37
  302.394
  302.435
  302.491
  302.542
  302.548
  302.477
  302.29
  302.076
  302.141
  302.141
  302.049
  302.023
  302.084
  302.884
  302.539
  302.497
  302.585
  302.872
)
;
  }
  ceiling
  {
    type wallHeatTransfer;
    Tinf uniform 303.2;
    alphaWall uniform 0.24;
    value nonuniform List<scalar> 43
(
  299.767
  299.704
  299.693
  300.966
  301.487
  301.769
  301.93
  301.987
  302.04
  302.297
  302.787
  302.87
  302.889
  302.898
  302.907
  302.914
  302.918
  302.92
  302.922
  302.923
  302.923
  302.923
  302.923
  302.923
  302.922
  302.921
  302.919
  302.916
  302.912
  302.905
  302.894
  302.88
  302.864
  302.846
  302.833
  302.828
  302.83
  302.839
  302.852
  302.898
  304.543
  304.248
  298.55
)
;
  }
  sWall
  {
    type wallHeatTransfer;
    Tinf uniform 315.2;
    alphaWall uniform 0.36;
    value uniform 300.999;
  }
  nWall
  {
    type wallHeatTransfer;
    Tinf uniform 307.2;
    alphaWall uniform 0.36;
    value nonuniform List<scalar> 6
(
  303.06
  302.983
  302.959
  303.459
  303.433
  303.473
)
;
  }
  sideWalls
  {
    type empty;
  }
  glass1
  {
    type wallHeatTransfer;
    Tinf uniform 315.2;
    alphaWall uniform 4.3;
    value nonuniform List<scalar> 9
(
  311.71
  311.005
  310.547
  310.183
  309.877
  309.603
  309.359
  309.403
  309.613
)
;
  }
  glass2
  {
    type wallHeatTransfer;
    Tinf uniform 307.2;
    alphaWall uniform 4.3;
    value nonuniform List<scalar> 2
(
  305.388
  305.533
)
;
  }
  sun
  {
    type wallHeatTransfer;
    Tinf uniform 305.2;
    alphaWall uniform 0.24;
    value nonuniform List<scalar> 14
(
  303.202
  302.937
  302.929
  302.921
  302.914
  302.907
  302.901
  302.895
  302.887
  302.878
  302.869
  302.863
  302.861
  302.868
)
;
  }
  heatsource1
  {
    type fixedGradient;
    gradient uniform 0;
  }
  heatsource2
  {
    type fixedGradient;
    gradient uniform 0;
  }
  Table_master
  {
    type zeroGradient;
  }
  Table_slave
  {
    type zeroGradient;
  }
  inlet
  {
    type fixedValue;
    value uniform 293.15;
  }
  outlet
  {
    type zeroGradient;
  }
} 	// ************************************************************************* //

