// -*- C++ -*-
// File generated by PyFoam - sorry for the ugliness

FoamFile
{
 version 2.0;
 format ascii;
 class volScalarField;
 location "600";
 object T;
}

dimensions [ 0 0 0 1 0 0 0 ];

internalField nonuniform List<scalar> 459
(
  303.04
  302.785
  302.766
  302.758
  302.751
  302.745
  302.744
  302.763
  302.852
  302.897
  302.931
  302.954
  302.973
  302.992
  303.018
  304.131
  304.04
  303.966
  303.907
  303.888
  303.907
  303.941
  303.982
  304.025
  304.07
  304.119
  304.169
  304.221
  304.276
  304.336
  304.401
  304.46
  304.486
  304.511
  303.186
  302.807
  302.765
  302.751
  302.74
  302.722
  302.707
  302.737
  302.838
  302.916
  302.972
  303.006
  303.023
  303.031
  303.036
  303.051
  303.077
  304.17
  304.071
  303.874
  303.799
  303.792
  303.815
  303.85
  303.896
  303.949
  304.013
  304.089
  304.169
  304.243
  304.316
  304.385
  304.444
  304.489
  304.507
  304.528
  303.346
  302.851
  302.793
  302.779
  302.765
  302.721
  302.675
  302.71
  302.83
  302.946
  303.03
  303.077
  303.092
  303.093
  303.085
  303.085
  303.094
  304.159
  303.905
  303.741
  303.69
  303.713
  303.762
  303.796
  303.847
  303.914
  304.008
  304.142
  304.298
  304.418
  304.482
  304.513
  304.523
  304.533
  304.535
  304.547
  303.513
  302.919
  302.847
  302.843
  302.832
  302.739
  302.646
  302.683
  302.825
  302.986
  303.107
  303.171
  303.188
  303.178
  303.156
  303.137
  303.124
  303.148
  303.346
  303.392
  303.461
  303.559
  303.671
  303.774
  303.856
  303.916
  303.968
  304.018
  304.067
  304.115
  304.162
  304.209
  304.258
  304.386
  304.476
  304.522
  304.55
  303.682
  303.012
  302.931
  302.944
  302.928
  302.755
  302.62
  302.656
  302.829
  303.042
  303.207
  303.294
  303.313
  303.291
  303.252
  303.218
  303.196
  303.213
  303.277
  303.366
  303.494
  303.642
  303.789
  303.917
  304.023
  304.103
  304.171
  304.23
  304.279
  304.321
  304.356
  304.383
  304.402
  304.434
  304.48
  304.519
  304.548
  304.565
  304.6
  304.723
  303.846
  303.135
  303.055
  303.099
  302.997
  302.749
  302.585
  302.633
  302.853
  303.129
  303.344
  303.452
  303.472
  303.434
  303.381
  303.339
  303.322
  303.356
  303.444
  303.573
  303.727
  303.886
  304.031
  304.152
  304.248
  304.324
  304.383
  304.429
  304.467
  304.499
  304.522
  304.536
  304.538
  304.531
  304.535
  304.547
  304.563
  304.582
  304.607
  304.659
  304.02
  303.315
  303.251
  303.264
  303.016
  302.675
  302.508
  302.614
  302.915
  303.271
  303.534
  303.653
  303.664
  303.611
  303.555
  303.524
  303.537
  303.614
  303.745
  303.898
  304.056
  304.203
  304.327
  304.424
  304.5
  304.552
  304.59
  304.62
  304.645
  304.665
  304.678
  304.681
  304.672
  304.65
  304.631
  304.624
  304.629
  304.645
  304.655
  304.681
  304.247
  303.728
  303.65
  303.41
  302.883
  302.452
  302.371
  302.629
  303.062
  303.512
  303.805
  303.898
  303.883
  303.84
  303.808
  303.808
  303.861
  303.977
  304.129
  304.286
  304.424
  304.541
  304.63
  304.694
  304.734
  304.76
  304.781
  304.798
  304.813
  304.823
  304.828
  304.824
  304.812
  304.793
  304.778
  304.778
  304.79
  304.796
  304.786
  304.805
  304.582
  304.321
  304.088
  303.145
  302.209
  301.917
  302.214
  302.809
  303.408
  303.936
  304.126
  304.166
  304.155
  304.143
  304.149
  304.189
  304.271
  304.393
  304.531
  304.659
  304.763
  304.839
  304.891
  304.923
  304.942
  304.954
  304.964
  304.972
  304.978
  304.981
  304.979
  304.974
  304.966
  304.962
  304.976
  305.017
  305.092
  305.187
  305.292
  305.444
  295.343
  296.351
  298.885
  301.024
  302.614
  303.73
  304.176
  304.381
  304.449
  304.472
  304.485
  304.505
  304.543
  304.605
  304.69
  304.791
  304.892
  304.979
  305.045
  305.089
  305.117
  305.132
  305.14
  305.144
  305.146
  305.146
  305.143
  305.137
  305.126
  305.112
  305.098
  305.09
  305.095
  305.124
  305.18
  305.261
  305.401
  305.564
  296.36
  299.318
  301.931
  303.352
  304.114
  304.504
  304.665
  304.742
  304.785
  304.817
  304.849
  304.887
  304.935
  304.994
  305.061
  305.13
  305.194
  305.244
  305.28
  305.303
  305.315
  305.32
  305.321
  305.318
  305.313
  305.305
  305.294
  305.279
  305.261
  305.241
  305.222
  305.206
  305.199
  305.206
  305.241
  305.319
  305.437
  305.557
  304.068
  302.056
  301.596
  303.64
  304.48
  304.798
  304.955
  305.05
  305.111
  305.157
  305.196
  305.232
  305.266
  305.3
  305.335
  305.372
  305.408
  305.44
  305.467
  305.486
  305.497
  305.502
  305.501
  305.497
  305.489
  305.479
  305.467
  305.452
  305.436
  305.417
  305.397
  305.377
  305.357
  305.341
  305.33
  305.332
  305.369
  305.478
  305.648
  305.923
)
;

boundaryField
{
  floor
  {
    type wallHeatTransfer;
    Tinf uniform 305.2;
    alphaWall uniform 0.24;
    value nonuniform List<scalar> 29
(
  303.234
  304.316
  304.221
  304.141
  304.076
  304.051
  304.067
  304.106
  304.152
  304.198
  304.246
  304.295
  304.345
  304.395
  304.447
  304.503
  304.565
  304.625
  304.663
  304.691
  304.691
  304.687
  304.697
  304.692
  303.234
  304.316
  304.352
  304.342
  303.344
)
;
  }
  ceiling
  {
    type wallHeatTransfer;
    Tinf uniform 303.2;
    alphaWall uniform 0.24;
    value nonuniform List<scalar> 43
(
  304.009
  302.131
  301.698
  303.614
  304.399
  304.69
  304.829
  304.909
  304.959
  304.997
  305.031
  305.063
  305.094
  305.126
  305.159
  305.193
  305.225
  305.254
  305.276
  305.29
  305.298
  305.299
  305.296
  305.29
  305.281
  305.269
  305.256
  305.24
  305.223
  305.203
  305.181
  305.159
  305.137
  305.119
  305.106
  305.105
  305.134
  305.231
  305.39
  305.645
  304.52
  304.276
  296.816
)
;
  }
  sWall
  {
    type wallHeatTransfer;
    Tinf uniform 315.2;
    alphaWall uniform 0.36;
    value uniform 305.187;
  }
  nWall
  {
    type wallHeatTransfer;
    Tinf uniform 307.2;
    alphaWall uniform 0.36;
    value nonuniform List<scalar> 6
(
  305.292
  305.162
  305.1
  305.793
  305.768
  306.109
)
;
  }
  sideWalls
  {
    type empty;
  }
  glass1
  {
    type wallHeatTransfer;
    Tinf uniform 315.2;
    alphaWall uniform 4.3;
    value nonuniform List<scalar> 9
(
  310.77
  310.221
  309.868
  309.598
  309.376
  309.187
  309.104
  309.214
  309.475
)
;
  }
  glass2
  {
    type wallHeatTransfer;
    Tinf uniform 307.2;
    alphaWall uniform 4.3;
    value nonuniform List<scalar> 2
(
  306.477
  306.624
)
;
  }
  sun
  {
    type wallHeatTransfer;
    Tinf uniform 305.2;
    alphaWall uniform 0.24;
    value nonuniform List<scalar> 14
(
  303.228
  302.978
  302.954
  302.937
  302.922
  302.909
  302.904
  302.92
  303.009
  303.059
  303.099
  303.132
  303.162
  303.193
)
;
  }
  heatsource1
  {
    type fixedGradient;
    gradient uniform 0;
  }
  heatsource2
  {
    type fixedGradient;
    gradient uniform 0;
  }
  Table_master
  {
    type zeroGradient;
  }
  Table_slave
  {
    type zeroGradient;
  }
  inlet
  {
    type fixedValue;
    value uniform 293.15;
  }
  outlet
  {
    type zeroGradient;
  }
} 	// ************************************************************************* //

