/*--------------------------------*- C++ -*----------------------------------*\
  =========                 |
  \\      /  F ield         | OpenFOAM: The Open Source CFD Toolbox
   \\    /   O peration     | Website:  https://openfoam.org
    \\  /    A nd           | Version:  6
     \\/     M anipulation  |
\*---------------------------------------------------------------------------*/
FoamFile
{
    version     2.0;
    format      ascii;
    class       volScalarField;
    location    "200";
    object      alphat;
}
// * * * * * * * * * * * * * * * * * * * * * * * * * * * * * * * * * * * * * //

dimensions      [1 -1 -1 0 0 0 0];

internalField   nonuniform List<scalar> 
459
(
0.000860781
0.000873744
0.000745179
0.000765092
0.000793763
0.000822466
0.000850571
0.00087849
0.000907227
0.00093637
0.000961316
0.000980648
0.000993443
0.000999083
0.000992258
0.000443651
0.00048525
0.000496522
0.000404574
0.000311811
0.0002794
0.000272845
0.000272334
0.00028129
0.000304797
0.000337607
0.000373842
0.000410679
0.000447388
0.000496742
0.000553097
0.000585054
0.000574075
0.000510193
0.00155508
0.00283386
0.00175069
0.00254136
0.00278361
0.00298351
0.00319182
0.00338895
0.00354762
0.00365168
0.00369171
0.00363005
0.00340514
0.00291756
0.00207476
0.00107845
0.000741054
0.000593121
0.00129578
0.00150427
0.0015276
0.00133812
0.000731365
0.000386108
0.00036117
0.000448086
0.000627428
0.000865986
0.00112353
0.00139459
0.00164749
0.00186025
0.00212031
0.00199953
0.00193047
0.000644847
0.00216066
0.00500682
0.00195307
0.0033678
0.00419391
0.00446902
0.00468146
0.00486204
0.00499675
0.0050799
0.00509105
0.00498372
0.00468551
0.00410296
0.00319074
0.00211215
0.00116916
0.00104533
0.00285615
0.00263134
0.00231816
0.00181883
0.00126922
0.000442623
0.000364125
0.000417152
0.000471418
0.000527352
0.000588006
0.000657036
0.000740347
0.000847539
0.00205296
0.00182924
0.0014484
0.000840842
0.00271337
0.00755657
0.00261231
0.0032804
0.00486555
0.00528494
0.00550999
0.00570232
0.00586624
0.0059889
0.00608526
0.006113
0.00598643
0.00557299
0.00472875
0.00345411
0.00211983
0.00134373
0.00336219
0.00342896
0.00312088
0.00250813
0.00190238
0.00132493
0.000868149
0.00087229
0.000877823
0.000882862
0.000888445
0.000897099
0.000913098
0.000943522
0.00102658
0.00307791
0.00375159
0.0037533
0.00126364
0.00320761
0.0101128
0.00388094
0.00301285
0.00486366
0.00549961
0.00576041
0.0059672
0.0061589
0.00634262
0.00658878
0.00689121
0.00720023
0.00744136
0.00752211
0.00736397
0.00697108
0.0064823
0.00639167
0.00605072
0.00562637
0.00524588
0.00492109
0.00465807
0.00445533
0.00435103
0.00424605
0.0041406
0.00405278
0.0040099
0.004036
0.00414085
0.00432275
0.00457524
0.00472396
0.00465568
0.00402624
0.00171237
0.00152001
0.00132496
0.0036579
0.0122573
0.006025
0.00336163
0.00418133
0.00498821
0.00540512
0.00566853
0.00584958
0.00601665
0.00633471
0.00678648
0.00733659
0.0079231
0.0084519
0.00881077
0.00890266
0.00872158
0.00838063
0.00794668
0.00750998
0.00712617
0.00679833
0.00651028
0.00623646
0.00595943
0.00566961
0.00537773
0.00511271
0.00491591
0.00481881
0.00481949
0.00487794
0.00493104
0.00493566
0.00483244
0.00443476
0.00358816
0.00268785
0.00138185
0.00405573
0.0136817
0.00926515
0.00541104
0.00395237
0.00411944
0.00471192
0.00516291
0.00532966
0.00546964
0.00572969
0.00613
0.0066869
0.00737629
0.00810776
0.00874024
0.00912416
0.00921159
0.00907042
0.0088037
0.00850028
0.00820949
0.00794047
0.00768066
0.00740625
0.00709925
0.00675279
0.00637057
0.00597286
0.005601
0.00529693
0.00507351
0.00490181
0.00474305
0.00453461
0.0042039
0.00368978
0.00304026
0.00239476
0.00135226
0.00410641
0.0130888
0.0108743
0.00889071
0.00660143
0.0052742
0.00501206
0.0052188
0.00527043
0.00527052
0.00533095
0.00548913
0.00578819
0.00627298
0.00694008
0.0076928
0.00830287
0.00865607
0.00878417
0.00875782
0.00865429
0.00852976
0.00841013
0.00829671
0.00817413
0.00802241
0.00782393
0.00756692
0.00725047
0.00690323
0.00655787
0.00617744
0.00575463
0.00528222
0.00477882
0.00427578
0.00380576
0.0033339
0.00290517
0.00170675
0.00394101
0.00460933
0.0078254
0.008341
0.00758783
0.00664417
0.00594416
0.00552332
0.0052577
0.00510914
0.00504557
0.00504369
0.00510963
0.00527973
0.00560375
0.00609335
0.00665777
0.0071638
0.00753339
0.00776094
0.00788502
0.00795399
0.00800655
0.00806645
0.00814393
0.00823833
0.00833501
0.00841622
0.00844971
0.00838024
0.00817881
0.00793113
0.0077203
0.00763076
0.00767918
0.00756039
0.00660968
0.00548163
0.00539943
0.00189379
0.0149652
0.0155904
0.00988451
0.0079036
0.00682586
0.00613898
0.00567062
0.00532988
0.00506635
0.00486027
0.00470519
0.00460867
0.00459316
0.00468922
0.00491056
0.0052301
0.00558751
0.00592332
0.00620681
0.00643822
0.00663575
0.00682294
0.0070227
0.00725633
0.00753937
0.00787231
0.0082238
0.00848433
0.00857624
0.00852257
0.00838646
0.00824655
0.00814286
0.00800913
0.0075391
0.00651633
0.00595063
0.00184688
0.00648584
0.0138562
0.00986418
0.00800497
0.00689374
0.00611632
0.00553673
0.00508207
0.00469255
0.00435103
0.00405865
0.00381654
0.00362779
0.00349913
0.0034399
0.00345734
0.00355027
0.00370589
0.00390297
0.00411938
0.00433923
0.00455635
0.00477538
0.00501277
0.00529537
0.00565373
0.00610189
0.00658883
0.0070039
0.00727808
0.00738913
0.00735823
0.00721477
0.00693969
0.0062913
0.00533487
0.00482399
0.00162589
0.00314656
0.00391188
0.00503741
0.0046505
0.00383732
0.00327908
0.00287008
0.00255336
0.00229834
0.00208699
0.00191136
0.00176283
0.00163462
0.00152259
0.00142415
0.00133768
0.00126219
0.00119703
0.00114171
0.00109575
0.00105852
0.0010293
0.0010073
0.000991891
0.000982724
0.000980004
0.000984758
0.000999036
0.00102566
0.00107175
0.00114211
0.00122893
0.00131508
0.00138163
0.00141575
0.0014113
0.0013884
0.00135241
0.00134588
0.00126977
)
;

boundaryField
{
    floor
    {
        type            compressible::alphatWallFunction;
        Prt             0.85;
        value           nonuniform List<scalar> 
29
(
0.000141141
6.04284e-05
6.68553e-05
6.85843e-05
5.4317e-05
3.94919e-05
3.41818e-05
3.30984e-05
3.30119e-05
3.44892e-05
3.83439e-05
4.36597e-05
4.94529e-05
5.52685e-05
6.09994e-05
6.86129e-05
7.71937e-05
8.20112e-05
8.03589e-05
7.06762e-05
7.06753e-05
9.09319e-05
0.000119546
0.000178839
0.000141139
6.04276e-05
8.32217e-05
0.000148555
0.000189772
)
;
    }
    ceiling
    {
        type            compressible::alphatWallFunction;
        Prt             0.85;
        value           nonuniform List<scalar> 
43
(
0.000422926
0.000516858
0.000651731
0.000605712
0.000507736
0.00043927
0.00038835
0.0003484
0.000315851
0.000288583
0.000265696
0.000246162
0.000229155
0.000214172
0.000200904
0.000189166
0.000178846
0.000169882
0.000162228
0.000155835
0.000150635
0.000146536
0.000143443
0.000141271
0.000139977
0.000139592
0.000140262
0.000142275
0.000146019
0.000152474
0.000162268
0.000174258
0.00018606
0.000195116
0.00019974
0.000199136
0.000196031
0.00019114
0.000190247
0.000179852
0.000520351
0.000600781
0.000821024
)
;
    }
    sWall
    {
        type            compressible::alphatWallFunction;
        Prt             0.85;
        value           uniform 0.000421837;
    }
    nWall
    {
        type            compressible::alphatWallFunction;
        Prt             0.85;
        value           nonuniform List<scalar> 6(0.000187005 0.000194748 0.00019073 0.000256808 0.000227574 0.000179496);
    }
    sideWalls
    {
        type            empty;
    }
    glass1
    {
        type            compressible::alphatWallFunction;
        Prt             0.85;
        value           nonuniform List<scalar> 9(0.000118805 0.000213046 0.00029165 0.000361511 0.000422832 0.000477922 0.000526064 0.000532324 0.000512663);
    }
    glass2
    {
        type            compressible::alphatWallFunction;
        Prt             0.85;
        value           nonuniform List<scalar> 2(0.000236655 0.000261189);
    }
    sun
    {
        type            compressible::alphatWallFunction;
        Prt             0.85;
        value           nonuniform List<scalar> 
14
(
0.000122479
0.000124314
0.00010575
0.000108649
0.000112808
0.000116953
0.000120995
0.000124995
0.000129096
0.00013324
0.000136774
0.000139506
0.00014131
0.000142103
)
;
    }
    heatsource1
    {
        type            compressible::alphatWallFunction;
        Prt             0.85;
        value           nonuniform List<scalar> 3(0.000239474 0.000213818 0.000187427);
    }
    heatsource2
    {
        type            compressible::alphatWallFunction;
        Prt             0.85;
        value           nonuniform List<scalar> 4(0.000153423 0.000105331 0.00010533 0.000166026);
    }
    Table_master
    {
        type            compressible::alphatWallFunction;
        Prt             0.85;
        value           nonuniform List<scalar> 9(6.04949e-05 4.81258e-05 5.65092e-05 6.49484e-05 7.3519e-05 8.26854e-05 9.29768e-05 0.000105224 0.000120741);
    }
    Table_slave
    {
        type            compressible::alphatWallFunction;
        Prt             0.85;
        value           nonuniform List<scalar> 9(0.000123703 0.000124296 0.000125088 0.000125809 0.000126607 0.000127843 0.000130123 0.000134446 0.000146163);
    }
    inlet
    {
        type            fixedValue;
        value           uniform 1.94e-05;
    }
    outlet
    {
        type            zeroGradient;
    }
}


// ************************************************************************* //
