/*--------------------------------*- C++ -*----------------------------------*\
  =========                 |
  \\      /  F ield         | OpenFOAM: The Open Source CFD Toolbox
   \\    /   O peration     | Website:  https://openfoam.org
    \\  /    A nd           | Version:  6
     \\/     M anipulation  |
\*---------------------------------------------------------------------------*/
FoamFile
{
    version     2.0;
    format      ascii;
    class       volScalarField;
    location    "200";
    object      nut;
}
// * * * * * * * * * * * * * * * * * * * * * * * * * * * * * * * * * * * * * //

dimensions      [0 2 -1 0 0 0 0];

internalField   nonuniform List<scalar> 
459
(
0.000738742
0.000748961
0.000638753
0.000655854
0.000680461
0.000705092
0.000729209
0.000753164
0.000777819
0.00080282
0.000824213
0.000840781
0.000851734
0.000856541
0.000850655
0.000378706
0.000414198
0.000423825
0.000345293
0.000266085
0.000238427
0.000232846
0.000232409
0.000240028
0.000260075
0.000288065
0.000318986
0.000350428
0.000381777
0.000423956
0.000472167
0.000499525
0.000490136
0.000435587
0.00133583
0.00242996
0.00150101
0.00217905
0.00238693
0.00255851
0.0027373
0.0029065
0.00304269
0.00313201
0.00316635
0.00311336
0.00292026
0.00250182
0.00177883
0.000924456
0.000634882
0.000506475
0.00110659
0.00128477
0.00130483
0.00114297
0.00062451
0.000329631
0.000308301
0.000382492
0.000535585
0.000739259
0.000959208
0.0011908
0.00140711
0.00158939
0.00181227
0.00170893
0.00164914
0.000550652
0.00185758
0.00429489
0.00167497
0.00288848
0.00359739
0.00383376
0.00401636
0.00417161
0.00428744
0.00435896
0.00436853
0.00427622
0.00401991
0.00351949
0.00273631
0.0018108
0.00100208
0.000894024
0.00244227
0.00225016
0.00198271
0.00155592
0.0010859
0.000378139
0.000310924
0.000356285
0.000402725
0.000450609
0.000502552
0.000561685
0.000633071
0.00072495
0.00175651
0.00156441
0.00123843
0.000718824
0.00233455
0.0064848
0.00224098
0.0028143
0.00417483
0.00453533
0.0047291
0.00489476
0.00503595
0.00514158
0.00522439
0.00524797
0.00513868
0.0047828
0.00405706
0.00296232
0.00181715
0.00115138
0.00287985
0.00293724
0.00267411
0.00214983
0.0016311
0.00113622
0.000744601
0.000748169
0.000752926
0.000757259
0.000762058
0.000769492
0.000783224
0.000809325
0.000880483
0.00263888
0.00321582
0.00321696
0.00108305
0.00276172
0.00868231
0.0033303
0.00258545
0.00417445
0.00472116
0.00494596
0.0051244
0.0052898
0.00544819
0.00565991
0.00591959
0.00618447
0.00639052
0.00645839
0.0063209
0.005982
0.00556124
0.00548258
0.00518996
0.00482632
0.00450037
0.00422203
0.00399654
0.00382269
0.00373325
0.00364323
0.00355284
0.0034776
0.00344095
0.0034635
0.00355364
0.00370989
0.00392661
0.00405448
0.0039963
0.0034564
0.00147019
0.00130497
0.0011375
0.00315132
0.0105285
0.00517225
0.00288561
0.00358981
0.00428348
0.00464254
0.00486988
0.00502645
0.00517085
0.00544468
0.00583305
0.00630547
0.00680862
0.0072616
0.00756813
0.0076452
0.0074881
0.00719422
0.00682108
0.00644598
0.00611644
0.00583499
0.00558769
0.0053526
0.0051148
0.00486608
0.00461567
0.00438841
0.00421978
0.00413679
0.00413776
0.00418838
0.00423445
0.0042389
0.00415071
0.00380947
0.00308234
0.00230834
0.00118653
0.00349586
0.0117602
0.00795984
0.00464748
0.00339459
0.00353866
0.00404853
0.00443713
0.00458164
0.00470292
0.00492713
0.00527163
0.00575041
0.00634264
0.00697048
0.00751264
0.00784082
0.00791423
0.00779151
0.00756132
0.00729995
0.00704967
0.00681822
0.00659475
0.0063588
0.00609493
0.00579731
0.00546916
0.00512792
0.00480905
0.00454848
0.00435718
0.00421024
0.00407433
0.00389565
0.00361182
0.00317026
0.00261221
0.00205738
0.00116121
0.00354241
0.0112673
0.00935748
0.00764716
0.00567589
0.00453413
0.00430902
0.00448747
0.00453289
0.00453377
0.00458629
0.00472268
0.00498007
0.00539695
0.00597026
0.00661666
0.00713989
0.00744203
0.00755065
0.00752668
0.0074366
0.00732867
0.00722509
0.00712694
0.00702096
0.00689001
0.00671897
0.00649785
0.00622598
0.00592802
0.00563195
0.00530586
0.00494331
0.00453801
0.00410593
0.00367402
0.0032704
0.00286518
0.00249696
0.00146714
0.0034035
0.00397724
0.00675187
0.00719212
0.00653782
0.00572195
0.00511771
0.00475477
0.00452576
0.00439775
0.00434306
0.00434151
0.00439828
0.0045446
0.0048232
0.00524404
0.00572892
0.00616323
0.00647995
0.00667442
0.00677994
0.00683815
0.00688233
0.00693288
0.00699856
0.00707874
0.00716084
0.00722969
0.0072577
0.00719757
0.00702448
0.00681198
0.00663128
0.00655472
0.0065965
0.00649457
0.00567822
0.0047096
0.00463968
0.00162799
0.012974
0.013456
0.0085229
0.00681164
0.00588121
0.00528855
0.00488463
0.00459082
0.00436362
0.00418596
0.00405225
0.00396894
0.00395534
0.00403772
0.00422785
0.00450235
0.00480927
0.00509744
0.00534048
0.00553865
0.00570763
0.0058677
0.00603855
0.00623846
0.00648075
0.00676584
0.0070668
0.0072896
0.00736772
0.0073211
0.00720396
0.00708372
0.00699461
0.00687967
0.00647599
0.00559764
0.00511207
0.0015869
0.00561607
0.0119657
0.0085108
0.00690344
0.00594351
0.00527238
0.00477224
0.00438002
0.00404402
0.00374946
0.00349727
0.00328842
0.00312555
0.00301445
0.00296315
0.00297785
0.00305752
0.0031911
0.00336031
0.00354609
0.00373475
0.00392099
0.00410881
0.00431236
0.0045547
0.00486208
0.00524654
0.00566415
0.00601987
0.00625456
0.00634924
0.00632217
0.00619856
0.005962
0.00540489
0.00458327
0.00414453
0.00139712
0.00272404
0.00338634
0.00436098
0.00401954
0.00331369
0.00283015
0.00247639
0.00220267
0.00198238
0.00179986
0.00164822
0.00151999
0.0014093
0.00131258
0.0012276
0.00115296
0.00108778
0.00103152
0.000983753
0.00094405
0.000911879
0.000886601
0.000867552
0.000854173
0.00084617
0.000843714
0.000847687
0.000859849
0.00088262
0.000922123
0.000982472
0.00105694
0.00113082
0.00118785
0.00121703
0.00121308
0.0011933
0.00116228
0.00115658
0.00109125
)
;

boundaryField
{
    floor
    {
        type            nutkWallFunction;
        Cmu             0.09;
        kappa           0.41;
        E               9.8;
        value           nonuniform List<scalar> 
29
(
0.000102988
4.39896e-05
4.86577e-05
4.99144e-05
3.95435e-05
2.87646e-05
2.49035e-05
2.41164e-05
2.40535e-05
2.51262e-05
2.7928e-05
3.17917e-05
3.60019e-05
4.02284e-05
4.43938e-05
4.99298e-05
5.61732e-05
5.96802e-05
5.84784e-05
5.14428e-05
5.14427e-05
6.61689e-05
8.70378e-05
0.000130441
0.000102988
4.39896e-05
6.05666e-05
0.000108168
0.000138373
)
;
    }
    ceiling
    {
        type            nutkWallFunction;
        Cmu             0.09;
        kappa           0.41;
        E               9.8;
        value           nonuniform List<scalar> 
43
(
0.000311134
0.000380227
0.000479501
0.000444947
0.000372643
0.000322229
0.00028479
0.000255441
0.000231543
0.000211528
0.000194731
0.000180397
0.000167917
0.000156922
0.000147188
0.000138575
0.000131004
0.000124426
0.000118809
0.000114116
0.000110297
0.000107286
0.00010501
0.000103408
0.00010245
0.000102156
0.000102634
0.000104093
0.000106817
0.000111522
0.000118664
0.000127409
0.000136014
0.000142611
0.000145973
0.000145519
0.000143239
0.000139656
0.000138996
0.000131409
0.000381931
0.000440605
0.000604191
)
;
    }
    sWall
    {
        type            nutkWallFunction;
        Cmu             0.09;
        kappa           0.41;
        E               9.8;
        value           uniform 0.0003112;
    }
    nWall
    {
        type            nutkWallFunction;
        Cmu             0.09;
        kappa           0.41;
        E               9.8;
        value           nonuniform List<scalar> 6(0.000136783 0.000142456 0.000139531 0.000187885 0.000166537 0.000131418);
    }
    sideWalls
    {
        type            empty;
    }
    glass1
    {
        type            nutkWallFunction;
        Cmu             0.09;
        kappa           0.41;
        E               9.8;
        value           nonuniform List<scalar> 9(8.9445e-05 0.000159747 0.000218162 0.000269985 0.000315438 0.000356254 0.000391917 0.000396722 0.00038243);
    }
    glass2
    {
        type            nutkWallFunction;
        Cmu             0.09;
        kappa           0.41;
        E               9.8;
        value           nonuniform List<scalar> 2(0.000174513 0.000192551);
    }
    sun
    {
        type            nutkWallFunction;
        Cmu             0.09;
        kappa           0.41;
        E               9.8;
        value           nonuniform List<scalar> 
14
(
8.94672e-05
9.0712e-05
7.71792e-05
7.92961e-05
8.23308e-05
8.53553e-05
8.83046e-05
9.12226e-05
9.42143e-05
9.72366e-05
9.9814e-05
0.000101805
0.000103118
0.000103693
)
;
    }
    heatsource1
    {
        type            nutkWallFunction;
        Cmu             0.09;
        kappa           0.41;
        E               9.8;
        value           nonuniform List<scalar> 3(0.000174763 0.000156031 0.000136772);
    }
    heatsource2
    {
        type            nutkWallFunction;
        Cmu             0.09;
        kappa           0.41;
        E               9.8;
        value           nonuniform List<scalar> 4(0.000111787 7.67033e-05 7.67032e-05 0.000120955);
    }
    Table_master
    {
        type            nutkWallFunction;
        Cmu             0.09;
        kappa           0.41;
        E               9.8;
        value           nonuniform List<scalar> 9(4.393e-05 3.49306e-05 4.10248e-05 4.71623e-05 5.33977e-05 6.00691e-05 6.75619e-05 7.64812e-05 8.77866e-05);
    }
    Table_slave
    {
        type            nutkWallFunction;
        Cmu             0.09;
        kappa           0.41;
        E               9.8;
        value           nonuniform List<scalar> 9(9.01828e-05 9.06172e-05 9.11961e-05 9.1723e-05 9.23062e-05 9.32083e-05 9.48718e-05 9.80238e-05 0.000106557);
    }
    inlet
    {
        type            calculated;
        value           uniform 0.012974;
    }
    outlet
    {
        type            calculated;
        value           nonuniform List<scalar> 2(0.00272404 0.00338634);
    }
}


// ************************************************************************* //
