/*--------------------------------*- C++ -*----------------------------------*\
  =========                 |
  \\      /  F ield         | OpenFOAM: The Open Source CFD Toolbox
   \\    /   O peration     | Website:  https://openfoam.org
    \\  /    A nd           | Version:  6
     \\/     M anipulation  |
\*---------------------------------------------------------------------------*/
FoamFile
{
    version     2.0;
    format      ascii;
    class       surfaceScalarField;
    location    "200";
    object      phi;
}
// * * * * * * * * * * * * * * * * * * * * * * * * * * * * * * * * * * * * * //

dimensions      [1 0 -1 0 0 0 0];

internalField   nonuniform List<scalar> 
852
(
-0.00244422
0.0025128
-0.00248271
3.86914e-05
-0.00254928
6.67709e-05
-0.00270607
0.000156983
-0.00288424
0.000178366
-0.0030439
0.000159851
-0.00316043
0.000116717
-0.00321444
5.42032e-05
-0.0031881
-2.61482e-05
-0.00306288
-0.000125037
-0.00282199
-0.000240701
-0.0024522
-0.000369609
-0.00192475
-0.000527265
-0.00114377
-0.000780795
-0.00114048
-0.000917402
0.00092506
-0.000944169
2.68852e-05
-0.000737648
-0.000206397
-0.000630988
-0.000106525
-0.000628071
-2.77278e-06
-0.00057978
-4.81458e-05
-0.000364549
-0.000215087
-1.65431e-06
-0.00036275
0.000234435
-0.000235942
0.000392481
-0.000157899
0.000512885
-0.000120257
0.000608293
-9.52603e-05
0.000679822
-7.13809e-05
0.000726459
-4.64867e-05
0.000787969
-6.13602e-05
0.000889742
-0.000101623
0.00100943
-0.000119537
0.000938435
7.11602e-05
0.000945412
-0.001754
0.00444013
-0.00222276
0.00050765
-0.00247301
0.000317219
-0.00267915
0.000363321
-0.00287253
0.000371942
-0.00303877
0.000326286
-0.00316193
0.000240065
-0.00322726
0.000119726
-0.00322107
-3.2146e-05
-0.00313137
-0.000214548
-0.00294473
-0.000427157
-0.00264565
-0.000668501
-0.00222473
-0.000947998
-0.00173498
-0.00127037
-0.00131713
-0.00155814
0.000178801
-0.0014958
0.000178938
0.00107127
-0.000127764
0.000898338
0.00019993
0.000405927
0.000286121
0.000113736
0.000185778
-2.3851e-05
0.000134937
-0.00029518
0.000223311
-0.000276447
-0.000233675
-0.000175253
-0.000463794
-0.000150271
-0.000260768
-0.000145393
-0.000162618
-0.000155686
-0.000109801
-0.000179954
-7.08274e-05
-0.000225453
-2.57115e-05
-0.000294262
2.24999e-05
-0.000339151
-1.62888e-05
-0.000205361
-0.000235224
0.00011952
-0.000444223
0.000240166
-4.93023e-05
0.00120306
-0.00128201
0.00597575
-0.0019259
0.00115174
-0.00227815
0.00066967
-0.00252632
0.000611681
-0.00273642
0.000582247
-0.00291223
0.00050229
-0.00304778
0.000375804
-0.00313453
0.000206672
-0.00316389
-2.5911e-06
-0.00313024
-0.000248008
-0.00303301
-0.000524203
-0.0028747
-0.000826621
-0.00267004
-0.00115246
-0.00245876
-0.00148146
-0.00227719
-0.00173953
-0.001952
-0.00182082
-0.00177288
-0.000591235
0.000481944
-0.000742311
0.000351136
-0.000683941
0.000227876
-0.000583412
8.53758e-05
-0.000401402
-4.69451e-05
8.68627e-05
-0.000264813
-0.000146521
-0.000609998
-0.000870433
-0.00103271
-0.00114216
-0.00121263
-0.00123798
-0.00121511
-0.00123104
-0.00120157
-0.000264486
-0.00166073
1.51422e-05
-0.00170268
-7.14179e-06
-0.000477282
-0.000941419
0.00723596
-0.00165122
0.00186174
-0.00203059
0.00104924
-0.0022979
0.000879191
-0.00250624
0.000790784
-0.00267104
0.000667291
-0.00279732
0.000502282
-0.00288462
0.000294168
-0.0029307
4.36834e-05
-0.00293681
-0.000241699
-0.00291729
-0.000543527
-0.00289505
-0.000848672
-0.00290109
-0.00114623
-0.00297174
-0.00141061
-0.0031187
-0.00159238
-0.00332167
-0.00161766
-0.00383777
-0.0012566
-0.00315067
-0.000671551
-0.00250242
-0.000166132
-0.00220946
5.83526e-05
-0.0020284
4.6993e-05
-0.0019208
-2.2044e-05
-0.0018371
-0.000130456
-0.00187453
-0.000227187
-0.0016486
-0.000225893
-0.00140267
-0.000245889
-0.00113999
-0.000262643
-0.000874169
-0.000265778
-0.000620091
-0.000254038
-0.000389903
-0.000230149
-0.000187682
-0.00020218
-6.15591e-06
-0.000181484
0.000167082
-0.000173194
0.000179512
-0.000276716
0.000423538
-0.000228672
0.00052669
-0.000110064
6.82904e-05
-0.000692238
0.00830277
-0.0014321
0.0026018
-0.00175689
0.00137422
-0.00201347
0.00113597
-0.00219781
0.000975329
-0.00232068
0.00079036
-0.00239817
0.000579972
-0.00244047
0.000336668
-0.00245151
5.49215e-05
-0.00243993
-0.000253085
-0.00243102
-0.000552232
-0.00245378
-0.000825715
-0.00253051
-0.00106931
-0.00267107
-0.00126985
-0.00286907
-0.00139418
-0.00310956
-0.00137697
-0.00323774
-0.00112823
-0.00314907
-0.000760018
-0.00287918
-0.000435829
-0.00257916
-0.000241481
-0.00234656
-0.000185409
-0.00216433
-0.000204081
-0.00202669
-0.000267898
-0.00191993
-0.000333753
-0.00176951
-0.00037612
-0.00160342
-0.000411782
-0.00143183
-0.000434032
-0.00126194
-0.000435472
-0.00110234
-0.000413442
-0.000958112
-0.000374174
-0.000826043
-0.000334047
-0.000689505
-0.000317817
-0.000505926
-0.000356565
-0.000291148
-0.000491283
0.000160137
-0.000679738
0.00094322
-0.000892919
0.00206932
-0.00105756
0.0028568
-0.000787451
0.00232843
0.000528404
0.00237587
-0.000657217
0.00938389
-0.00136547
0.00331026
-0.00143282
0.00144178
-0.0016165
0.00131986
-0.00178934
0.00114837
-0.00185683
0.000858057
-0.00185194
0.000575285
-0.00180918
0.000294107
-0.00174061
-1.34456e-05
-0.00166873
-0.000324762
-0.00163236
-0.000588401
-0.0016569
-0.000800967
-0.00175304
-0.000972964
-0.00191631
-0.00110637
-0.00212849
-0.0011818
-0.00234834
-0.00115691
-0.0024752
-0.00100118
-0.00246943
-0.000765585
-0.00235522
-0.000549831
-0.00219382
-0.000402682
-0.00204297
-0.000336063
-0.00191791
-0.000328936
-0.00182488
-0.000360734
-0.00175292
-0.00040551
-0.00168268
-0.000446161
-0.00161515
-0.000479114
-0.00155484
-0.000494144
-0.00150828
-0.00048183
-0.00148266
-0.000438865
-0.00148224
-0.000374391
-0.00150439
-0.000311684
-0.00153825
-0.000283748
-0.00156063
-0.000333975
-0.00154876
-0.000502944
-0.00141793
-0.000810352
-0.00102857
-0.00128206
-0.000196922
-0.001889
0.00115537
-0.00213952
0.00172415
-4.01533e-05
0.00415574
-0.000916241
0.0107695
-0.00108429
0.00347851
-0.000619303
0.00097701
-0.000721214
0.00142198
-0.00102613
0.0014535
-0.00110331
0.000935445
-0.0010167
0.000488887
-0.000869905
0.000147517
-0.000720226
-0.000162917
-0.000605745
-0.000439035
-0.000556115
-0.000637822
-0.000587219
-0.000769653
-0.000699688
-0.000860285
-0.000881064
-0.000924779
-0.00110441
-0.000958246
-0.00132425
-0.000936854
-0.00148277
-0.000842449
-0.00154868
-0.000699468
-0.001539
-0.000559303
-0.0014874
-0.000454072
-0.00142813
-0.000395124
-0.00138026
-0.000376607
-0.00135347
-0.000387322
-0.00134692
-0.000411852
-0.00135613
-0.00043675
-0.00138312
-0.000451927
-0.00143402
-0.000443044
-0.00151946
-0.000396185
-0.0016537
-0.000304419
-0.00185036
-0.000177536
-0.00211221
-4.96244e-05
-0.00242725
3.15053e-05
-0.00277655
1.55343e-05
-0.00313395
-0.00014534
-0.00345565
-0.00048844
-0.00368599
-0.00105151
-0.00372153
-0.00185324
-0.00325699
-0.00260385
-0.00125729
-0.00203964
0.00296505
0.00180376
0.00949187
0.00241385
0.00286862
0.00224446
0.00114661
0.00156068
0.00210598
0.000968494
0.00204591
0.00070583
0.00119833
0.000645365
0.000549572
0.000694256
9.88438e-05
0.000779315
-0.000247761
0.000818663
-0.000478169
0.000791986
-0.000610931
0.000703055
-0.000680507
0.000555466
-0.00071248
0.000353897
-0.000722993
0.000113884
-0.000718016
-0.000128321
-0.00069443
-0.000327855
-0.000642698
-0.000460742
-0.000566365
-0.000534776
-0.000485053
-0.000570595
-0.000418038
-0.000590568
-0.000374938
-0.000611254
-0.000355709
-0.000643184
-0.000355181
-0.000690355
-0.000364473
-0.000753385
-0.000373513
-0.000834151
-0.000370957
-0.000936787
-0.000340205
-0.00106923
-0.000263543
-0.00124502
-0.000128423
-0.0014892
6.68484e-05
-0.00184759
0.000308964
-0.00236901
0.000553127
-0.00307121
0.000717935
-0.00392245
0.000706105
-0.00484559
0.000434903
-0.0058025
-9.44004e-05
-0.00696944
-0.000686091
-0.00829418
-0.00127891
-0.00770153
-0.00263207
-0.00443122
0.0100795
0.0129456
0.0100572
0.00403521
0.00691566
0.00524777
0.00541628
0.00354551
0.00449352
0.00212131
0.00386266
0.00118065
0.00339265
0.000569072
0.00299506
0.000150058
0.00265721
-0.000140107
0.00237376
-0.000327252
0.00212507
-0.000431596
0.00189037
-0.000477557
0.00165378
-0.000486177
0.00140905
-0.000473066
0.00116357
-0.000448725
0.00093797
-0.000416869
0.000751185
-0.000379356
0.000607656
-0.000341298
0.000499094
-0.000309252
0.000411924
-0.000287545
0.000333363
-0.000276927
0.000253804
-0.000275403
0.000168116
-0.000278568
7.50836e-05
-0.000280266
-2.3342e-05
-0.00027232
-0.000120837
-0.000242501
-0.00020834
-0.000175834
-0.000277785
-5.8773e-05
-0.000331829
0.000121095
-0.000378603
0.000355939
-0.000424891
0.000599618
-0.000472941
0.000766187
-0.0005295
0.000762865
-0.000646322
0.000551925
-0.000928271
0.000187749
-0.0013792
-0.000234964
-0.00190706
-0.000750844
-0.00201432
-0.00252461
-0.00611094
-0.000436333
0.00358176
0.00197716
0.00283453
0.00333797
0.00218492
0.00378484
0.00167467
0.00389635
0.00106937
0.00388463
0.000581014
0.00379061
0.000244314
0.00363295
1.77769e-05
0.00343727
-0.000131342
0.00322514
-0.000219232
0.00300882
-0.000261004
0.00279314
-0.000270264
0.00257911
-0.000258799
0.00236727
-0.000236654
0.00216208
-0.000211446
0.00197122
-0.00018826
0.00180048
-0.000170326
0.00165052
-0.00015906
0.00151744
-0.000154225
0.00139529
-0.000154547
0.00127841
-0.000158292
0.00116329
-0.000163228
0.0010497
-0.000166449
0.000941178
-0.000163575
0.000846554
-0.000147661
0.000779553
-0.000108619
0.000756146
-3.51552e-05
0.000795027
8.24244e-05
0.000908682
0.000242492
0.00109214
0.000416361
0.00131675
0.000541786
0.00153237
0.000547452
0.00168728
0.000397214
0.00177047
0.000104765
0.0018443
-0.000308592
0.00200269
-0.000909018
0.00166452
-0.00218624
-0.00437225
-0.000932044
0.00450692
0.00113802
0.000764724
0.00239261
0.000930592
0.00322652
0.000840999
0.00374218
0.000553953
0.00400983
0.000313609
0.00410946
0.000144925
0.00409894
2.85477e-05
0.00401368
-4.58429e-05
0.00388422
-8.95256e-05
0.00373284
-0.000109377
0.00357473
-0.000111908
0.00341914
-0.000102963
0.00327016
-8.74278e-05
0.00312841
-6.94486e-05
0.0029929
-5.25049e-05
0.00286213
-3.93123e-05
0.00273475
-3.14364e-05
0.00260984
-2.90691e-05
0.00248682
-3.12892e-05
0.00236531
-3.65394e-05
0.00224548
-4.31652e-05
0.00212923
-4.99644e-05
0.00202075
-5.48598e-05
0.00192814
-5.48213e-05
0.00186456
-4.48218e-05
0.00184744
-1.78102e-05
0.00190232
2.77601e-05
0.00205061
9.44254e-05
0.00229069
0.000176491
0.00258866
0.000244029
0.00288046
0.000255863
0.00309137
0.000186516
0.00316032
3.60246e-05
0.00306117
-0.000209227
0.00271018
-0.000557808
0.00168784
-0.00116368
-0.00259418
-0.00307692
-0.00362976
0.000868263
0.00162652
0.00255144
0.00338722
0.00393615
0.00424481
0.0043848
0.00440839
0.00435761
0.00426321
0.00414906
0.00403254
0.00392517
0.0038336
0.00376034
0.00370442
0.00366216
0.00362832
0.00359747
0.00356509
0.00352823
0.00348557
0.003437
0.00338445
0.00333291
0.00329236
0.0032798
0.0033138
0.00341539
0.00359988
0.0038526
0.00411775
0.00431408
0.00436046
0.00416215
0.00361587
0.00246415
)
;

boundaryField
{
    floor
    {
        type            calculated;
        value           nonuniform List<scalar> 
29
(
0
0
0
0
0
0
0
0
0
0
0
0
0
0
0
0
0
0
0
0
-6.81698e-06
-1.73117e-05
-2.21445e-05
-1.86506e-05
-3.09901e-06
-7.54188e-06
-1.83346e-05
-1.83419e-05
-1.53716e-05
)
;
    }
    ceiling
    {
        type            calculated;
        value           nonuniform List<scalar> 
43
(
1.4006e-05
1.14017e-05
9.19981e-06
6.78137e-06
5.967e-06
5.50422e-06
5.29967e-06
5.22436e-06
5.21103e-06
5.22382e-06
5.20608e-06
5.14232e-06
5.03278e-06
4.87509e-06
4.66545e-06
4.39907e-06
4.07046e-06
3.67389e-06
3.20418e-06
2.65791e-06
2.03446e-06
1.3364e-06
5.6911e-07
-2.60142e-07
-1.14332e-06
-2.07238e-06
-3.03838e-06
-4.02835e-06
-5.02087e-06
-6.00104e-06
-6.93275e-06
-7.76288e-06
-8.46397e-06
-9.05323e-06
-9.58382e-06
-1.01244e-05
-1.06887e-05
-1.13052e-05
-1.1732e-05
-1.19279e-05
4.53374e-06
2.63802e-06
7.18983e-06
)
;
    }
    sWall
    {
        type            calculated;
        value           uniform -0.000130357;
    }
    nWall
    {
        type            calculated;
        value           nonuniform List<scalar> 6(-4.74055e-05 -5.54932e-05 -6.6378e-05 -7.39567e-05 -9.00168e-05 -0.000117875);
    }
    sideWalls
    {
        type            empty;
        value           nonuniform 0();
    }
    glass1
    {
        type            calculated;
        value           nonuniform List<scalar> 9(-6.83846e-05 -0.000173137 -0.000253427 -0.000318597 -0.000374394 -0.000423727 -0.000469195 -0.000525952 -0.000591956);
    }
    glass2
    {
        type            calculated;
        value           nonuniform List<scalar> 2(-0.000305057 -0.000334383);
    }
    sun
    {
        type            calculated;
        value           uniform 0;
    }
    heatsource1
    {
        type            calculated;
        value           nonuniform List<scalar> 3(2.04566e-07 2.04678e-07 2.04982e-07);
    }
    heatsource2
    {
        type            calculated;
        value           nonuniform List<scalar> 4(5.14898e-08 5.17156e-08 0 0);
    }
    Table_master
    {
        type            calculated;
        value           nonuniform List<scalar> 9(-1.56015e-07 -1.56061e-07 -1.55899e-07 -1.55766e-07 -1.55651e-07 -1.55547e-07 -1.55452e-07 -1.55359e-07 -1.55236e-07);
    }
    Table_slave
    {
        type            calculated;
        value           nonuniform List<scalar> 9(1.54154e-07 1.5423e-07 1.54308e-07 1.54391e-07 1.54476e-07 1.54555e-07 1.54626e-07 1.54686e-07 1.54678e-07);
    }
    inlet
    {
        type            calculated;
        value           uniform 0.0008901;
    }
    outlet
    {
        type            calculated;
        value           nonuniform List<scalar> 2(0.00319357 0.000541743);
    }
}


// ************************************************************************* //
