// -*- C++ -*-
// File generated by PyFoam - sorry for the ugliness

FoamFile
{
 version 2.0;
 format ascii;
 class volVectorField;
 location "1100";
 object U;
}

dimensions [ 0 1 -1 0 0 0 0 ];

internalField nonuniform List<vector> 459
(
  (0.0348306 0.0857625 0)
  (-0.166795 0.0253314 0)
  (-0.191288 0.0178731 0)
  (-0.222325 0.0122793 0)
  (-0.244957 0.00609552 0)
  (-0.258123 -0.000485631 0)
  (-0.260173 -0.00753832 0)
  (-0.249731 -0.015094 0)
  (-0.227322 -0.0225302 0)
  (-0.194682 -0.0285419 0)
  (-0.155399 -0.0320304 0)
  (-0.113774 -0.0324421 0)
  (-0.0739973 -0.0299828 0)
  (-0.0413104 -0.0258978 0)
  (-0.0296697 -0.022093 0)
  (-0.00555415 0.00875536 0)
  (-0.0286614 -0.0168305 0)
  (-0.00682122 -0.0265139 0)
  (0.0164653 -0.0202877 0)
  (0.0319281 -0.01387 0)
  (0.0444821 -0.00897178 0)
  (0.0523498 -0.00522997 0)
  (0.0564214 -0.00327028 0)
  (0.0582532 -0.00248191 0)
  (0.0591595 -0.00214068 0)
  (0.0597185 -0.00192941 0)
  (0.0600251 -0.00175911 0)
  (0.0600226 -0.00155132 0)
  (0.0595273 -0.00114166 0)
  (0.0580189 -0.000165848 0)
  (0.054379 0.00187904 0)
  (0.0473896 0.00402081 0)
  (0.0413237 0.00564353 0)
  (-0.0141737 0.0202032 0)
  (0.20986 0.175763 0)
  (-0.156304 0.0670208 0)
  (-0.154393 0.0529661 0)
  (-0.186606 0.0413616 0)
  (-0.209079 0.0281834 0)
  (-0.222523 0.0133221 0)
  (-0.225264 -0.00356707 0)
  (-0.215729 -0.0219946 0)
  (-0.195033 -0.0394716 0)
  (-0.16533 -0.0529193 0)
  (-0.130367 -0.0601773 0)
  (-0.0941977 -0.0605002 0)
  (-0.0604129 -0.054492 0)
  (-0.0325825 -0.0437811 0)
  (-0.0147884 -0.0307223 0)
  (-0.000732596 -0.0125109 0)
  (-0.00136247 0.0155381 0)
  (0.0626111 0.0359805 0)
  (0.0253878 -0.0178811 0)
  (0.033618 -0.031073 0)
  (0.0446988 -0.0275796 0)
  (0.0535501 -0.0197731 0)
  (0.0599959 -0.0123041 0)
  (0.0627702 -0.00521451 0)
  (0.0632964 -0.00115476 0)
  (0.0632463 0.000546728 0)
  (0.063354 0.00130493 0)
  (0.0635555 0.0017723 0)
  (0.0637033 0.00215921 0)
  (0.0637546 0.0026273 0)
  (0.0636669 0.00348849 0)
  (0.0629364 0.00560216 0)
  (0.0592594 0.0114926 0)
  (0.0499155 0.0163515 0)
  (0.0458348 0.0194307 0)
  (-0.0506982 0.0439509 0)
  (0.370455 0.263103 0)
  (-0.173621 0.106915 0)
  (-0.116002 0.0858049 0)
  (-0.1475 0.0650264 0)
  (-0.167547 0.0432944 0)
  (-0.180131 0.0191387 0)
  (-0.182628 -0.00835968 0)
  (-0.172455 -0.0379124 0)
  (-0.151945 -0.0650871 0)
  (-0.124192 -0.0848062 0)
  (-0.093165 -0.0942916 0)
  (-0.0624564 -0.0932168 0)
  (-0.0344086 -0.0830095 0)
  (-0.0112039 -0.0658178 0)
  (0.00612458 -0.0429224 0)
  (0.0176975 -0.0162928 0)
  (0.0224464 0.020868 0)
  (0.110721 -0.0280992 0)
  (0.0743091 -0.0380463 0)
  (0.0688031 -0.0381788 0)
  (0.0703789 -0.0325409 0)
  (0.0717701 -0.0245176 0)
  (0.0730506 -0.0175021 0)
  (0.0717531 -0.0140476 0)
  (0.067236 -0.00996549 0)
  (0.0639678 -0.00773275 0)
  (0.062494 -0.00645131 0)
  (0.0618698 -0.00562698 0)
  (0.061561 -0.00505456 0)
  (0.0615584 -0.00454522 0)
  (0.0622947 -0.00373926 0)
  (0.0648726 -0.000700552 0)
  (0.0628514 0.0160553 0)
  (0.0497769 0.0276474 0)
  (0.0524505 0.0352848 0)
  (-0.0827515 0.0686739 0)
  (0.515334 0.333401 0)
  (-0.208803 0.142376 0)
  (-0.075155 0.113804 0)
  (-0.105468 0.0852218 0)
  (-0.120048 0.0573893 0)
  (-0.12948 0.0257645 0)
  (-0.129234 -0.0121301 0)
  (-0.116019 -0.0534319 0)
  (-0.0949501 -0.0896651 0)
  (-0.070052 -0.114047 0)
  (-0.0446948 -0.124239 0)
  (-0.0215438 -0.121103 0)
  (-0.000919951 -0.106959 0)
  (0.0162706 -0.0847766 0)
  (0.0306543 -0.0583865 0)
  (0.0459337 -0.0294517 0)
  (0.0677253 0.00199354 0)
  (0.0983609 0.0147091 0)
  (0.103913 -0.0237909 0)
  (0.0903585 -0.0338202 0)
  (0.0816189 -0.0326477 0)
  (0.0768594 -0.0283239 0)
  (0.0733761 -0.0221887 0)
  (0.0711593 -0.0144589 0)
  (0.0726524 -0.00883279 0)
  (0.0776686 -0.00671206 0)
  (0.0819633 -0.0055278 0)
  (0.0848827 -0.00466395 0)
  (0.0867076 -0.00366708 0)
  (0.0869667 -0.00225603 0)
  (0.0845227 -0.000181978 0)
  (0.0781372 0.00285252 0)
  (0.0653377 0.00737527 0)
  (0.0530002 0.0266294 0)
  (0.0407207 0.0428753 0)
  (0.0566446 0.0556092 0)
  (-0.116588 0.0908717 0)
  (0.640689 0.387903 0)
  (-0.251659 0.171423 0)
  (-0.0344053 0.130016 0)
  (-0.0614339 0.0968404 0)
  (-0.0679369 0.0656526 0)
  (-0.0714631 0.0292075 0)
  (-0.0629539 -0.0179828 0)
  (-0.0442964 -0.0703454 0)
  (-0.023879 -0.112236 0)
  (-0.00461654 -0.137503 0)
  (0.0120856 -0.145411 0)
  (0.0247758 -0.138645 0)
  (0.0347819 -0.121647 0)
  (0.0428141 -0.0978638 0)
  (0.0501493 -0.0708009 0)
  (0.058767 -0.0441762 0)
  (0.0714286 -0.0242047 0)
  (0.0821725 -0.0224368 0)
  (0.0834891 -0.0297997 0)
  (0.0772667 -0.0302667 0)
  (0.0692652 -0.0270592 0)
  (0.0627904 -0.0230086 0)
  (0.0580036 -0.0183586 0)
  (0.0552362 -0.013005 0)
  (0.0552984 -0.00743833 0)
  (0.0578393 -0.00474825 0)
  (0.0607319 -0.00375635 0)
  (0.0634825 -0.00293708 0)
  (0.0659715 -0.0012816 0)
  (0.0678334 0.00179942 0)
  (0.0678214 0.00638465 0)
  (0.0653511 0.0126137 0)
  (0.0598608 0.0211304 0)
  (0.0528828 0.0362943 0)
  (0.0425804 0.0542792 0)
  (0.0649377 0.0743422 0)
  (-0.0223027 0.103186 0)
  (0.0462465 0.0316419 0)
  (-0.0624572 -0.0346969 0)
  (-0.273111 -0.0573842 0)
  (0.731773 0.43341 0)
  (-0.293376 0.191081 0)
  (-0.00317461 0.126679 0)
  (-0.0165226 0.0982334 0)
  (-0.0124961 0.0681805 0)
  (-0.00783316 0.0271313 0)
  (0.0192159 -0.0340409 0)
  (0.0411899 -0.090486 0)
  (0.0569937 -0.129848 0)
  (0.0668255 -0.15051 0)
  (0.07124 -0.154266 0)
  (0.0715252 -0.144508 0)
  (0.0691862 -0.125251 0)
  (0.0656634 -0.100446 0)
  (0.0624421 -0.0737962 0)
  (0.0609432 -0.0489317 0)
  (0.0620756 -0.0301288 0)
  (0.0628651 -0.022239 0)
  (0.0596479 -0.0214317 0)
  (0.0527492 -0.0211985 0)
  (0.0449862 -0.019514 0)
  (0.0385833 -0.0171091 0)
  (0.034054 -0.0143348 0)
  (0.0316595 -0.0112359 0)
  (0.0316065 -0.00841756 0)
  (0.0335008 -0.00735 0)
  (0.0363062 -0.00721004 0)
  (0.0395755 -0.00676889 0)
  (0.0431148 -0.00502685 0)
  (0.0466458 -0.00111113 0)
  (0.049795 0.00526385 0)
  (0.0513601 0.0136927 0)
  (0.0516596 0.024338 0)
  (0.0520872 0.0387463 0)
  (0.0507668 0.0564696 0)
  (0.0734062 0.0792458 0)
  (0.0525491 0.0969757 0)
  (0.0934888 0.0677692 0)
  (0.1165 0.0446336 0)
  (-0.129541 -0.00727224 0)
  (0.783208 0.474776 0)
  (-0.314394 0.17668 0)
  (0.0233862 0.0774628 0)
  (0.0416383 0.0752415 0)
  (0.0561739 0.0548187 0)
  (0.0796241 0.00591472 0)
  (0.114785 -0.0584734 0)
  (0.134828 -0.108329 0)
  (0.141957 -0.139149 0)
  (0.138922 -0.152089 0)
  (0.128372 -0.149973 0)
  (0.113161 -0.136445 0)
  (0.0958322 -0.115296 0)
  (0.0785858 -0.0904473 0)
  (0.0631334 -0.065199 0)
  (0.0507396 -0.0426188 0)
  (0.041902 -0.0258649 0)
  (0.0352068 -0.0171417 0)
  (0.0285455 -0.0144259 0)
  (0.0214324 -0.0138114 0)
  (0.0147955 -0.0131082 0)
  (0.00955478 -0.012193 0)
  (0.00599047 -0.0111968 0)
  (0.00423738 -0.0101693 0)
  (0.00433142 -0.00949827 0)
  (0.0058831 -0.00974052 0)
  (0.00825828 -0.0103642 0)
  (0.0111942 -0.010511 0)
  (0.0147278 -0.00931008 0)
  (0.0189806 -0.00574955 0)
  (0.0249241 0.00116555 0)
  (0.0308428 0.0104484 0)
  (0.03639 0.0212318 0)
  (0.0434688 0.0340721 0)
  (0.0511662 0.048697 0)
  (0.0733347 0.0671173 0)
  (0.0864671 0.0746423 0)
  (0.118852 0.0519045 0)
  (0.158566 0.0439802 0)
  (-0.0349417 0.0941767 0)
  (0.887722 0.477783 0)
  (-0.071908 0.156439 0)
  (0.105441 0.00463244 0)
  (0.167772 -0.0137856 0)
  (0.179587 -0.0305143 0)
  (0.213688 -0.0650821 0)
  (0.236382 -0.0986923 0)
  (0.240023 -0.123229 0)
  (0.227109 -0.136005 0)
  (0.202546 -0.137064 0)
  (0.171092 -0.128053 0)
  (0.136962 -0.111582 0)
  (0.103171 -0.0902005 0)
  (0.0721706 -0.0672172 0)
  (0.0455016 -0.045192 0)
  (0.0244884 -0.026601 0)
  (0.00968304 -0.014091 0)
  (-0.00010537 -0.00831204 0)
  (-0.00701089 -0.00712754 0)
  (-0.0126716 -0.00752525 0)
  (-0.0174349 -0.00807201 0)
  (-0.0211583 -0.00856143 0)
  (-0.0238041 -0.00903756 0)
  (-0.0253548 -0.00957682 0)
  (-0.0258809 -0.0103577 0)
  (-0.0256942 -0.0114909 0)
  (-0.0251621 -0.012695 0)
  (-0.0243982 -0.0135281 0)
  (-0.0232458 -0.0134991 0)
  (-0.0213129 -0.0120286 0)
  (-0.0176092 -0.00837734 0)
  (-0.00856374 -0.00181998 0)
  (0.00011336 0.00664363 0)
  (0.0107238 0.0149168 0)
  (0.0223996 0.0219748 0)
  (0.0421906 0.0292708 0)
  (0.0606623 0.0221527 0)
  (0.0800295 -0.00539411 0)
  (0.139019 0.0404955 0)
  (-0.415056 0.207469 0)
  (1.03244 0.430393 0)
  (0.497301 0.285437 0)
  (0.503226 0.192675 0)
  (0.510333 0.122266 0)
  (0.483619 0.0712883 0)
  (0.442577 0.0186731 0)
  (0.393767 -0.0299863 0)
  (0.341301 -0.0653432 0)
  (0.285005 -0.0843159 0)
  (0.227196 -0.0885669 0)
  (0.171011 -0.0819932 0)
  (0.119322 -0.0687001 0)
  (0.0730535 -0.0512466 0)
  (0.0341017 -0.033175 0)
  (0.00226226 -0.0168173 0)
  (-0.0194924 -0.00603247 0)
  (-0.0312526 -0.00183786 0)
  (-0.0378529 -0.00112942 0)
  (-0.0421893 -0.0020085 0)
  (-0.0458641 -0.00333292 0)
  (-0.0491772 -0.00465271 0)
  (-0.0521612 -0.00589955 0)
  (-0.0548267 -0.00710493 0)
  (-0.0572111 -0.00831223 0)
  (-0.05944 -0.00956595 0)
  (-0.0617813 -0.0108263 0)
  (-0.0645559 -0.0118692 0)
  (-0.0680539 -0.0123209 0)
  (-0.0725964 -0.01166 0)
  (-0.0786413 -0.00920127 0)
  (-0.0867873 -0.0041404 0)
  (-0.0970638 0.00410918 0)
  (-0.107439 0.0150163 0)
  (-0.122786 0.028785 0)
  (-0.14702 0.0455017 0)
  (-0.182668 0.0639534 0)
  (-0.233026 0.0800394 0)
  (-0.290278 0.0911446 0)
  (-0.359085 0.0972699 0)
  (-0.621713 0.0991003 0)
  (-0.150649 0.0850383 0)
  (0.136543 0.0664038 0)
  (0.220897 0.0118955 0)
  (0.204544 -0.0246648 0)
  (0.189379 -0.0408508 0)
  (0.167615 -0.0472546 0)
  (0.135823 -0.0468865 0)
  (0.0976429 -0.0413401 0)
  (0.0577005 -0.0321733 0)
  (0.0199946 -0.0205227 0)
  (-0.0182943 -0.0061549 0)
  (-0.0433692 0.00227724 0)
  (-0.0589843 0.00617308 0)
  (-0.0669224 0.00691685 0)
  (-0.070636 0.00616739 0)
  (-0.0730754 0.00513778 0)
  (-0.0751061 0.00406017 0)
  (-0.0771816 0.00300765 0)
  (-0.0795945 0.0019211 0)
  (-0.082319 0.00075615 0)
  (-0.085309 -0.00043688 0)
  (-0.0885882 -0.00158941 0)
  (-0.0922181 -0.00260708 0)
  (-0.0962906 -0.00333238 0)
  (-0.100882 -0.00352451 0)
  (-0.105992 -0.00287366 0)
  (-0.111524 -0.00102665 0)
  (-0.117254 0.00237695 0)
  (-0.122586 0.00775018 0)
  (-0.126726 0.0158125 0)
  (-0.13014 0.0276652 0)
  (-0.133121 0.0436798 0)
  (-0.136486 0.0629721 0)
  (-0.140756 0.0818586 0)
  (-0.142725 0.0903822 0)
  (-0.125494 0.067653 0)
  (-0.0818154 -0.0260083 0)
  (-0.279388 -0.204354 0)
  (-0.0244361 0.234524 0)
  (0.0641264 0.103673 0)
  (0.040215 0.0227811 0)
  (0.0280122 -0.00181724 0)
  (0.0208517 -0.00859673 0)
  (0.00405573 -0.0115689 0)
  (-0.0204853 -0.00959263 0)
  (-0.0468186 -0.00481469 0)
  (-0.0698023 -1.4971e-05 0)
  (-0.0862479 0.00343009 0)
  (-0.0949542 0.00423945 0)
  (-0.098086 0.00225066 0)
  (-0.0989043 -0.000594548 0)
  (-0.0986008 -0.00384141 0)
  (-0.0983262 -0.00717268 0)
  (-0.0985571 -0.0102563 0)
  (-0.0993047 -0.0129605 0)
  (-0.100473 -0.0151026 0)
  (-0.101925 -0.0165683 0)
  (-0.103646 -0.0174119 0)
  (-0.105655 -0.0177043 0)
  (-0.107941 -0.017582 0)
  (-0.11051 -0.0172248 0)
  (-0.113326 -0.0166057 0)
  (-0.116265 -0.0155994 0)
  (-0.119093 -0.0139696 0)
  (-0.121437 -0.011347 0)
  (-0.122779 -0.00718165 0)
  (-0.12255 -0.00118462 0)
  (-0.11978 0.00717571 0)
  (-0.113023 0.0187771 0)
  (-0.101009 0.0343836 0)
  (-0.0834829 0.053575 0)
  (-0.0613608 0.0722471 0)
  (-0.0374913 0.083205 0)
  (0.00258529 0.0675789 0)
  (0.143247 -0.00386806 0)
  (-0.207548 -0.115289 0)
  (0.941113 -0.0029285 0)
  (-0.534294 -0.459449 0)
  (-0.316467 0.0914506 0)
  (-0.225372 -0.0196972 0)
  (-0.176476 -0.0439418 0)
  (-0.160487 -0.0330387 0)
  (-0.157708 -0.0202483 0)
  (-0.159338 -0.00975466 0)
  (-0.160849 -0.00077711 0)
  (-0.159101 0.00679634 0)
  (-0.154997 0.0136017 0)
  (-0.148466 0.0197598 0)
  (-0.140383 0.0250308 0)
  (-0.132183 0.0293173 0)
  (-0.124835 0.0332325 0)
  (-0.118684 0.036979 0)
  (-0.113791 0.0406238 0)
  (-0.11 0.0439788 0)
  (-0.107164 0.0466865 0)
  (-0.105184 0.0484464 0)
  (-0.103973 0.04912 0)
  (-0.103455 0.0487583 0)
  (-0.103566 0.0474901 0)
  (-0.104235 0.0456047 0)
  (-0.105376 0.043463 0)
  (-0.10688 0.0411973 0)
  (-0.108565 0.0389155 0)
  (-0.110145 0.0367075 0)
  (-0.111181 0.0346446 0)
  (-0.110988 0.0328005 0)
  (-0.108326 0.031901 0)
  (-0.101305 0.0326299 0)
  (-0.0874575 0.035722 0)
  (-0.0649201 0.0420572 0)
  (-0.0343067 0.0521391 0)
  (0.0145113 0.0657313 0)
  (0.0596334 0.0670826 0)
  (0.102556 0.0520601 0)
  (0.164325 0.0223689 0)
  (-0.216779 -0.0333467 0)
)
;

boundaryField
{
  floor
  {
    type noSlip;
  }
  ceiling
  {
    type noSlip;
  }
  sWall
  {
    type noSlip;
  }
  nWall
  {
    type noSlip;
  }
  sideWalls
  {
    type empty;
  }
  glass1
  {
    type noSlip;
  }
  glass2
  {
    type noSlip;
  }
  sun
  {
    type noSlip;
  }
  heatsource1
  {
    type noSlip;
  }
  heatsource2
  {
    type noSlip;
  }
  Table_master
  {
    type noSlip;
  }
  Table_slave
  {
    type noSlip;
  }
  inlet
  {
    type fixedValue;
    value uniform (0.3 0 0);
  }
  outlet
  {
    type zeroGradient;
  }
} 	// ************************************************************************* //

