/*--------------------------------*- C++ -*----------------------------------*\
  =========                 |
  \\      /  F ield         | OpenFOAM: The Open Source CFD Toolbox
   \\    /   O peration     | Website:  https://openfoam.org
    \\  /    A nd           | Version:  6
     \\/     M anipulation  |
\*---------------------------------------------------------------------------*/
FoamFile
{
    version     2.0;
    format      ascii;
    class       volScalarField;
    location    "100";
    object      nut;
}
// * * * * * * * * * * * * * * * * * * * * * * * * * * * * * * * * * * * * * //

dimensions      [0 2 -1 0 0 0 0];

internalField   nonuniform List<scalar> 
459
(
0.00137785
0.00154122
0.00161363
0.00171868
0.00183436
0.00193859
0.00200941
0.00203629
0.0019465
0.00183504
0.00171319
0.0015798
0.00144879
0.00131934
0.00117336
0.000707102
0.000833711
0.00097357
0.00107617
0.00111249
0.0010936
0.00102477
0.000950919
0.000885745
0.000830177
0.000782799
0.000742196
0.000706954
0.000675931
0.000647923
0.000621097
0.000592868
0.000559296
0.0005102
0.00175449
0.00480191
0.00491942
0.00571258
0.00635542
0.00685249
0.00724589
0.00759176
0.00776125
0.00752427
0.00707012
0.00645939
0.00549773
0.00424823
0.0028068
0.00130369
0.00111318
0.000686559
0.0017889
0.00306802
0.00401877
0.00459556
0.0044834
0.00300851
0.0024603
0.00211842
0.00187959
0.00170443
0.00157159
0.00146946
0.0013799
0.00127584
0.00116765
0.00106283
0.000970512
0.000545909
0.00206828
0.00665699
0.00621651
0.00680762
0.00709878
0.00728011
0.00751861
0.00799982
0.00847508
0.00861363
0.00845381
0.00807733
0.00742154
0.00634812
0.00487157
0.00308325
0.00123209
0.000694566
0.00182804
0.00317172
0.00463756
0.00566506
0.00535693
0.00136537
0.0011866
0.00104181
0.000926401
0.000834347
0.000760453
0.000700722
0.000653542
0.000621025
0.000725696
0.000870445
0.00100435
0.000558696
0.00236981
0.00827919
0.00684819
0.00723216
0.00714207
0.00695149
0.0070437
0.0076207
0.00824526
0.00861309
0.00865972
0.00847412
0.00808701
0.00739097
0.00629305
0.00472689
0.00254751
0.00133072
0.00148151
0.00246732
0.00416885
0.0059363
0.00712316
0.00666108
0.00155053
0.00141438
0.00130604
0.00121596
0.00113441
0.001056
0.000977306
0.000895385
0.00080478
0.000749169
0.000805654
0.00100018
0.000568009
0.00267591
0.0101936
0.00802969
0.00799345
0.00738566
0.00676354
0.0068017
0.00741188
0.00814109
0.00862082
0.0087554
0.00864922
0.00839845
0.00800464
0.00735792
0.00637838
0.00508268
0.00469312
0.00548717
0.00675135
0.00810142
0.00917738
0.00976688
0.00960257
0.00788431
0.00687431
0.00613027
0.00539119
0.00466168
0.00394411
0.00323676
0.00253809
0.00185366
0.00128145
0.00100249
0.00102516
0.000675406
0.000551405
0.000562976
0.000661227
0.00298959
0.0122267
0.0103778
0.0091699
0.00760686
0.00671192
0.00675643
0.00746191
0.00829905
0.00885982
0.0090506
0.00903531
0.00899086
0.00894026
0.00878327
0.00850857
0.00826264
0.0087322
0.00988217
0.0109026
0.0116224
0.0119658
0.0119269
0.0114927
0.0105935
0.00960312
0.00852063
0.00742634
0.00634865
0.00530136
0.00428989
0.00332097
0.00241777
0.00167209
0.0012511
0.00112484
0.000846868
0.000726922
0.000963402
0.000701818
0.0032216
0.0132579
0.0123782
0.00954302
0.00741491
0.00653577
0.00679531
0.00772361
0.00871178
0.00935865
0.00965895
0.00993029
0.0103567
0.0106502
0.0108299
0.0110271
0.0114062
0.01218
0.0130463
0.0135479
0.013671
0.0134514
0.012945
0.0122038
0.0112542
0.0101616
0.0089704
0.00777654
0.00661265
0.00550087
0.00445811
0.00350049
0.00263877
0.00191732
0.00151876
0.00134942
0.00113389
0.0010446
0.00103199
0.000755848
0.0032452
0.010515
0.00957591
0.00745737
0.00616029
0.00606987
0.00694165
0.00825286
0.00938868
0.0101148
0.0106924
0.0114871
0.0120118
0.0122958
0.0125714
0.0129478
0.013456
0.0140416
0.014447
0.0144728
0.0141329
0.0135041
0.0126588
0.0116594
0.0105684
0.00943529
0.00827878
0.00713345
0.00603101
0.00500157
0.00407266
0.00326674
0.00259707
0.00208072
0.0017639
0.00166981
0.00163084
0.00161946
0.0021868
0.00105658
0.00314116
0.00363365
0.00382115
0.0038295
0.00442482
0.00583093
0.00764343
0.00927328
0.0102602
0.0111889
0.0118735
0.0123999
0.0126404
0.0128445
0.0131303
0.0134898
0.0138478
0.0140709
0.0140151
0.0136226
0.0129354
0.0120301
0.0109961
0.00991738
0.0088448
0.00779747
0.00677057
0.00576479
0.0047904
0.00386085
0.00299096
0.0022216
0.00165922
0.00139469
0.00136142
0.00142508
0.00149718
0.00153333
0.00149733
0.00108802
0.00102456
0.00280424
0.00644026
0.00895415
0.0103588
0.0110829
0.0111186
0.0113346
0.0115156
0.011576
0.0116605
0.0118334
0.0120591
0.012256
0.0123214
0.012151
0.0116942
0.0109794
0.0100938
0.0091371
0.00819278
0.00730957
0.00649614
0.00573435
0.0050018
0.00428902
0.00360122
0.00295527
0.00237942
0.00191314
0.00159736
0.00144763
0.00143315
0.00149235
0.00156014
0.00158582
0.00153728
0.0011195
0.00191168
0.00793581
0.010045
0.0104033
0.0100771
0.00957404
0.00912165
0.00879779
0.00859183
0.00852155
0.00856876
0.00867813
0.00878735
0.00883167
0.00874833
0.00849361
0.00807042
0.00753046
0.00694709
0.00638161
0.0058662
0.00540479
0.00498503
0.00459123
0.0042119
0.00384177
0.00348042
0.00313117
0.00280094
0.00249976
0.0022391
0.0020295
0.00187805
0.00178214
0.00172239
0.0017233
0.00223558
0.0012185
0.00184543
0.00197211
0.00206985
0.00229866
0.00211115
0.00196413
0.00183397
0.00171657
0.00163212
0.00158655
0.00156636
0.00156095
0.00156225
0.00156392
0.00156091
0.00154918
0.00152619
0.00149188
0.00144932
0.00140343
0.00135871
0.00131768
0.00128065
0.00124659
0.00121391
0.00118121
0.00114765
0.0011132
0.00107852
0.00104492
0.00101414
0.000988123
0.000968856
0.000958318
0.000958001
0.000967419
0.000981834
0.000992983
0.00100615
0.00100824
)
;

boundaryField
{
    floor
    {
        type            nutkWallFunction;
        Cmu             0.09;
        kappa           0.41;
        E               9.8;
        value           nonuniform List<scalar> 
29
(
0.000140937
8.56096e-05
0.000100976
0.000117636
0.00012968
0.000133912
0.000131715
0.000123669
0.000114965
0.000107218
0.000100561
9.48439e-05
8.99114e-05
8.5604e-05
8.17908e-05
7.833e-05
7.4998e-05
7.14727e-05
6.7253e-05
6.10256e-05
6.10255e-05
6.556e-05
6.71735e-05
6.83458e-05
0.000140937
8.56096e-05
8.30841e-05
8.40663e-05
0.000158999
)
;
    }
    ceiling
    {
        type            nutkWallFunction;
        Cmu             0.09;
        kappa           0.41;
        E               9.8;
        value           nonuniform List<scalar> 
43
(
0.000216448
0.000230313
0.000240946
0.000265757
0.000245583
0.000229606
0.00021534
0.000202378
0.000192995
0.000187911
0.000185655
0.000185051
0.000185198
0.000185387
0.00018505
0.000183735
0.000181156
0.000177297
0.000172496
0.000167302
0.000162224
0.000157547
0.000153313
0.000149405
0.000145645
0.000141869
0.000137984
0.00013398
0.000129937
0.000126007
0.000122393
0.000119329
0.000117053
0.000115806
0.000115768
0.000116883
0.000118589
0.000119917
0.000121479
0.000121726
0.000354797
0.000405605
0.000223474
)
;
    }
    sWall
    {
        type            nutkWallFunction;
        Cmu             0.09;
        kappa           0.41;
        E               9.8;
        value           uniform 0.000216504;
    }
    nWall
    {
        type            nutkWallFunction;
        Cmu             0.09;
        kappa           0.41;
        E               9.8;
        value           nonuniform List<scalar> 6(7.99324e-05 8.49404e-05 9.15286e-05 0.000134729 0.000146193 0.000121731);
    }
    sideWalls
    {
        type            empty;
    }
    glass1
    {
        type            nutkWallFunction;
        Cmu             0.09;
        kappa           0.41;
        E               9.8;
        value           nonuniform List<scalar> 9(0.000164535 0.000206784 0.000241216 0.000273774 0.000306382 0.000339395 0.000363583 0.000366045 0.00035525);
    }
    glass2
    {
        type            nutkWallFunction;
        Cmu             0.09;
        kappa           0.41;
        E               9.8;
        value           nonuniform List<scalar> 2(0.00012737 0.000131053);
    }
    sun
    {
        type            nutkWallFunction;
        Cmu             0.09;
        kappa           0.41;
        E               9.8;
        value           nonuniform List<scalar> 
14
(
0.000164342
0.000182758
0.000190853
0.000202528
0.000215294
0.000226722
0.00023445
0.000237377
0.000227591
0.000215375
0.000201927
0.000187085
0.000172372
0.000157689
)
;
    }
    heatsource1
    {
        type            nutkWallFunction;
        Cmu             0.09;
        kappa           0.41;
        E               9.8;
        value           nonuniform List<scalar> 3(6.62444e-05 6.76781e-05 7.99353e-05);
    }
    heatsource2
    {
        type            nutkWallFunction;
        Cmu             0.09;
        kappa           0.41;
        E               9.8;
        value           nonuniform List<scalar> 4(0.000155903 0.000133964 0.000133964 0.000147706);
    }
    Table_master
    {
        type            nutkWallFunction;
        Cmu             0.09;
        kappa           0.41;
        E               9.8;
        value           nonuniform List<scalar> 9(0.000162968 0.000142501 0.000125667 0.000112059 0.000101063 9.21327e-05 8.48389e-05 7.9025e-05 7.49884e-05);
    }
    Table_slave
    {
        type            nutkWallFunction;
        Cmu             0.09;
        kappa           0.41;
        E               9.8;
        value           nonuniform List<scalar> 9(0.000183859 0.000168529 0.000156212 0.000145885 0.000136461 0.000127327 0.000118082 0.000108366 9.74977e-05);
    }
    inlet
    {
        type            calculated;
        value           uniform 0.000100623;
    }
    outlet
    {
        type            calculated;
        value           nonuniform List<scalar> 2(0.00184543 0.00197211);
    }
}


// ************************************************************************* //
