// -*- C++ -*-
// File generated by PyFoam - sorry for the ugliness

FoamFile
{
 version 2.0;
 format ascii;
 class volVectorField;
 location "100";
 object U;
}

dimensions [ 0 1 -1 0 0 0 0 ];

internalField nonuniform List<vector> 459
(
  (0.00265538 0.0924119 0)
  (-0.188367 0.0278087 0)
  (-0.221356 0.00744752 0)
  (-0.239307 -0.0089574 0)
  (-0.228634 -0.0265313 0)
  (-0.189486 -0.0463119 0)
  (-0.127959 -0.0645908 0)
  (-0.058236 -0.0758508 0)
  (0.0357492 -0.0617355 0)
  (0.0861303 -0.0439464 0)
  (0.124648 -0.0279601 0)
  (0.145755 -0.0136328 0)
  (0.146378 0.000945645 0)
  (0.123046 0.0222507 0)
  (0.0941379 0.0687388 0)
  (-0.0432934 0.0175771 0)
  (-0.0578833 -0.0101137 0)
  (-0.0379265 -0.0286671 0)
  (-0.00979761 -0.0371365 0)
  (0.027443 -0.0319328 0)
  (0.0544154 -0.0234777 0)
  (0.0743436 -0.0136809 0)
  (0.0868187 -0.00830482 0)
  (0.093181 -0.00625995 0)
  (0.0965083 -0.00543825 0)
  (0.0987975 -0.00490718 0)
  (0.10055 -0.00445072 0)
  (0.101662 -0.00394103 0)
  (0.101717 -0.0030812 0)
  (0.099708 -0.00123861 0)
  (0.0936522 0.00247463 0)
  (0.0811652 0.00759414 0)
  (0.0604871 0.015136 0)
  (0.0305788 0.0298756 0)
  (0.164679 0.193031 0)
  (-0.163092 0.0855088 0)
  (-0.173869 0.048267 0)
  (-0.193626 0.0129081 0)
  (-0.185579 -0.0283445 0)
  (-0.150571 -0.0719832 0)
  (-0.0966453 -0.106153 0)
  (-0.0367769 -0.120039 0)
  (0.0276967 -0.100753 0)
  (0.0723749 -0.070739 0)
  (0.105953 -0.0412963 0)
  (0.125676 -0.0132743 0)
  (0.132812 0.0144067 0)
  (0.130871 0.0444331 0)
  (0.127999 0.0844441 0)
  (0.122591 0.0792143 0)
  (0.0788925 0.0738628 0)
  (-0.00390886 0.0515883 0)
  (-0.00854548 0.000511248 0)
  (0.0292414 -0.0440882 0)
  (0.0456486 -0.0515966 0)
  (0.0638111 -0.0461588 0)
  (0.0799302 -0.0346507 0)
  (0.0879082 -0.0166546 0)
  (0.0903951 -0.00545049 0)
  (0.0908002 -0.00111123 0)
  (0.0912494 0.000521613 0)
  (0.0918814 0.00141078 0)
  (0.0923958 0.00207475 0)
  (0.0927219 0.00292124 0)
  (0.0927848 0.00461961 0)
  (0.0917332 0.00839099 0)
  (0.0862312 0.017658 0)
  (0.0727752 0.0277559 0)
  (0.0516204 0.0400558 0)
  (0.010912 0.0607004 0)
  (0.312556 0.287105 0)
  (-0.164972 0.130875 0)
  (-0.130986 0.0750772 0)
  (-0.150791 0.0168257 0)
  (-0.142401 -0.0496071 0)
  (-0.107467 -0.116966 0)
  (-0.0596931 -0.163028 0)
  (-0.0101878 -0.173484 0)
  (0.0348076 -0.146777 0)
  (0.0702104 -0.106944 0)
  (0.0968486 -0.0658259 0)
  (0.113219 -0.0270974 0)
  (0.121254 0.0094296 0)
  (0.123314 0.0448626 0)
  (0.122744 0.0787913 0)
  (0.111692 0.0896129 0)
  (0.0887112 0.126029 0)
  (0.046296 0.00878969 0)
  (0.0759624 -0.041737 0)
  (0.0889797 -0.0629154 0)
  (0.0953719 -0.0659787 0)
  (0.101141 -0.0586121 0)
  (0.107628 -0.048785 0)
  (0.10599 -0.0376248 0)
  (0.0926535 -0.0245966 0)
  (0.0822522 -0.0173959 0)
  (0.0772195 -0.0132755 0)
  (0.0746483 -0.0105752 0)
  (0.072768 -0.00867463 0)
  (0.0713755 -0.00712036 0)
  (0.0713506 -0.0050679 0)
  (0.0749804 0.000731293 0)
  (0.0734508 0.02391 0)
  (0.0600956 0.0424537 0)
  (0.043291 0.0623707 0)
  (-0.00795391 0.0927893 0)
  (0.446221 0.362 0)
  (-0.184654 0.169695 0)
  (-0.0898246 0.100096 0)
  (-0.107335 0.0222517 0)
  (-0.0921204 -0.0697899 0)
  (-0.0543274 -0.159561 0)
  (-0.0144994 -0.211524 0)
  (0.0220489 -0.215522 0)
  (0.0509673 -0.183112 0)
  (0.0750916 -0.134865 0)
  (0.0924208 -0.084153 0)
  (0.102791 -0.0373002 0)
  (0.108524 0.00443815 0)
  (0.111772 0.0418002 0)
  (0.117556 0.0750299 0)
  (0.129021 0.0986849 0)
  (0.149118 0.134218 0)
  (0.186987 0.103698 0)
  (0.16708 0.0313564 0)
  (0.156876 -0.0216525 0)
  (0.146114 -0.0513653 0)
  (0.134526 -0.0598804 0)
  (0.124137 -0.0551194 0)
  (0.114854 -0.0430711 0)
  (0.113866 -0.0252109 0)
  (0.122789 -0.0150548 0)
  (0.127197 -0.00905027 0)
  (0.124813 -0.00499706 0)
  (0.118438 -0.00186006 0)
  (0.109674 0.000845057 0)
  (0.0985867 0.00352912 0)
  (0.0842313 0.00680108 0)
  (0.0623271 0.0116568 0)
  (0.0479558 0.0359686 0)
  (0.0414362 0.0566122 0)
  (0.0378234 0.0803498 0)
  (-0.0212577 0.121564 0)
  (0.562802 0.418976 0)
  (-0.213603 0.199904 0)
  (-0.0521542 0.115596 0)
  (-0.0605106 0.0231825 0)
  (-0.027295 -0.0955421 0)
  (0.0111391 -0.198988 0)
  (0.0386682 -0.245188 0)
  (0.0579689 -0.241855 0)
  (0.0718797 -0.204345 0)
  (0.08148 -0.149832 0)
  (0.0865985 -0.0928639 0)
  (0.0883427 -0.0418138 0)
  (0.0893791 0.00123904 0)
  (0.091933 0.0370565 0)
  (0.100319 0.0656258 0)
  (0.11609 0.0835799 0)
  (0.140531 0.0885097 0)
  (0.160502 0.0384123 0)
  (0.1622 -0.00524116 0)
  (0.15622 -0.0319025 0)
  (0.144427 -0.0455133 0)
  (0.129442 -0.0484163 0)
  (0.114488 -0.0430685 0)
  (0.101613 -0.0313505 0)
  (0.0942546 -0.0132469 0)
  (0.0914294 -0.00116067 0)
  (0.0870372 0.00568627 0)
  (0.0808225 0.00982734 0)
  (0.0736364 0.0128993 0)
  (0.0660856 0.0156991 0)
  (0.0581539 0.0188576 0)
  (0.0497463 0.0231448 0)
  (0.0398282 0.0296272 0)
  (0.0327488 0.0446481 0)
  (0.0322227 0.0624979 0)
  (0.0459794 0.0862445 0)
  (0.025759 0.124894 0)
  (0.0723153 0.0840484 0)
  (-0.0213963 -0.0187525 0)
  (-0.238324 -0.0371878 0)
  (0.655019 0.463502 0)
  (-0.244591 0.216905 0)
  (-0.0174938 0.109391 0)
  (0.00758749 -0.00380157 0)
  (0.0547864 -0.136858 0)
  (0.0832622 -0.225961 0)
  (0.0962422 -0.262184 0)
  (0.0978136 -0.251298 0)
  (0.0925631 -0.208216 0)
  (0.083754 -0.149057 0)
  (0.0735623 -0.0890776 0)
  (0.0643443 -0.0377622 0)
  (0.0583681 0.002621 0)
  (0.0589112 0.0326902 0)
  (0.0671913 0.0532187 0)
  (0.0822471 0.0625403 0)
  (0.103525 0.0573306 0)
  (0.119958 0.0277824 0)
  (0.124349 0.00110383 0)
  (0.119292 -0.0180103 0)
  (0.107962 -0.0291298 0)
  (0.0937004 -0.0321117 0)
  (0.0789939 -0.0281895 0)
  (0.0656875 -0.0189982 0)
  (0.055566 -0.00619737 0)
  (0.0479608 0.00404897 0)
  (0.0423186 0.0104221 0)
  (0.0369501 0.0144156 0)
  (0.0318454 0.0174634 0)
  (0.0272086 0.020367 0)
  (0.0232235 0.023734 0)
  (0.0203311 0.0282216 0)
  (0.0185194 0.0344268 0)
  (0.0200691 0.0441804 0)
  (0.0268072 0.0574743 0)
  (0.0469923 0.0771454 0)
  (0.0522182 0.100368 0)
  (0.0851993 0.0742686 0)
  (0.0983954 0.0462349 0)
  (-0.0983421 0.0175629 0)
  (0.738645 0.502033 0)
  (-0.257242 0.195472 0)
  (0.0344309 0.0331948 0)
  (0.107996 -0.0794328 0)
  (0.150523 -0.179829 0)
  (0.164334 -0.24424 0)
  (0.157175 -0.262043 0)
  (0.134939 -0.23921 0)
  (0.10508 -0.190315 0)
  (0.0740573 -0.129077 0)
  (0.0467597 -0.070336 0)
  (0.0266412 -0.0237981 0)
  (0.0152618 0.00865503 0)
  (0.0159998 0.029142 0)
  (0.0247521 0.0413853 0)
  (0.0390137 0.0453077 0)
  (0.0563527 0.0393398 0)
  (0.0685248 0.021519 0)
  (0.0713652 0.00326603 0)
  (0.0669812 -0.0102632 0)
  (0.0570422 -0.017601 0)
  (0.0443626 -0.0187775 0)
  (0.0310291 -0.0148411 0)
  (0.0187435 -0.00715059 0)
  (0.00844023 0.00257316 0)
  (0.00204932 0.0103657 0)
  (-0.00195973 0.0153414 0)
  (-0.00490398 0.0184749 0)
  (-0.00705695 0.0208228 0)
  (-0.0082834 0.0229268 0)
  (-0.00819974 0.0251436 0)
  (-0.00611504 0.0278032 0)
  (-0.0015916 0.0312017 0)
  (0.0071139 0.0362402 0)
  (0.0195163 0.0440389 0)
  (0.0411324 0.0579595 0)
  (0.0599154 0.071426 0)
  (0.0881395 0.0558391 0)
  (0.127496 0.0445098 0)
  (-0.0632751 0.0874209 0)
  (0.853775 0.484761 0)
  (-0.00281285 0.164707 0)
  (0.148336 -0.0540482 0)
  (0.257732 -0.151409 0)
  (0.276783 -0.208374 0)
  (0.25468 -0.236607 0)
  (0.211556 -0.23183 0)
  (0.15524 -0.197558 0)
  (0.0953311 -0.146232 0)
  (0.0405403 -0.0879648 0)
  (-0.000605386 -0.0370898 0)
  (-0.024135 -0.0042721 0)
  (-0.0325636 0.0135081 0)
  (-0.0302222 0.0239304 0)
  (-0.021915 0.0300308 0)
  (-0.00996801 0.0313858 0)
  (0.00296206 0.0267411 0)
  (0.0109478 0.0158791 0)
  (0.0119364 0.00462464 0)
  (0.00789052 -0.00355522 0)
  (-0.000721855 -0.0073339 0)
  (-0.0114561 -0.00676719 0)
  (-0.0223435 -0.00283755 0)
  (-0.0319859 0.00307383 0)
  (-0.0381927 0.00914776 0)
  (-0.0413421 0.0139413 0)
  (-0.0426518 0.0172365 0)
  (-0.0428378 0.0194057 0)
  (-0.0420913 0.020816 0)
  (-0.0402617 0.0216302 0)
  (-0.0369164 0.0218522 0)
  (-0.0313721 0.021381 0)
  (-0.0231153 0.020119 0)
  (-0.0118828 0.0184603 0)
  (0.00252792 0.0181276 0)
  (0.0232381 0.0233166 0)
  (0.0442992 0.0262458 0)
  (0.0637664 0.0120684 0)
  (0.131065 0.0491848 0)
  (-0.396928 0.177377 0)
  (1.01823 0.417489 0)
  (0.485945 0.26946 0)
  (0.497898 0.138572 0)
  (0.483855 -0.0055991 0)
  (0.413234 -0.10619 0)
  (0.318498 -0.152239 0)
  (0.220092 -0.15245 0)
  (0.124021 -0.120982 0)
  (0.0381236 -0.0764649 0)
  (-0.0322938 -0.028901 0)
  (-0.0643801 -0.00443053 0)
  (-0.0789928 0.00801686 0)
  (-0.0812512 0.0146049 0)
  (-0.0777788 0.0188088 0)
  (-0.0708641 0.0213334 0)
  (-0.0623226 0.0215416 0)
  (-0.0543456 0.0188249 0)
  (-0.0499146 0.0133586 0)
  (-0.050138 0.00757405 0)
  (-0.0541094 0.00351082 0)
  (-0.0601909 0.00200162 0)
  (-0.067285 0.00284001 0)
  (-0.0736014 0.00521648 0)
  (-0.0779293 0.00823723 0)
  (-0.0800217 0.0112006 0)
  (-0.080174 0.0135514 0)
  (-0.0789903 0.0150904 0)
  (-0.0769664 0.0158508 0)
  (-0.0744592 0.0159484 0)
  (-0.0718105 0.0155 0)
  (-0.0695219 0.0146632 0)
  (-0.0685608 0.0138119 0)
  (-0.0709055 0.0140247 0)
  (-0.0793264 0.0176747 0)
  (-0.0953613 0.0275078 0)
  (-0.118638 0.0441471 0)
  (-0.152992 0.0645288 0)
  (-0.202077 0.0835412 0)
  (-0.274014 0.0954708 0)
  (-0.514069 0.0896544 0)
  (0.00638539 0.000462415 0)
  (0.142663 -0.0795559 0)
  (0.162011 -0.116096 0)
  (0.102739 -0.103107 0)
  (0.0295548 -0.0692942 0)
  (-0.0458629 -0.0268852 0)
  (-0.0931416 -0.0027821 0)
  (-0.120352 0.00912965 0)
  (-0.130129 0.0128358 0)
  (-0.132221 0.014488 0)
  (-0.130379 0.0157187 0)
  (-0.126337 0.0170841 0)
  (-0.121017 0.0183149 0)
  (-0.115382 0.0188514 0)
  (-0.110661 0.0183118 0)
  (-0.108195 0.0168027 0)
  (-0.108412 0.0152988 0)
  (-0.110695 0.0147446 0)
  (-0.113909 0.015618 0)
  (-0.116961 0.0177726 0)
  (-0.118999 0.0207308 0)
  (-0.119603 0.0240955 0)
  (-0.118732 0.0275787 0)
  (-0.11658 0.0309459 0)
  (-0.113467 0.0340453 0)
  (-0.109728 0.0367614 0)
  (-0.105731 0.0389786 0)
  (-0.101942 0.0405747 0)
  (-0.0989596 0.0414987 0)
  (-0.0974283 0.0419519 0)
  (-0.0977492 0.0427181 0)
  (-0.0996399 0.045614 0)
  (-0.10187 0.0533966 0)
  (-0.102601 0.0678304 0)
  (-0.100639 0.0854717 0)
  (-0.0927117 0.0917887 0)
  (-0.0759972 0.0528405 0)
  (-0.137497 -0.171296 0)
  (0.165304 0.110059 0)
  (0.0113338 -0.00365119 0)
  (-0.0357855 -0.0482603 0)
  (-0.0962886 -0.0413383 0)
  (-0.144503 -0.0287458 0)
  (-0.17244 -0.0217459 0)
  (-0.183585 -0.0209845 0)
  (-0.186002 -0.02167 0)
  (-0.184749 -0.0237466 0)
  (-0.181962 -0.0251902 0)
  (-0.178283 -0.0256683 0)
  (-0.173896 -0.0255434 0)
  (-0.168967 -0.0255058 0)
  (-0.163868 -0.0262928 0)
  (-0.159209 -0.0284903 0)
  (-0.155643 -0.0323229 0)
  (-0.153436 -0.0374253 0)
  (-0.152333 -0.0431493 0)
  (-0.151759 -0.048865 0)
  (-0.151112 -0.0542287 0)
  (-0.149971 -0.0591921 0)
  (-0.148143 -0.0638542 0)
  (-0.145618 -0.0684182 0)
  (-0.142518 -0.0730822 0)
  (-0.139031 -0.0778309 0)
  (-0.135334 -0.0822978 0)
  (-0.131526 -0.0857233 0)
  (-0.12759 -0.0870217 0)
  (-0.123366 -0.0849622 0)
  (-0.118499 -0.0784387 0)
  (-0.112272 -0.0666882 0)
  (-0.10327 -0.0493607 0)
  (-0.0892244 -0.0267821 0)
  (-0.0678204 -0.00126016 0)
  (-0.0395351 0.0201466 0)
  (-0.000783507 0.0171269 0)
  (0.0953585 -0.0721566 0)
  (-0.0915404 -0.126406 0)
  (-0.0539503 -0.3031 0)
  (-0.38795 -0.107111 0)
  (-0.300818 0.0763265 0)
  (-0.298771 0.0700905 0)
  (-0.273765 0.0817183 0)
  (-0.272467 0.0902335 0)
  (-0.270125 0.0982651 0)
  (-0.264105 0.105304 0)
  (-0.256546 0.110454 0)
  (-0.249256 0.114232 0)
  (-0.243091 0.117115 0)
  (-0.237948 0.119509 0)
  (-0.233194 0.121885 0)
  (-0.228189 0.124809 0)
  (-0.222525 0.128801 0)
  (-0.216139 0.134255 0)
  (-0.209304 0.141368 0)
  (-0.20248 0.150084 0)
  (-0.19605 0.160049 0)
  (-0.190163 0.170692 0)
  (-0.184738 0.181431 0)
  (-0.179567 0.191888 0)
  (-0.174408 0.201979 0)
  (-0.16904 0.211851 0)
  (-0.163302 0.221739 0)
  (-0.15713 0.23178 0)
  (-0.150541 0.241851 0)
  (-0.143584 0.251485 0)
  (-0.136271 0.259889 0)
  (-0.12852 0.266055 0)
  (-0.120095 0.268988 0)
  (-0.11049 0.268007 0)
  (-0.0986895 0.26305 0)
  (-0.0830884 0.254952 0)
  (-0.0623622 0.245835 0)
  (-0.0372138 0.239298 0)
  (-0.00796152 0.23877 0)
  (0.0266693 0.244656 0)
  (0.112725 0.291612 0)
  (-0.251244 0.302981 0)
)
;

boundaryField
{
  floor
  {
    type noSlip;
  }
  ceiling
  {
    type noSlip;
  }
  sWall
  {
    type noSlip;
  }
  nWall
  {
    type noSlip;
  }
  sideWalls
  {
    type empty;
  }
  glass1
  {
    type noSlip;
  }
  glass2
  {
    type noSlip;
  }
  sun
  {
    type noSlip;
  }
  heatsource1
  {
    type noSlip;
  }
  heatsource2
  {
    type noSlip;
  }
  Table_master
  {
    type noSlip;
  }
  Table_slave
  {
    type noSlip;
  }
  inlet
  {
    type fixedValue;
    value uniform (0.0382683 -0.092388 0);
  }
  outlet
  {
    type zeroGradient;
  }
} 	// ************************************************************************* //

