/*--------------------------------*- C++ -*----------------------------------*\
  =========                 |
  \\      /  F ield         | OpenFOAM: The Open Source CFD Toolbox
   \\    /   O peration     | Website:  https://openfoam.org
    \\  /    A nd           | Version:  6
     \\/     M anipulation  |
\*---------------------------------------------------------------------------*/
FoamFile
{
    version     2.0;
    format      ascii;
    class       volScalarField;
    location    "300";
    object      epsilon;
}
// * * * * * * * * * * * * * * * * * * * * * * * * * * * * * * * * * * * * * //

dimensions      [0 2 -3 0 0 0 0];

internalField   nonuniform List<scalar> 
459
(
0.000128271
0.000132934
7.37678e-05
7.70011e-05
8.53469e-05
9.47598e-05
0.000104982
0.00011614
0.00012868
0.000142504
0.000155799
0.000167622
0.000177107
0.000183268
0.000182118
1.51429e-05
2.00906e-05
2.30279e-05
1.42886e-05
7.38676e-06
4.67549e-06
3.74863e-06
4.46906e-06
5.91736e-06
8.17066e-06
1.10905e-05
1.45017e-05
1.8097e-05
2.10368e-05
2.3991e-05
2.62982e-05
2.64185e-05
2.91126e-05
2.02458e-05
0.00080462
0.00187303
0.000160387
6.12277e-05
6.00334e-05
6.5362e-05
7.18506e-05
7.93825e-05
8.84652e-05
9.95314e-05
0.000112356
0.000127031
0.000143101
0.000158959
0.00017694
0.000241095
7.37578e-05
4.31178e-05
6.33056e-05
4.9206e-05
2.97129e-05
1.33264e-05
7.00671e-06
6.5826e-06
8.57853e-06
1.3194e-05
2.02734e-05
2.89101e-05
3.82656e-05
4.79273e-05
5.78544e-05
6.61205e-05
6.68683e-05
7.11216e-05
0.00011359
4.02458e-05
0.00222879
0.00653718
0.000572514
9.41062e-05
6.68912e-05
7.00779e-05
7.73579e-05
8.63413e-05
9.69688e-05
0.00010957
0.000123925
0.000140134
0.000158102
0.00017718
0.000198056
0.000230268
0.000305861
0.000186567
0.000162046
7.65867e-05
5.14861e-05
3.84586e-05
3.06005e-05
1.15379e-05
1.46311e-05
1.97165e-05
2.59094e-05
3.35012e-05
4.30195e-05
5.55073e-05
7.31791e-05
0.000100086
7.18111e-05
8.027e-05
0.000101177
0.000111979
0.00447826
0.0140632
0.00158054
0.000184429
8.64831e-05
8.307e-05
9.07167e-05
0.00010128
0.000113594
0.000127562
0.000142597
0.000158666
0.00017597
0.000194498
0.000215317
0.0002452
0.000305757
0.000430612
0.000179835
9.41396e-05
7.19711e-05
6.66095e-05
7.03404e-05
8.17366e-05
0.000107737
0.000106771
0.000106187
0.000106433
0.000108976
0.000115923
0.000130599
0.000159443
0.00022044
0.000151578
0.000186692
0.000231815
0.000327302
0.00744912
0.0230616
0.00347428
0.000436549
0.000143399
0.000115166
0.000119293
0.000130663
0.000144979
0.000160862
0.000176322
0.000191995
0.000208329
0.000223662
0.000233502
0.000232014
0.000215613
0.000180401
0.000126048
9.70503e-05
8.32026e-05
7.79831e-05
7.72236e-05
7.85849e-05
8.10098e-05
8.32272e-05
8.69523e-05
9.3172e-05
0.000103219
0.00011896
0.00014282
0.000177593
0.000225338
0.000282001
0.000365073
0.000465199
0.000527653
0.000752175
0.000506608
0.000332492
0.0110814
0.0302396
0.00662435
0.00129156
0.000405257
0.000241279
0.0002104
0.000209936
0.000220426
0.000230009
0.000237054
0.000245767
0.000258966
0.000275725
0.000290482
0.000294013
0.00027742
0.000240702
0.00019778
0.000163637
0.000140474
0.000126629
0.000119165
0.000115799
0.000114883
0.000115868
0.000119401
0.000126577
0.000139299
0.000160529
0.00019428
0.000245246
0.00031809
0.000416061
0.000540171
0.000678879
0.00078392
0.000801297
0.000461156
0.000374864
0.0149328
0.0325081
0.0120416
0.0044019
0.00182187
0.000912594
0.000608978
0.000489317
0.000441987
0.000396604
0.000358552
0.000333634
0.000325192
0.000331972
0.000347227
0.00035902
0.000354255
0.000329284
0.000292931
0.000256381
0.000225966
0.000203571
0.000188597
0.000179597
0.000174939
0.000173835
0.000176514
0.000183965
0.000198184
0.000222519
0.000261701
0.000320874
0.000405312
0.000518445
0.000658007
0.000807685
0.000928832
0.0009709
0.000885612
0.000371077
0.0151741
0.0355018
0.0209436
0.0143329
0.00803706
0.00423728
0.00239657
0.00151763
0.00105457
0.000787069
0.000612118
0.00049826
0.000430761
0.000400181
0.000397337
0.000409062
0.000416924
0.00040856
0.000386137
0.000356853
0.000327331
0.000301691
0.000281792
0.000267871
0.000259194
0.00025532
0.000256663
0.000264629
0.000282036
0.000313855
0.000366989
0.000445956
0.000553899
0.000688564
0.000844527
0.00102228
0.00123472
0.00150727
0.00182768
0.00106698
0.0131672
0.0202075
0.0490868
0.0360692
0.0204432
0.0111743
0.00624475
0.00366697
0.00227093
0.0014787
0.00102174
0.000753925
0.000596783
0.000509298
0.000469242
0.000460564
0.000466596
0.000471824
0.000468573
0.000456279
0.00043816
0.000418128
0.000399307
0.000383512
0.000371275
0.000362858
0.000358865
0.000360463
0.00036972
0.000390873
0.000426787
0.000483872
0.000568862
0.000688648
0.000848948
0.00103793
0.00120331
0.00149204
0.00395251
0.00147067
0.143691
0.132134
0.0286349
0.0122996
0.0065777
0.00390383
0.0025012
0.00171256
0.00124312
0.000956466
0.000779413
0.000671877
0.000611376
0.000583773
0.0005785
0.000585307
0.000594838
0.00060061
0.000599912
0.000593058
0.000581959
0.000568791
0.000554921
0.000541696
0.000530405
0.000522143
0.000517559
0.000518063
0.000524034
0.000537483
0.000559102
0.000586207
0.000608014
0.000610996
0.000610517
0.000668002
0.00136324
0.00134442
0.098279
0.0710758
0.02386
0.0107964
0.00596794
0.00374499
0.00258385
0.00192949
0.00154477
0.00131375
0.00117792
0.00110471
0.00107402
0.00106978
0.00107983
0.001094
0.0011043
0.00110598
0.0010978
0.00108125
0.00105906
0.00103384
0.00100607
0.000976597
0.000945969
0.000914009
0.000878898
0.000836314
0.000784942
0.000728693
0.000675099
0.00063099
0.000600997
0.000582608
0.000574981
0.000597258
0.00157693
0.00101023
0.00202942
0.00708577
0.0374474
0.0279033
0.0156008
0.00912329
0.00576169
0.00389108
0.00277394
0.00206868
0.00160807
0.00130117
0.00109333
0.000952811
0.000860722
0.000805983
0.000778191
0.000768932
0.000770742
0.000777049
0.000782706
0.000784451
0.000780915
0.000772261
0.000760769
0.000746818
0.000731133
0.000714761
0.000700526
0.000691154
0.000686343
0.000682982
0.000674917
0.00065352
0.000612653
0.000570719
0.000522215
0.000464606
0.000483162
0.000384745
)
;

boundaryField
{
    floor
    {
        Cmu             0.09;
        kappa           0.41;
        E               9.8;
        type            epsilonWallFunction;
        value           nonuniform List<scalar> 
29
(
0.000182118
1.51429e-05
2.00906e-05
2.30279e-05
1.42886e-05
7.38676e-06
4.67549e-06
3.74863e-06
4.46906e-06
5.91736e-06
8.17066e-06
1.10905e-05
1.45017e-05
1.8097e-05
2.10368e-05
2.3991e-05
2.62982e-05
2.64185e-05
2.91126e-05
2.02458e-05
2.02458e-05
4.02458e-05
0.000111979
0.000327302
0.000182118
1.51429e-05
4.31178e-05
0.000186567
0.000430612
)
;
    }
    ceiling
    {
        Cmu             0.09;
        kappa           0.41;
        E               9.8;
        type            epsilonWallFunction;
        value           nonuniform List<scalar> 
43
(
0.00202942
0.00708577
0.0374474
0.0279033
0.0156008
0.00912329
0.00576169
0.00389108
0.00277394
0.00206868
0.00160807
0.00130117
0.00109333
0.000952811
0.000860722
0.000805983
0.000778191
0.000768932
0.000770742
0.000777049
0.000782706
0.000784451
0.000780915
0.000772261
0.000760769
0.000746818
0.000731133
0.000714761
0.000700526
0.000691154
0.000686343
0.000682982
0.000674917
0.00065352
0.000612653
0.000570719
0.000522215
0.000464606
0.000483162
0.000384745
0.0131672
0.0202075
0.098279
)
;
    }
    sWall
    {
        Cmu             0.09;
        kappa           0.41;
        E               9.8;
        type            epsilonWallFunction;
        value           uniform 0.00202942;
    }
    nWall
    {
        Cmu             0.09;
        kappa           0.41;
        E               9.8;
        type            epsilonWallFunction;
        value           nonuniform List<scalar> 6(0.000332492 0.000374864 0.000371077 0.00134442 0.00101023 0.000384745);
    }
    sideWalls
    {
        type            empty;
    }
    glass1
    {
        Cmu             0.09;
        kappa           0.41;
        E               9.8;
        type            epsilonWallFunction;
        value           nonuniform List<scalar> 9(0.000128271 0.00080462 0.00222879 0.00447826 0.00744912 0.0110814 0.0149328 0.0151741 0.0131672);
    }
    glass2
    {
        Cmu             0.09;
        kappa           0.41;
        E               9.8;
        type            epsilonWallFunction;
        value           nonuniform List<scalar> 2(0.00106698 0.00147067);
    }
    sun
    {
        Cmu             0.09;
        kappa           0.41;
        E               9.8;
        type            epsilonWallFunction;
        value           nonuniform List<scalar> 
14
(
0.000128271
0.000132934
7.37678e-05
7.70011e-05
8.53469e-05
9.47598e-05
0.000104982
0.00011614
0.00012868
0.000142504
0.000155799
0.000167622
0.000177107
0.000183268
)
;
    }
    heatsource1
    {
        Cmu             0.09;
        kappa           0.41;
        E               9.8;
        type            epsilonWallFunction;
        value           nonuniform List<scalar> 3(0.000752175 0.000506608 0.000332492);
    }
    heatsource2
    {
        Cmu             0.09;
        kappa           0.41;
        E               9.8;
        type            epsilonWallFunction;
        value           nonuniform List<scalar> 4(0.000241095 7.37578e-05 7.37578e-05 0.000305861);
    }
    Table_master
    {
        Cmu             0.09;
        kappa           0.41;
        E               9.8;
        type            epsilonWallFunction;
        value           nonuniform List<scalar> 9(1.15379e-05 1.46311e-05 1.97165e-05 2.59094e-05 3.35012e-05 4.30195e-05 5.55073e-05 7.31791e-05 0.000100086);
    }
    Table_slave
    {
        Cmu             0.09;
        kappa           0.41;
        E               9.8;
        type            epsilonWallFunction;
        value           nonuniform List<scalar> 9(0.000107737 0.000106771 0.000106187 0.000106433 0.000108976 0.000115923 0.000130599 0.000159443 0.00022044);
    }
    inlet
    {
        type            turbulentMixingLengthDissipationRateInlet;
        mixingLength    0.01;
        phi             phi;
        k               k;
        value           uniform 0.143691;
    }
    outlet
    {
        type            zeroGradient;
    }
}


// ************************************************************************* //
