// -*- C++ -*-
// File generated by PyFoam - sorry for the ugliness

FoamFile
{
 version 2.0;
 format ascii;
 class volScalarField;
 location "300";
 object T;
}

dimensions [ 0 0 0 1 0 0 0 ];

internalField nonuniform List<scalar> 459
(
  303.541
  303.219
  303.218
  303.233
  303.247
  303.259
  303.27
  303.279
  303.288
  303.295
  303.299
  303.299
  303.295
  303.286
  303.274
  301.688
  301.697
  301.721
  301.697
  301.671
  301.671
  301.689
  301.678
  301.665
  301.658
  301.658
  301.664
  301.677
  301.695
  301.725
  301.766
  301.792
  301.789
  301.775
  303.792
  303.334
  303.303
  303.32
  303.341
  303.36
  303.377
  303.392
  303.404
  303.413
  303.414
  303.407
  303.388
  303.355
  303.305
  303.247
  303.06
  301.85
  301.869
  301.883
  301.89
  301.854
  301.814
  301.843
  301.838
  301.838
  301.849
  301.871
  301.904
  301.952
  302.031
  302.13
  302.238
  302.249
  302.053
  301.846
  304.018
  303.457
  303.393
  303.41
  303.439
  303.468
  303.494
  303.517
  303.535
  303.548
  303.55
  303.539
  303.509
  303.458
  303.382
  303.287
  303.199
  302.372
  302.309
  302.3
  302.332
  302.365
  302.363
  302.008
  302.059
  302.127
  302.193
  302.261
  302.333
  302.409
  302.492
  302.592
  302.693
  302.607
  302.562
  302.515
  304.223
  303.587
  303.491
  303.501
  303.539
  303.578
  303.617
  303.651
  303.68
  303.7
  303.708
  303.698
  303.668
  303.61
  303.521
  303.397
  303.239
  303.091
  302.964
  302.99
  303.086
  303.21
  303.325
  303.4
  303.452
  303.459
  303.464
  303.469
  303.473
  303.477
  303.479
  303.476
  303.457
  303.393
  303.399
  303.439
  303.476
  304.412
  303.727
  303.607
  303.6
  303.64
  303.69
  303.74
  303.788
  303.83
  303.862
  303.88
  303.88
  303.861
  303.821
  303.76
  303.683
  303.599
  303.524
  303.471
  303.462
  303.487
  303.524
  303.554
  303.572
  303.583
  303.589
  303.597
  303.607
  303.62
  303.638
  303.658
  303.681
  303.705
  303.725
  303.763
  303.81
  303.861
  303.89
  303.868
  303.857
  304.579
  303.888
  303.773
  303.741
  303.763
  303.813
  303.872
  303.931
  303.986
  304.029
  304.054
  304.063
  304.053
  304.024
  303.976
  303.915
  303.849
  303.787
  303.74
  303.713
  303.702
  303.699
  303.697
  303.695
  303.693
  303.691
  303.694
  303.701
  303.716
  303.739
  303.769
  303.803
  303.84
  303.877
  303.913
  303.946
  303.97
  303.98
  303.925
  303.878
  304.73
  304.104
  304.043
  304.002
  303.973
  303.992
  304.04
  304.098
  304.16
  304.205
  304.234
  304.247
  304.244
  304.224
  304.188
  304.137
  304.079
  304.02
  303.969
  303.928
  303.896
  303.872
  303.852
  303.834
  303.817
  303.802
  303.791
  303.785
  303.788
  303.804
  303.831
  303.866
  303.904
  303.939
  303.97
  303.996
  304.014
  304.019
  303.997
  303.888
  304.951
  304.495
  304.509
  304.466
  304.378
  304.33
  304.326
  304.345
  304.373
  304.404
  304.426
  304.438
  304.438
  304.426
  304.401
  304.361
  304.309
  304.254
  304.201
  304.152
  304.109
  304.07
  304.035
  304.003
  303.972
  303.942
  303.913
  303.887
  303.868
  303.86
  303.867
  303.887
  303.916
  303.95
  303.983
  304.013
  304.043
  304.072
  304.1
  304.136
  305.251
  305.078
  305.299
  305.196
  304.994
  304.847
  304.762
  304.716
  304.688
  304.667
  304.659
  304.655
  304.65
  304.638
  304.617
  304.586
  304.545
  304.497
  304.445
  304.393
  304.343
  304.295
  304.25
  304.206
  304.163
  304.12
  304.077
  304.034
  303.994
  303.96
  303.935
  303.922
  303.922
  303.929
  303.939
  303.952
  303.972
  303.998
  304.042
  304.156
  307.844
  305.836
  305.309
  305.129
  305.039
  304.99
  304.961
  304.944
  304.927
  304.914
  304.899
  304.881
  304.857
  304.826
  304.788
  304.744
  304.695
  304.643
  304.59
  304.537
  304.485
  304.433
  304.382
  304.331
  304.279
  304.226
  304.172
  304.119
  304.07
  304.028
  303.999
  303.981
  303.973
  303.976
  303.987
  304.004
  304.028
  304.067
  307.319
  306.163
  305.762
  305.54
  305.417
  305.345
  305.298
  305.264
  305.236
  305.207
  305.177
  305.144
  305.109
  305.07
  305.028
  304.982
  304.932
  304.88
  304.825
  304.77
  304.714
  304.658
  304.603
  304.548
  304.492
  304.435
  304.378
  304.318
  304.257
  304.198
  304.147
  304.108
  304.083
  304.071
  304.066
  304.067
  304.071
  304.095
  307.521
  307.408
  307.242
  306.757
  306.393
  306.145
  305.983
  305.867
  305.778
  305.704
  305.638
  305.576
  305.517
  305.46
  305.404
  305.348
  305.292
  305.237
  305.181
  305.125
  305.07
  305.015
  304.96
  304.906
  304.851
  304.796
  304.741
  304.686
  304.63
  304.571
  304.51
  304.449
  304.389
  304.335
  304.29
  304.25
  304.213
  304.177
  304.14
  304.129
)
;

boundaryField
{
  floor
  {
    type wallHeatTransfer;
    Tinf uniform 305.2;
    alphaWall uniform 0.24;
    value nonuniform List<scalar> 29
(
  303.528
  302.493
  302.455
  302.452
  302.51
  302.603
  302.687
  302.741
  302.7
  302.639
  302.576
  302.523
  302.482
  302.456
  302.446
  302.449
  302.468
  302.487
  302.471
  302.514
  302.514
  302.471
  302.911
  303.672
  303.528
  302.493
  302.464
  302.742
  303.315
)
;
  }
  ceiling
  {
    type wallHeatTransfer;
    Tinf uniform 303.2;
    alphaWall uniform 0.24;
    value nonuniform List<scalar> 43
(
  307.21
  307.192
  307.112
  306.633
  306.262
  306.005
  305.832
  305.707
  305.608
  305.525
  305.452
  305.385
  305.322
  305.263
  305.206
  305.152
  305.1
  305.049
  304.998
  304.948
  304.898
  304.848
  304.798
  304.749
  304.698
  304.648
  304.597
  304.546
  304.495
  304.441
  304.386
  304.33
  304.275
  304.226
  304.184
  304.145
  304.11
  304.075
  304.043
  304.027
  305.163
  305.006
  307.218
)
;
  }
  sWall
  {
    type wallHeatTransfer;
    Tinf uniform 315.2;
    alphaWall uniform 0.36;
    value uniform 308.323;
  }
  nWall
  {
    type wallHeatTransfer;
    Tinf uniform 307.2;
    alphaWall uniform 0.36;
    value nonuniform List<scalar> 6
(
  304.397
  304.4
  304.409
  304.427
  304.478
  304.609
)
;
  }
  sideWalls
  {
    type empty;
  }
  glass1
  {
    type wallHeatTransfer;
    Tinf uniform 315.2;
    alphaWall uniform 4.3;
    value nonuniform List<scalar> 9
(
  312.334
  311.166
  310.469
  310.008
  309.697
  309.475
  309.33
  309.443
  309.715
)
;
  }
  glass2
  {
    type wallHeatTransfer;
    Tinf uniform 307.2;
    alphaWall uniform 4.3;
    value nonuniform List<scalar> 2
(
  306.05
  305.991
)
;
  }
  sun
  {
    type wallHeatTransfer;
    Tinf uniform 305.2;
    alphaWall uniform 0.24;
    value nonuniform List<scalar> 14
(
  303.779
  303.5
  303.541
  303.55
  303.554
  303.557
  303.559
  303.561
  303.562
  303.561
  303.559
  303.554
  303.547
  303.538
)
;
  }
  heatsource1
  {
    type fixedGradient;
    gradient uniform 0;
  }
  heatsource2
  {
    type fixedGradient;
    gradient uniform 0;
  }
  Table_master
  {
    type zeroGradient;
  }
  Table_slave
  {
    type zeroGradient;
  }
  inlet
  {
    type fixedValue;
    value uniform 293.15;
  }
  outlet
  {
    type zeroGradient;
  }
} 	// ************************************************************************* //

