// -*- C++ -*-
// File generated by PyFoam - sorry for the ugliness

FoamFile
{
 version 2.0;
 format ascii;
 class volVectorField;
 location "900";
 object U;
}

dimensions [ 0 1 -1 0 0 0 0 ];

internalField nonuniform List<vector> 459
(
  (0.0342945 0.0858994 0)
  (-0.16711 0.0254617 0)
  (-0.191834 0.0178342 0)
  (-0.222833 0.0121321 0)
  (-0.245259 0.00583989 0)
  (-0.258006 -0.000858153 0)
  (-0.259375 -0.0080299 0)
  (-0.2481 -0.0156981 0)
  (-0.224783 -0.0231551 0)
  (-0.191347 -0.029064 0)
  (-0.151547 -0.0323233 0)
  (-0.109799 -0.0324001 0)
  (-0.0703488 -0.0294585 0)
  (-0.0383621 -0.0246539 0)
  (-0.0277994 -0.0198487 0)
  (-0.00639157 0.00910423 0)
  (-0.0299343 -0.0163937 0)
  (-0.00886759 -0.0261969 0)
  (0.0148269 -0.0202769 0)
  (0.0299012 -0.0139128 0)
  (0.0425155 -0.00902685 0)
  (0.0505403 -0.0052434 0)
  (0.0547539 -0.00325799 0)
  (0.0566759 -0.0024656 0)
  (0.0576378 -0.0021273 0)
  (0.0582423 -0.00191951 0)
  (0.0585959 -0.00175389 0)
  (0.0586455 -0.00155835 0)
  (0.0582196 -0.00117185 0)
  (0.0568208 -0.000244142 0)
  (0.0533732 0.00170654 0)
  (0.0467033 0.00375563 0)
  (0.041092 0.00534986 0)
  (-0.0141972 0.0200938 0)
  (0.208973 0.176027 0)
  (-0.156369 0.0674095 0)
  (-0.154796 0.0530371 0)
  (-0.186967 0.0411968 0)
  (-0.20926 0.027751 0)
  (-0.22232 0.012574 0)
  (-0.224399 -0.00465322 0)
  (-0.214077 -0.0233214 0)
  (-0.192561 -0.0408034 0)
  (-0.162193 -0.0539869 0)
  (-0.126857 -0.0607558 0)
  (-0.0906357 -0.0604959 0)
  (-0.0570883 -0.0538278 0)
  (-0.0296251 -0.0424025 0)
  (-0.0122187 -0.0287529 0)
  (0.00156164 -0.0108293 0)
  (0.000306903 0.0155332 0)
  (0.0618137 0.0368108 0)
  (0.0233535 -0.0172672 0)
  (0.0320309 -0.0308595 0)
  (0.0429722 -0.0276559 0)
  (0.0517092 -0.019981 0)
  (0.0581928 -0.0125898 0)
  (0.0610231 -0.00542148 0)
  (0.0615964 -0.00128681 0)
  (0.0615676 0.000444249 0)
  (0.0616842 0.00121355 0)
  (0.0618911 0.00168691 0)
  (0.0620425 0.00207395 0)
  (0.0621014 0.00253775 0)
  (0.0620261 0.00336959 0)
  (0.061335 0.00539507 0)
  (0.057811 0.0110376 0)
  (0.0488067 0.0157109 0)
  (0.0453817 0.018731 0)
  (-0.0513565 0.0437132 0)
  (0.369287 0.263467 0)
  (-0.173339 0.107438 0)
  (-0.116285 0.0858776 0)
  (-0.147705 0.0647419 0)
  (-0.16762 0.0425806 0)
  (-0.179849 0.0179121 0)
  (-0.181631 -0.0101133 0)
  (-0.170655 -0.0400121 0)
  (-0.149411 -0.0670941 0)
  (-0.121153 -0.0863008 0)
  (-0.0899624 -0.0949618 0)
  (-0.0593352 -0.0930256 0)
  (-0.0315474 -0.0819376 0)
  (-0.00866839 -0.0639896 0)
  (0.00834241 -0.040532 0)
  (0.0194644 -0.0142187 0)
  (0.0237334 0.0227446 0)
  (0.110483 -0.0249731 0)
  (0.0740362 -0.036227 0)
  (0.0682439 -0.0372997 0)
  (0.0694953 -0.032235 0)
  (0.0706338 -0.0245442 0)
  (0.0718041 -0.0177893 0)
  (0.0704881 -0.0142941 0)
  (0.0658591 -0.0101239 0)
  (0.0624887 -0.00784361 0)
  (0.0609468 -0.00653869 0)
  (0.0602708 -0.00570284 0)
  (0.0599116 -0.00512866 0)
  (0.0598486 -0.00463523 0)
  (0.0604947 -0.00386376 0)
  (0.0628977 -0.000921938 0)
  (0.0609043 0.015337 0)
  (0.0481986 0.0265929 0)
  (0.0519465 0.0340105 0)
  (-0.0842081 0.0680241 0)
  (0.51401 0.333826 0)
  (-0.208197 0.142954 0)
  (-0.075344 0.113882 0)
  (-0.105487 0.0848571 0)
  (-0.119992 0.0564348 0)
  (-0.129065 0.0240489 0)
  (-0.127896 -0.0146369 0)
  (-0.113869 -0.0563598 0)
  (-0.0922663 -0.0922787 0)
  (-0.0670957 -0.115845 0)
  (-0.0418576 -0.124879 0)
  (-0.0189129 -0.120698 0)
  (0.0015078 -0.105451 0)
  (0.0183036 -0.0826674 0)
  (0.0325269 -0.0558682 0)
  (0.0476782 -0.0268925 0)
  (0.0690247 0.00485817 0)
  (0.0993091 0.0169559 0)
  (0.104357 -0.021764 0)
  (0.090899 -0.0323681 0)
  (0.0820187 -0.0317433 0)
  (0.0768859 -0.0278 0)
  (0.0729284 -0.0219366 0)
  (0.0701726 -0.0144505 0)
  (0.0710839 -0.00869377 0)
  (0.0755945 -0.00650804 0)
  (0.0794233 -0.00531833 0)
  (0.0819242 -0.00449886 0)
  (0.0834599 -0.00358881 0)
  (0.0836271 -0.00229097 0)
  (0.0813257 -0.000339053 0)
  (0.0752892 0.00257599 0)
  (0.0630519 0.0069569 0)
  (0.0512068 0.0256338 0)
  (0.0391135 0.0414403 0)
  (0.0562951 0.0538575 0)
  (-0.119471 0.0895831 0)
  (0.639311 0.388339 0)
  (-0.250833 0.17197 0)
  (-0.0345583 0.130081 0)
  (-0.0612581 0.0964089 0)
  (-0.0677465 0.0645161 0)
  (-0.070839 0.0270084 0)
  (-0.0608854 -0.0214182 0)
  (-0.0416683 -0.0740281 0)
  (-0.0211054 -0.115176 0)
  (-0.00185012 -0.139306 0)
  (0.0143869 -0.145724 0)
  (0.0267913 -0.137885 0)
  (0.0365122 -0.119972 0)
  (0.0443419 -0.0955476 0)
  (0.0515677 -0.0681299 0)
  (0.0601376 -0.0414876 0)
  (0.0727528 -0.0218309 0)
  (0.083269 -0.0206819 0)
  (0.0843628 -0.0280859 0)
  (0.0780866 -0.0287658 0)
  (0.0699283 -0.0258526 0)
  (0.0631006 -0.022042 0)
  (0.0578154 -0.0175565 0)
  (0.0544426 -0.0122884 0)
  (0.053852 -0.00662916 0)
  (0.0557637 -0.00390158 0)
  (0.0580806 -0.00298345 0)
  (0.0603477 -0.00235249 0)
  (0.062518 -0.000990537 0)
  (0.064303 0.00173603 0)
  (0.0644969 0.00599095 0)
  (0.0624388 0.011962 0)
  (0.0574938 0.0202274 0)
  (0.0510839 0.0349239 0)
  (0.0411412 0.0524449 0)
  (0.0645712 0.0722909 0)
  (-0.0239176 0.10133 0)
  (0.0464464 0.0308793 0)
  (-0.0620129 -0.0342025 0)
  (-0.272762 -0.0569343 0)
  (0.730452 0.433801 0)
  (-0.292445 0.191519 0)
  (-0.00331591 0.126677 0)
  (-0.0160997 0.0976996 0)
  (-0.0120305 0.0669799 0)
  (-0.00646106 0.0240356 0)
  (0.0222929 -0.0386168 0)
  (0.0440998 -0.0943791 0)
  (0.0596043 -0.13253 0)
  (0.068991 -0.151833 0)
  (0.0729242 -0.154263 0)
  (0.0728053 -0.14341 0)
  (0.0701376 -0.123319 0)
  (0.0664216 -0.0979848 0)
  (0.0631377 -0.0710743 0)
  (0.0616793 -0.0462333 0)
  (0.0628919 -0.0276846 0)
  (0.0636882 -0.020179 0)
  (0.0604389 -0.0195676 0)
  (0.0534956 -0.0195152 0)
  (0.0455761 -0.0180105 0)
  (0.0388435 -0.0157179 0)
  (0.0338323 -0.0129844 0)
  (0.0308449 -0.00987363 0)
  (0.0301585 -0.00699158 0)
  (0.0314505 -0.00592897 0)
  (0.0337187 -0.00593382 0)
  (0.0365462 -0.00580281 0)
  (0.0397885 -0.00455034 0)
  (0.0432135 -0.00127413 0)
  (0.0466316 0.00452123 0)
  (0.0486924 0.0125599 0)
  (0.049561 0.0228767 0)
  (0.0505828 0.0368528 0)
  (0.0498375 0.0541206 0)
  (0.0732535 0.0768008 0)
  (0.0525172 0.0947754 0)
  (0.0936721 0.066834 0)
  (0.116352 0.0442137 0)
  (-0.128787 -0.00679175 0)
  (0.782429 0.475121 0)
  (-0.313389 0.176991 0)
  (0.0235166 0.0771885 0)
  (0.0425739 0.0739477 0)
  (0.0576954 0.0523805 0)
  (0.084367 0.00115728 0)
  (0.118538 -0.0630095 0)
  (0.137794 -0.111816 0)
  (0.144167 -0.141268 0)
  (0.140361 -0.152819 0)
  (0.129122 -0.149445 0)
  (0.113366 -0.134905 0)
  (0.0956636 -0.113078 0)
  (0.078252 -0.0878721 0)
  (0.0628129 -0.0624958 0)
  (0.0505776 -0.0400369 0)
  (0.0419822 -0.0235662 0)
  (0.0355058 -0.0151525 0)
  (0.0289817 -0.0126102 0)
  (0.0218962 -0.0120703 0)
  (0.015145 -0.0113829 0)
  (0.00963782 -0.0104267 0)
  (0.00569191 -0.0093565 0)
  (0.00349335 -0.00824774 0)
  (0.00313498 -0.00751392 0)
  (0.00427404 -0.00779539 0)
  (0.00628704 -0.00861943 0)
  (0.00890938 -0.00915779 0)
  (0.012187 -0.00857585 0)
  (0.0162789 -0.0059004 0)
  (0.022014 -2.68521e-05 0)
  (0.0285757 0.00878616 0)
  (0.034811 0.0192379 0)
  (0.0425008 0.031605 0)
  (0.0509773 0.045702 0)
  (0.0739286 0.0639505 0)
  (0.0877671 0.0720322 0)
  (0.119781 0.0511892 0)
  (0.158955 0.0434651 0)
  (-0.0355172 0.0927824 0)
  (0.887121 0.477832 0)
  (-0.0707383 0.156658 0)
  (0.106077 0.00391037 0)
  (0.16923 -0.0164847 0)
  (0.182234 -0.0353929 0)
  (0.217854 -0.0694995 0)
  (0.239657 -0.102252 0)
  (0.242136 -0.125617 0)
  (0.228112 -0.137095 0)
  (0.202542 -0.13692 0)
  (0.170295 -0.126866 0)
  (0.135597 -0.109569 0)
  (0.101484 -0.0877226 0)
  (0.0704414 -0.0645904 0)
  (0.0439272 -0.0425915 0)
  (0.0232785 -0.0242853 0)
  (0.00895129 -0.0121444 0)
  (-0.000404882 -0.00660388 0)
  (-0.00703245 -0.00545961 0)
  (-0.0125718 -0.00578753 0)
  (-0.0173347 -0.00621167 0)
  (-0.0211462 -0.00655865 0)
  (-0.0239267 -0.00690354 0)
  (-0.0256185 -0.00734038 0)
  (-0.026268 -0.00807798 0)
  (-0.0261789 -0.00928081 0)
  (-0.0257315 -0.010701 0)
  (-0.0250632 -0.0119125 0)
  (-0.02404 -0.0124406 0)
  (-0.0222845 -0.01173 0)
  (-0.0189299 -0.00907419 0)
  (-0.011254 -0.00367383 0)
  (-0.000640557 0.00413798 0)
  (0.0106413 0.0122966 0)
  (0.0233071 0.0187886 0)
  (0.0443328 0.0256119 0)
  (0.0643008 0.0200467 0)
  (0.0835818 -0.00176414 0)
  (0.141293 0.0482842 0)
  (-0.432868 0.205065 0)
  (1.03223 0.430133 0)
  (0.497078 0.285173 0)
  (0.503316 0.191584 0)
  (0.511735 0.120099 0)
  (0.487015 0.0685545 0)
  (0.444189 0.0151294 0)
  (0.394156 -0.0331593 0)
  (0.340616 -0.0673223 0)
  (0.283299 -0.0848796 0)
  (0.224628 -0.0878847 0)
  (0.167905 -0.080385 0)
  (0.115895 -0.0663931 0)
  (0.0696125 -0.0486617 0)
  (0.0309407 -0.0306067 0)
  (-0.000569273 -0.014399 0)
  (-0.0214631 -0.00427575 0)
  (-0.0325965 -0.000428653 0)
  (-0.0387477 0.00019287 0)
  (-0.0426934 -0.000637848 0)
  (-0.0459934 -0.00182708 0)
  (-0.0490621 -0.00296041 0)
  (-0.0518374 -0.00404213 0)
  (-0.0543054 -0.00511986 0)
  (-0.0564718 -0.00623943 0)
  (-0.058464 -0.00746672 0)
  (-0.0605642 -0.00880498 0)
  (-0.0631032 -0.0100666 0)
  (-0.0663721 -0.0109127 0)
  (-0.0706744 -0.010864 0)
  (-0.076413 -0.00928342 0)
  (-0.0840907 -0.00540734 0)
  (-0.0941444 0.00150273 0)
  (-0.104735 0.0111161 0)
  (-0.11841 0.0233582 0)
  (-0.140083 0.0382798 0)
  (-0.171929 0.0553063 0)
  (-0.217865 0.071477 0)
  (-0.274242 0.0846658 0)
  (-0.350434 0.0931792 0)
  (-0.617758 0.0904255 0)
  (-0.147819 0.0830775 0)
  (0.134917 0.0619876 0)
  (0.218086 0.00614468 0)
  (0.20158 -0.0287877 0)
  (0.18582 -0.0431551 0)
  (0.163254 -0.0478106 0)
  (0.130736 -0.0461401 0)
  (0.0921618 -0.0396952 0)
  (0.0522929 -0.0299066 0)
  (0.0143503 -0.0176188 0)
  (-0.0229167 -0.00379987 0)
  (-0.0466266 0.00392305 0)
  (-0.061072 0.00741599 0)
  (-0.0680254 0.00790401 0)
  (-0.0714128 0.00719252 0)
  (-0.0735997 0.00628549 0)
  (-0.075445 0.00542209 0)
  (-0.0772991 0.00469536 0)
  (-0.079261 0.0040261 0)
  (-0.0814652 0.00326804 0)
  (-0.083947 0.00232665 0)
  (-0.0866789 0.00128597 0)
  (-0.089741 0.00023667 0)
  (-0.0932504 -0.000681707 0)
  (-0.0972901 -0.00123275 0)
  (-0.101873 -0.00111206 0)
  (-0.106929 2.39189e-05 0)
  (-0.112283 0.00252975 0)
  (-0.117476 0.00679773 0)
  (-0.121552 0.0134286 0)
  (-0.124962 0.0235367 0)
  (-0.127659 0.0376338 0)
  (-0.130147 0.0552928 0)
  (-0.132215 0.0741799 0)
  (-0.130646 0.0873409 0)
  (-0.113099 0.0804456 0)
  (-0.0725963 0.0261345 0)
  (-0.198328 -0.176449 0)
  (-0.0234143 0.231216 0)
  (0.0634503 0.0997662 0)
  (0.0375356 0.0191829 0)
  (0.0254122 -0.0042526 0)
  (0.0160989 -0.00965476 0)
  (-0.00255881 -0.0110341 0)
  (-0.0275302 -0.00851867 0)
  (-0.0532568 -0.00387626 0)
  (-0.0750338 0.000693376 0)
  (-0.0900115 0.0037629 0)
  (-0.0971822 0.00407775 0)
  (-0.0996799 0.0019004 0)
  (-0.0999586 -0.00101092 0)
  (-0.099237 -0.00430514 0)
  (-0.0986046 -0.00766662 0)
  (-0.0984587 -0.0108697 0)
  (-0.0988371 -0.0138119 0)
  (-0.0996496 -0.0163147 0)
  (-0.100758 -0.018226 0)
  (-0.102064 -0.0194864 0)
  (-0.103549 -0.020124 0)
  (-0.105277 -0.0202489 0)
  (-0.107235 -0.0198753 0)
  (-0.109414 -0.019155 0)
  (-0.111753 -0.0180809 0)
  (-0.114076 -0.0164608 0)
  (-0.116074 -0.0139632 0)
  (-0.117302 -0.0100759 0)
  (-0.11728 -0.00455567 0)
  (-0.115189 0.00299844 0)
  (-0.109731 0.0132873 0)
  (-0.0995836 0.0269516 0)
  (-0.0841796 0.0437996 0)
  (-0.0639333 0.0607357 0)
  (-0.0401598 0.0697033 0)
  (0.0284534 0.0378158 0)
  (0.147227 -0.0415265 0)
  (-0.0495675 -0.0651496 0)
  (-0.10425 -0.349046 0)
  (-0.439606 -0.120338 0)
  (-0.310969 0.0958284 0)
  (-0.226559 -0.0203861 0)
  (-0.180002 -0.0418038 0)
  (-0.165517 -0.0298 0)
  (-0.163093 -0.0169244 0)
  (-0.164411 -0.00666431 0)
  (-0.164975 0.00189979 0)
  (-0.162713 0.0093816 0)
  (-0.158002 0.0162351 0)
  (-0.150955 0.0224636 0)
  (-0.142494 0.0278157 0)
  (-0.13404 0.0323105 0)
  (-0.126439 0.0365209 0)
  (-0.120017 0.040663 0)
  (-0.114778 0.0448257 0)
  (-0.110548 0.0488424 0)
  (-0.107179 0.0523797 0)
  (-0.104572 0.0551094 0)
  (-0.102651 0.0568171 0)
  (-0.101355 0.0574375 0)
  (-0.100629 0.0570295 0)
  (-0.100434 0.0557284 0)
  (-0.100731 0.0536394 0)
  (-0.101439 0.0511161 0)
  (-0.102433 0.048385 0)
  (-0.103497 0.0455511 0)
  (-0.104277 0.0426904 0)
  (-0.104195 0.0398619 0)
  (-0.102198 0.0377642 0)
  (-0.0966831 0.0370527 0)
  (-0.0854781 0.0383868 0)
  (-0.0666526 0.042519 0)
  (-0.040285 0.0499421 0)
  (-0.00529468 0.0597109 0)
  (0.032531 0.0562645 0)
  (0.0903688 0.019226 0)
  (0.118732 -0.0193155 0)
  (-0.505052 0.0592861 0)
)
;

boundaryField
{
  floor
  {
    type noSlip;
  }
  ceiling
  {
    type noSlip;
  }
  sWall
  {
    type noSlip;
  }
  nWall
  {
    type noSlip;
  }
  sideWalls
  {
    type empty;
  }
  glass1
  {
    type noSlip;
  }
  glass2
  {
    type noSlip;
  }
  sun
  {
    type noSlip;
  }
  heatsource1
  {
    type noSlip;
  }
  heatsource2
  {
    type noSlip;
  }
  Table_master
  {
    type noSlip;
  }
  Table_slave
  {
    type noSlip;
  }
  inlet
  {
    type fixedValue;
    value uniform (0.3 0 0);
  }
  outlet
  {
    type zeroGradient;
  }
} 	// ************************************************************************* //

