/*--------------------------------*- C++ -*----------------------------------*\
  =========                 |
  \\      /  F ield         | OpenFOAM: The Open Source CFD Toolbox
   \\    /   O peration     | Website:  https://openfoam.org
    \\  /    A nd           | Version:  6
     \\/     M anipulation  |
\*---------------------------------------------------------------------------*/
FoamFile
{
    version     2.0;
    format      ascii;
    class       volScalarField;
    location    "200";
    object      alphat;
}
// * * * * * * * * * * * * * * * * * * * * * * * * * * * * * * * * * * * * * //

dimensions      [1 -1 -1 0 0 0 0];

internalField   nonuniform List<scalar> 
459
(
0.00142251
0.00157078
0.0016193
0.00170701
0.00179438
0.00188713
0.00196391
0.00201034
0.00201597
0.00197262
0.00184236
0.001667
0.00148443
0.00129495
0.00111108
0.000620522
0.000725976
0.000850242
0.000923898
0.000933754
0.000911159
0.000854724
0.000794263
0.000739768
0.000692295
0.000651056
0.000615127
0.000583523
0.000555533
0.000530124
0.000505911
0.000480945
0.000456661
0.000414191
0.00187421
0.00481859
0.0047236
0.00548052
0.00621617
0.00676806
0.00724504
0.00764359
0.00792861
0.00807077
0.0079837
0.00756083
0.0068712
0.00553606
0.00365152
0.00132987
0.00107739
0.000610135
0.00150297
0.0024257
0.00319355
0.00365842
0.00360425
0.00252435
0.00208378
0.00179951
0.00159481
0.00143992
0.00131867
0.00122229
0.00113465
0.0010417
0.000951914
0.000872224
0.000933821
0.000481826
0.00224215
0.0065366
0.00582649
0.00672478
0.00715226
0.00747101
0.00778711
0.00813526
0.00851603
0.00888755
0.00909283
0.00900006
0.00863875
0.0078605
0.00636282
0.00407604
0.00128829
0.000785056
0.00157683
0.00261191
0.0037423
0.00454951
0.00436241
0.00116561
0.00101349
0.00089083
0.000792776
0.000714003
0.000650139
0.000597911
0.0005559
0.000524618
0.000590837
0.000708981
0.00107772
0.000529199
0.00258817
0.00812319
0.00600554
0.0069476
0.00708469
0.00720587
0.00737915
0.00767493
0.00811558
0.00862405
0.00896088
0.00906716
0.00894702
0.00857423
0.0077172
0.00615275
0.00330891
0.0014396
0.00170935
0.00253663
0.00379692
0.0050785
0.00593716
0.00554202
0.00132723
0.00120256
0.00110631
0.00102771
0.000958848
0.000893893
0.000829111
0.000761449
0.000685577
0.000628976
0.00068987
0.0012431
0.000565415
0.00293613
0.0101134
0.00664654
0.00714773
0.00720033
0.00713485
0.0071463
0.00739262
0.00786207
0.00838431
0.00876618
0.00890339
0.00882233
0.00859059
0.00816243
0.00737929
0.0060352
0.00531
0.00574173
0.0064962
0.0073287
0.00797661
0.008277
0.00801152
0.00652065
0.00570696
0.00515995
0.00465153
0.0041064
0.00352266
0.00290908
0.00228541
0.00168329
0.0011807
0.000936257
0.00118534
0.000706269
0.000671413
0.00080859
0.000908778
0.00330249
0.0123134
0.00879186
0.00795548
0.00777694
0.00736729
0.00717672
0.00735149
0.00783217
0.00839028
0.00878134
0.00888422
0.00876123
0.00858352
0.00848586
0.00841897
0.0082687
0.00848295
0.00917176
0.00975146
0.0101047
0.0101846
0.00999284
0.00952099
0.00871602
0.0079326
0.00719995
0.00646629
0.00571318
0.00492829
0.00411678
0.0032934
0.0024966
0.00180488
0.0013815
0.00125207
0.000963532
0.000853371
0.00123328
0.000951363
0.00362143
0.013774
0.0117109
0.00976947
0.0085492
0.00760505
0.00724598
0.00744499
0.00801156
0.00863763
0.00903488
0.00909646
0.00897296
0.00900266
0.0094065
0.00991398
0.0103638
0.010907
0.0114402
0.0116401
0.0115376
0.0111825
0.0106305
0.00992493
0.00909692
0.00827451
0.00748442
0.00672092
0.00596571
0.00520967
0.00447639
0.00375605
0.00305354
0.00239673
0.00193756
0.00165084
0.00140344
0.00137141
0.00143453
0.00110908
0.00367586
0.011772
0.01069
0.00923466
0.00786095
0.00711194
0.00707745
0.00761125
0.00842454
0.00914553
0.00950108
0.00950861
0.00953365
0.0102394
0.0109045
0.0113758
0.011754
0.0120784
0.0122242
0.012046
0.0115692
0.0108708
0.0100206
0.00907485
0.00810668
0.00720076
0.00637304
0.00561424
0.00495857
0.00443456
0.00403612
0.0036929
0.00333887
0.00294982
0.00273189
0.00271507
0.00295684
0.00354484
0.00440105
0.0016945
0.00357478
0.00421557
0.00460991
0.00472158
0.00502817
0.00579423
0.00694192
0.00823474
0.00934593
0.00993728
0.00996244
0.0100798
0.0105644
0.0111461
0.0115222
0.0117179
0.0118152
0.0117767
0.0115096
0.010965
0.0101769
0.00921576
0.0081515
0.00706027
0.00601593
0.00507664
0.0042775
0.003647
0.00318393
0.00287236
0.0026798
0.00257201
0.00251788
0.00250214
0.00251804
0.00254514
0.00252842
0.00242099
0.00225816
0.00158126
0.00172575
0.00354936
0.00678383
0.00900361
0.0103321
0.0109522
0.0110135
0.0105262
0.0100236
0.0100312
0.0103587
0.0105543
0.0105791
0.0105032
0.010313
0.00993885
0.00933355
0.00851291
0.00755237
0.00655203
0.00560335
0.00477075
0.00408214
0.00353756
0.00312564
0.00283083
0.00263382
0.00251739
0.00246691
0.00246913
0.00251072
0.00257772
0.00265061
0.00269863
0.00268874
0.00262495
0.0024377
0.00134882
0.00236068
0.00716553
0.0098424
0.010596
0.0103592
0.00966666
0.0088979
0.00831121
0.00799048
0.00784891
0.00773007
0.00759423
0.0074573
0.00729057
0.00703864
0.00665692
0.00614519
0.00555545
0.00496723
0.00444806
0.00402937
0.00370906
0.00346679
0.00327784
0.00312071
0.00298102
0.00285432
0.00274659
0.00267065
0.00263911
0.0026564
0.00271274
0.00278379
0.00283932
0.00280783
0.00287211
0.0029062
0.00137997
0.00209951
0.00221376
0.0022953
0.0024354
0.00224272
0.00209034
0.00195447
0.0018023
0.00165089
0.00152134
0.00142448
0.00135946
0.0013166
0.00128638
0.00126125
0.00123537
0.00120489
0.00116863
0.00112836
0.00108775
0.00105041
0.00101844
0.000992096
0.000970507
0.000952583
0.000937813
0.000926745
0.000921046
0.000923155
0.00093561
0.000960392
0.000998672
0.00105089
0.00111652
0.00119549
0.00127696
0.0012934
0.00123908
0.00117481
0.00110318
)
;

boundaryField
{
    floor
    {
        type            compressible::alphatWallFunction;
        Prt             0.85;
        value           nonuniform List<scalar> 
29
(
0.000157832
8.74409e-05
0.000103008
0.00012101
0.000131533
0.000132935
0.000129724
0.00012166
0.00011295
0.000105031
9.80758e-05
9.19867e-05
8.66434e-05
8.19117e-05
7.76948e-05
7.38439e-05
7.01528e-05
6.63237e-05
6.2575e-05
5.59573e-05
5.59566e-05
6.64575e-05
7.37003e-05
7.91832e-05
0.00015783
8.74399e-05
8.5889e-05
0.000111591
0.000202822
)
;
    }
    ceiling
    {
        type            compressible::alphatWallFunction;
        Prt             0.85;
        value           nonuniform List<scalar> 
43
(
0.000289973
0.000304733
0.000315219
0.000333295
0.000308663
0.000288996
0.000271324
0.000251367
0.000231327
0.00021402
0.000200976
0.000192164
0.00018633
0.000182205
0.000178766
0.000175215
0.000171022
0.000166015
0.000160434
0.000154782
0.000149563
0.000145076
0.000141367
0.000138318
0.000135781
0.000133685
0.000132111
0.000131298
0.000131594
0.000133358
0.000136866
0.000142266
0.000149595
0.00015875
0.000169683
0.00018088
0.000183128
0.000175683
0.000166828
0.000156898
0.000475719
0.000553561
0.000323377
)
;
    }
    sWall
    {
        type            compressible::alphatWallFunction;
        Prt             0.85;
        value           uniform 0.000288773;
    }
    nWall
    {
        type            compressible::alphatWallFunction;
        Prt             0.85;
        value           nonuniform List<scalar> 6(0.000129196 0.000135236 0.000157357 0.00019038 0.000194612 0.000156584);
    }
    sideWalls
    {
        type            empty;
    }
    glass1
    {
        type            compressible::alphatWallFunction;
        Prt             0.85;
        value           nonuniform List<scalar> 9(0.000195662 0.000255009 0.000302312 0.000346122 0.000389619 0.000434879 0.000473907 0.000480671 0.000468609);
    }
    glass2
    {
        type            compressible::alphatWallFunction;
        Prt             0.85;
        value           nonuniform List<scalar> 2(0.000235417 0.000220503);
    }
    sun
    {
        type            compressible::alphatWallFunction;
        Prt             0.85;
        value           nonuniform List<scalar> 
14
(
0.00020054
0.00022047
0.000226949
0.00023861
0.000250162
0.000262357
0.000272401
0.000278454
0.000279186
0.000273534
0.000256457
0.00023329
0.000208874
0.000183179
)
;
    }
    heatsource1
    {
        type            compressible::alphatWallFunction;
        Prt             0.85;
        value           nonuniform List<scalar> 3(9.51019e-05 0.000115128 0.000129495);
    }
    heatsource2
    {
        type            compressible::alphatWallFunction;
        Prt             0.85;
        value           nonuniform List<scalar> 4(0.000188093 0.00015328 0.000153278 0.000182408);
    }
    Table_master
    {
        type            compressible::alphatWallFunction;
        Prt             0.85;
        value           nonuniform List<scalar> 9(0.000165542 0.000144326 0.000126948 0.000112853 0.000101378 9.19624e-05 8.41785e-05 7.78564e-05 7.31107e-05);
    }
    Table_slave
    {
        type            compressible::alphatWallFunction;
        Prt             0.85;
        value           nonuniform List<scalar> 9(0.000187743 0.00017065 0.000157315 0.000146326 0.000136618 0.000127386 0.000118098 0.000108306 9.71987e-05);
    }
    inlet
    {
        type            fixedValue;
        value           uniform 1.94e-05;
    }
    outlet
    {
        type            zeroGradient;
    }
}


// ************************************************************************* //
