/*--------------------------------*- C++ -*----------------------------------*\
  =========                 |
  \\      /  F ield         | OpenFOAM: The Open Source CFD Toolbox
   \\    /   O peration     | Website:  https://openfoam.org
    \\  /    A nd           | Version:  6
     \\/     M anipulation  |
\*---------------------------------------------------------------------------*/
FoamFile
{
    version     2.0;
    format      ascii;
    class       surfaceScalarField;
    location    "200";
    object      phi;
}
// * * * * * * * * * * * * * * * * * * * * * * * * * * * * * * * * * * * * * //

dimensions      [1 0 -1 0 0 0 0];

internalField   nonuniform List<scalar> 
852
(
-0.0031139
0.0031713
-0.00432564
0.00121179
-0.00512494
0.000799356
-0.00558367
0.000458788
-0.00564949
6.58779e-05
-0.00527473
-0.000374713
-0.00445643
-0.000818245
-0.00328605
-0.00117033
-0.001929
-0.001357
-0.000580859
-0.0013481
0.000494229
-0.00107506
0.00116163
-0.000667372
0.00140455
-0.000242901
0.00112864
0.000275938
0.00113082
-0.000951942
0.000954794
-0.000885311
-6.66657e-05
-0.000291213
-0.000594128
0.000372474
-0.000663715
0.000911481
-0.000539037
0.00129743
-0.000385977
0.00151801
-0.000220624
0.00162293
-0.000104956
0.00168268
-5.97898e-05
0.00172303
-4.03827e-05
0.00175035
-2.73624e-05
0.00176737
-1.70706e-05
0.00177254
-5.22109e-06
0.00175586
1.663e-05
0.00169129
6.45242e-05
0.00153383
0.0001574
0.00125881
0.000274965
0.000857087
0.000401664
0.000860442
-0.00224484
0.00557142
-0.00338957
0.00235658
-0.00421927
0.00162911
-0.00470071
0.000940286
-0.00479214
0.000157374
-0.00445389
-0.0007129
-0.00371226
-0.00155981
-0.00269486
-0.00218766
-0.00158353
-0.00246827
-0.000544421
-0.00238717
0.000320689
-0.00194015
0.000948142
-0.00129481
0.00131374
-0.000608481
0.00148824
0.000101457
0.00187278
0.000746298
0.000980529
0.000892225
0.000980496
-0.000115186
0.00107869
0.000290744
-0.000472628
0.000730084
-0.00103349
0.00107942
-0.00101307
0.00136933
-0.000828978
0.00157613
-0.000592802
0.00162352
-0.00026805
0.00163418
-0.000115647
0.0016455
-7.115e-05
0.00165491
-4.98329e-05
0.00166133
-3.38244e-05
0.00166554
-2.13294e-05
0.00166695
-6.67814e-06
0.0016611
2.24303e-05
0.00161711
0.000108456
0.00142688
0.00034757
0.00110559
0.000596192
0.000695335
0.00081186
0.00156506
-0.00158438
0.00739444
-0.00255719
0.00332945
-0.00331479
0.00238678
-0.00375238
0.00137794
-0.00382757
0.000232625
-0.0034739
-0.0010665
-0.00275975
-0.00227389
-0.00185889
-0.00308844
-0.000947975
-0.00337912
-0.000143988
-0.00319111
0.000518226
-0.00260235
0.00102732
-0.00180389
0.00137637
-0.000957517
0.00160919
-0.000131356
0.00172893
0.000626581
0.0013713
0.00124987
0.00235182
0.00134371
-0.000252553
0.00168728
-0.000816215
0.001709
-0.00105523
0.00175579
-0.00105988
0.00183084
-0.000904056
0.00195255
-0.000714539
0.00168462
0.00156909
0.00149806
0.00144834
0.00141463
0.0013934
0.00138683
0.00140936
0.00151791
0.00121909
0.000646323
0.000894183
0.00092104
0.000519089
0.00118689
0.00209872
-0.0011032
0.00880817
-0.0018549
0.0040812
-0.00238953
0.00292148
-0.00269566
0.00168412
-0.00265655
0.00019358
-0.00220231
-0.00152066
-0.00150322
-0.0029729
-0.00075107
-0.00384049
-7.45409e-05
-0.00405557
0.000475961
-0.00374157
0.000919459
-0.00304583
0.00126734
-0.00215177
0.00152546
-0.00121564
0.00173126
-0.000337157
0.00193081
0.000427045
0.0022029
0.000977786
0.00328957
0.00126516
0.00283297
0.000466922
0.0027171
-0.000136672
0.00252385
-0.000622961
0.00230957
-0.000840954
0.00212018
-0.000870505
0.0019774
-0.000761307
0.00181107
-0.000548241
0.00202066
-0.000209781
0.00209123
-7.07732e-05
0.00210487
-1.38479e-05
0.00207803
2.66405e-05
0.00200819
6.96313e-05
0.00188681
0.000121166
0.0016973
0.000189291
0.00141015
0.000286929
0.000967015
0.000442906
0.000842571
0.000770698
0.000598297
0.00116525
0.00027018
0.00151494
0.00238832
-0.000757678
0.0099382
-0.00129669
0.00462026
-0.00144404
0.00306888
-0.00150511
0.00174525
-0.00117102
-0.000140471
-0.000553655
-0.00213794
7.66376e-05
-0.00360308
0.000590461
-0.00435421
0.000958964
-0.00442399
0.00121367
-0.00399623
0.00139408
-0.00322624
0.00151796
-0.00227565
0.0016101
-0.0013078
0.00171631
-0.000443373
0.00189571
0.000247643
0.00218113
0.000692368
0.0026038
0.000842497
0.0026245
0.000446233
0.00255431
-6.6478e-05
0.00234937
-0.000418022
0.00209826
-0.000589861
0.00184891
-0.000621181
0.00163195
-0.00054439
0.00146908
-0.000385417
0.00144026
-0.000181018
0.00141659
-4.71615e-05
0.00138091
2.17631e-05
0.00134121
6.62721e-05
0.00129662
0.00011415
0.00123617
0.000181544
0.0011456
0.000279775
0.0010118
0.000420656
0.000844014
0.000610609
0.000720397
0.000894239
0.000624308
0.00126126
0.000373652
0.00176552
0.000413751
0.00234814
-0.000996511
0.00140996
-0.00143605
0.000439221
-0.00138951
-0.000625141
0.0109884
-0.00093831
0.00493349
-0.000488865
0.00261949
5.1381e-05
0.00120505
0.000789291
-0.000878332
0.00144599
-0.00279454
0.00187124
-0.00402822
0.00205931
-0.00454215
0.00207436
-0.00443896
0.0019698
-0.00389163
0.00180857
-0.00306501
0.00163418
-0.00210131
0.00148843
-0.00116209
0.00141256
-0.000367532
0.00144908
0.00021111
0.00159936
0.000542087
0.00183342
0.000608433
0.00192707
0.000352577
0.00183933
2.12525e-05
0.00164551
-0.000224222
0.00140904
-0.000353435
0.00116844
-0.000380625
0.000952686
-0.000328699
0.000788439
-0.000221238
0.000699946
-9.25991e-05
0.000657018
-4.31122e-06
0.000640183
3.85175e-05
0.000643653
6.27178e-05
0.000660882
9.68353e-05
0.000683754
0.000158584
0.000705646
0.000257795
0.000723796
0.000402417
0.000739736
0.000594581
0.000795696
0.000838195
0.000944231
0.00111265
0.00118766
0.00152201
0.00172919
0.00180654
0.00205578
0.00108328
0.00172245
0.000772454
0.000389244
-0.000588451
0.0120505
-0.000341462
0.00468655
0.000967091
0.00131098
0.00215271
1.94648e-05
0.00313799
-0.00186355
0.0036793
-0.00333575
0.00379161
-0.00414039
0.00356297
-0.00431339
0.00310878
-0.00398469
0.00254271
-0.00332554
0.00196565
-0.00248799
0.00143705
-0.00157277
0.00102334
-0.000748447
0.000755013
-9.92544e-05
0.000675601
0.00029049
0.000750755
0.000466913
0.000890637
0.000468531
0.0009427
0.000300489
0.000871774
9.21401e-05
0.000716298
-6.87967e-05
0.000516338
-0.000153539
0.000306681
-0.000171041
0.000117135
-0.000139236
-2.53766e-05
-7.88143e-05
-0.000102188
-1.58797e-05
-0.000122149
1.55541e-05
-0.000101029
1.73013e-05
-4.91203e-05
1.07114e-05
3.06141e-05
1.70018e-05
0.00013523
5.38679e-05
0.000263296
0.000129627
0.000418382
0.00024723
0.000601145
0.000411721
0.000834856
0.000604392
0.00115788
0.000789537
0.00163387
0.00104594
0.00236026
0.00108007
0.0029409
0.000502555
0.00301306
0.000700206
0.0034625
0.00296599
0.00961525
0.00386089
0.0037917
0.00454078
0.000631127
0.00571331
-0.00115302
0.00631317
-0.0024633
0.00626223
-0.00328466
0.00569695
-0.00357496
0.00479022
-0.00340655
0.00370073
-0.00289516
0.00258279
-0.00220762
0.00156929
-0.00147457
0.00070339
-0.000706981
8.83589e-05
-0.000133518
-0.000223286
0.000212311
-0.000285937
0.000353091
-0.000223615
0.000404548
-0.000133514
0.000378386
-0.000108829
0.000275747
-0.00016961
0.000152851
-0.000294088
5.55999e-05
-0.000451651
3.93149e-06
-0.000614748
-8.04376e-06
-0.000757642
3.5528e-06
-0.000858872
2.23063e-05
-0.00090649
3.16277e-05
-0.000911177
2.01307e-05
-0.000887489
-6.49651e-06
-0.000838241
-3.86478e-05
-0.000756158
-6.51941e-05
-0.000631956
-7.04464e-05
-0.000464011
-3.84309e-05
-0.000254771
3.78787e-05
7.94159e-06
0.000148899
0.000321438
0.000290792
0.000659258
0.00045162
0.00106777
0.000637337
0.00149453
0.000653229
0.00159977
0.000397222
0.000825231
0.00147465
0.00453556
0.0102016
0.0139884
0.0124517
0.00216791
0.0114333
-0.000134493
0.0101054
-0.00113517
0.00847084
-0.0016499
0.00665473
-0.00175873
0.00482122
-0.00157299
0.00306429
-0.00113827
0.0014866
-0.000630032
0.000177502
-0.000165614
-0.000711654
0.000182012
-0.00113672
0.000291441
-0.00125785
0.000333351
-0.00125416
0.000349328
-0.0011985
0.00034881
-0.00114328
0.000323091
-0.00113546
0.000267835
-0.00118553
0.000202824
-0.0012787
0.000148653
-0.00139026
0.000115378
-0.00149944
0.000101013
-0.00159307
9.70626e-05
-0.00166515
9.42544e-05
-0.00171909
8.54458e-05
-0.0017669
6.78052e-05
-0.00181984
4.63173e-05
-0.00188938
3.07637e-05
-0.00198695
3.22492e-05
-0.00212061
6.30868e-05
-0.00229576
0.000136604
-0.00252582
0.000267816
-0.00285035
0.000473321
-0.00332634
0.000766667
-0.00402506
0.00115023
-0.00499289
0.00160506
-0.00633925
0.00199948
-0.00798562
0.00204349
-0.00742667
0.000915591
-0.00262339
0.00503556
0.00389832
0.00355809
0.00134308
0.00335057
-0.000927684
0.00273847
-0.00103791
0.0017044
-0.000724824
0.000494685
-0.000363476
-0.000666658
2.2814e-05
-0.00154088
0.000244013
-0.00202845
0.000321806
-0.00219595
0.000349384
-0.00223618
0.000331555
-0.00221167
0.000308728
-0.00215758
0.000295138
-0.00209701
0.000288125
-0.00205117
0.000277139
-0.00203862
0.000255164
-0.00206196
0.000226041
-0.00211073
0.000197284
-0.00216966
0.000174171
-0.00222633
0.000157535
-0.00227445
0.000145046
-0.00231363
0.000133291
-0.00234792
0.000119585
-0.00238389
0.000103633
-0.00242672
8.9006e-05
-0.00247855
8.24509e-05
-0.00253928
9.28493e-05
-0.00260712
0.000130794
-0.00267963
0.000208988
-0.00275516
0.000343217
-0.00283379
0.000551828
-0.00291472
0.000847476
-0.00298191
0.0012173
-0.00296534
0.00158838
-0.00276517
0.0017992
-0.0020988
0.001377
-0.000825715
-0.000357626
-0.00338317
-0.000219259
0.00418667
0.000345592
0.000778095
-0.000682818
0.000100452
-0.00173015
9.18389e-06
-0.00254665
9.14582e-05
-0.00309598
0.000185654
-0.00333397
0.000260623
-0.00337788
0.000287759
-0.00333303
0.000276807
-0.00323349
0.000249714
-0.00312149
0.000219415
-0.00301145
0.000198553
-0.00290627
0.000189824
-0.00280809
0.00018981
-0.00272264
0.000191538
-0.00265691
0.000189293
-0.00261284
0.000181812
-0.0025863
0.000170595
-0.00257015
0.000157863
-0.002558
0.000145219
-0.00254645
0.000133341
-0.00253543
0.000122107
-0.00252699
0.000110993
-0.00252341
9.98953e-05
-0.00252461
9.00536e-05
-0.00252653
8.42203e-05
-0.00252058
8.67475e-05
-0.00249386
0.000103932
-0.00242949
0.000144479
-0.00230673
0.000220321
-0.00210257
0.000347533
-0.00179424
0.000539025
-0.00135759
0.000780519
-0.000738016
0.000968682
0.000176288
0.000884769
0.00126926
0.000283892
0.00159807
-0.000686569
-0.00171294
-0.00766403
-0.0105829
-0.00635693
-0.00556636
-0.00546323
-0.00545554
-0.00536794
-0.00518799
-0.00493462
-0.00465545
-0.00438833
-0.0041492
-0.00394109
-0.00375446
-0.00357711
-0.00340031
-0.00322232
-0.00304714
-0.00287998
-0.00272451
-0.00258213
-0.00245265
-0.00233516
-0.00222893
-0.00213377
-0.00204958
-0.00197505
-0.00190608
-0.00183422
-0.00174469
-0.00161399
-0.00140675
-0.00107151
-0.000544002
0.000225758
0.00118424
0.00205877
0.00233175
0.00163341
)
;

boundaryField
{
    floor
    {
        type            calculated;
        value           nonuniform List<scalar> 
29
(
0
0
0
0
0
0
0
0
0
0
0
0
0
0
0
0
0
0
0
0
-3.4209e-06
-9.35272e-06
-1.46356e-05
-1.94951e-05
-2.15677e-06
-2.8906e-06
-8.75131e-06
-1.25106e-05
-1.03077e-05
)
;
    }
    ceiling
    {
        type            calculated;
        value           nonuniform List<scalar> 
43
(
-4.14786e-05
-4.0509e-05
-3.94598e-05
-1.26864e-05
-2.87506e-06
1.29758e-06
3.67755e-06
5.52525e-06
7.08752e-06
8.4156e-06
9.5269e-06
1.04208e-05
1.11453e-05
1.17555e-05
1.23051e-05
1.28389e-05
1.33841e-05
1.39401e-05
1.44765e-05
1.49479e-05
1.53148e-05
1.55581e-05
1.56823e-05
1.5707e-05
1.56542e-05
1.55374e-05
1.53557e-05
1.50932e-05
1.47271e-05
1.42397e-05
1.36311e-05
1.29227e-05
1.21527e-05
1.13721e-05
1.06204e-05
1.00636e-05
1.01064e-05
1.07677e-05
1.16246e-05
1.36088e-05
7.5482e-06
4.975e-06
-6.90314e-05
)
;
    }
    sWall
    {
        type            calculated;
        value           uniform -0.000267978;
    }
    nWall
    {
        type            calculated;
        value           nonuniform List<scalar> 6(-4.68587e-05 -5.64056e-05 -6.02966e-05 -6.60889e-05 -7.23088e-05 -9.32999e-05);
    }
    sideWalls
    {
        type            empty;
        value           nonuniform 0();
    }
    glass1
    {
        type            calculated;
        value           nonuniform List<scalar> 9(-5.73411e-05 -0.000155221 -0.00023858 -0.000310463 -0.000372293 -0.000425039 -0.00047354 -0.000530682 -0.000593886);
    }
    glass2
    {
        type            calculated;
        value           nonuniform List<scalar> 2(-0.000247923 -0.000267827);
    }
    sun
    {
        type            calculated;
        value           uniform 0;
    }
    heatsource1
    {
        type            calculated;
        value           nonuniform List<scalar> 3(2.03976e-07 2.03841e-07 2.03881e-07);
    }
    heatsource2
    {
        type            calculated;
        value           nonuniform List<scalar> 4(5.11445e-08 5.12857e-08 0 0);
    }
    Table_master
    {
        type            calculated;
        value           nonuniform List<scalar> 9(-1.53107e-07 -1.5326e-07 -1.53307e-07 -1.53335e-07 -1.53352e-07 -1.53361e-07 -1.53364e-07 -1.53352e-07 -1.53308e-07);
    }
    Table_slave
    {
        type            calculated;
        value           nonuniform List<scalar> 9(1.52874e-07 1.52906e-07 1.52889e-07 1.52877e-07 1.52875e-07 1.52889e-07 1.52923e-07 1.5298e-07 1.53074e-07);
    }
    inlet
    {
        type            calculated;
        value           uniform -0.00676585;
    }
    outlet
    {
        type            calculated;
        value           nonuniform List<scalar> 2(0.00797331 0.00295917);
    }
}


// ************************************************************************* //
