// -*- C++ -*-
// File generated by PyFoam - sorry for the ugliness

FoamFile
{
 version 2.0;
 format ascii;
 class volScalarField;
 location "400";
 object T;
}

dimensions [ 0 0 0 1 0 0 0 ];

internalField nonuniform List<scalar> 459
(
  303.664
  303.414
  303.393
  303.381
  303.371
  303.36
  303.348
  303.334
  303.321
  303.317
  303.324
  303.355
  303.38
  303.41
  303.449
  303.861
  303.835
  303.817
  303.804
  303.805
  303.813
  303.83
  303.83
  303.811
  303.782
  303.754
  303.728
  303.704
  303.675
  303.642
  303.627
  303.648
  303.622
  303.604
  303.82
  303.453
  303.42
  303.41
  303.4
  303.387
  303.364
  303.331
  303.3
  303.285
  303.294
  303.322
  303.351
  303.382
  303.418
  303.436
  303.469
  303.859
  303.819
  303.771
  303.75
  303.753
  303.765
  303.784
  303.802
  303.813
  303.817
  303.816
  303.811
  303.803
  303.791
  303.777
  303.763
  303.71
  303.644
  303.642
  303.988
  303.506
  303.462
  303.461
  303.461
  303.45
  303.411
  303.346
  303.288
  303.26
  303.27
  303.301
  303.334
  303.365
  303.396
  303.421
  303.452
  303.843
  303.78
  303.724
  303.704
  303.711
  303.729
  303.75
  303.773
  303.794
  303.811
  303.825
  303.836
  303.842
  303.845
  303.843
  303.83
  303.797
  303.769
  303.769
  304.164
  303.573
  303.515
  303.529
  303.549
  303.546
  303.478
  303.367
  303.276
  303.235
  303.247
  303.285
  303.327
  303.363
  303.391
  303.417
  303.442
  303.46
  303.529
  303.555
  303.588
  303.629
  303.674
  303.715
  303.748
  303.777
  303.804
  303.829
  303.852
  303.873
  303.893
  303.91
  303.924
  303.911
  303.883
  303.853
  303.833
  304.34
  303.657
  303.577
  303.604
  303.649
  303.652
  303.534
  303.372
  303.257
  303.211
  303.228
  303.279
  303.336
  303.381
  303.411
  303.435
  303.457
  303.481
  303.517
  303.558
  303.61
  303.668
  303.726
  303.779
  303.827
  303.867
  303.902
  303.933
  303.959
  303.98
  303.995
  304.003
  304.004
  303.988
  303.959
  303.923
  303.886
  303.888
  303.893
  303.958
  304.505
  303.765
  303.665
  303.69
  303.768
  303.711
  303.54
  303.35
  303.219
  303.176
  303.211
  303.289
  303.37
  303.431
  303.47
  303.496
  303.519
  303.551
  303.597
  303.654
  303.715
  303.779
  303.84
  303.894
  303.94
  303.98
  304.013
  304.041
  304.064
  304.081
  304.092
  304.095
  304.088
  304.069
  304.039
  304.002
  303.969
  303.954
  303.937
  303.958
  304.665
  303.93
  303.832
  303.849
  303.869
  303.717
  303.474
  303.255
  303.134
  303.127
  303.207
  303.328
  303.443
  303.527
  303.58
  303.607
  303.633
  303.674
  303.731
  303.797
  303.866
  303.928
  303.984
  304.032
  304.072
  304.104
  304.131
  304.154
  304.173
  304.187
  304.195
  304.194
  304.182
  304.159
  304.128
  304.093
  304.064
  304.042
  304.013
  304.001
  304.88
  304.336
  304.22
  304.179
  303.953
  303.596
  303.257
  303.046
  302.999
  303.085
  303.245
  303.43
  303.582
  303.685
  303.735
  303.759
  303.788
  303.836
  303.898
  303.966
  304.032
  304.09
  304.136
  304.173
  304.203
  304.227
  304.249
  304.269
  304.287
  304.3
  304.305
  304.3
  304.282
  304.253
  304.219
  304.185
  304.155
  304.124
  304.098
  304.134
  305.192
  304.928
  304.687
  304.304
  303.566
  302.976
  302.69
  302.683
  302.87
  303.138
  303.405
  303.653
  303.806
  303.873
  303.907
  303.934
  303.97
  304.019
  304.078
  304.138
  304.193
  304.238
  304.275
  304.303
  304.326
  304.346
  304.366
  304.385
  304.401
  304.412
  304.412
  304.401
  304.384
  304.367
  304.355
  304.352
  304.362
  304.382
  304.416
  304.512
  296.125
  296.996
  298.751
  300.375
  301.585
  302.476
  303.149
  303.588
  303.813
  303.942
  304.012
  304.054
  304.085
  304.117
  304.156
  304.202
  304.252
  304.3
  304.342
  304.376
  304.403
  304.424
  304.442
  304.457
  304.471
  304.484
  304.492
  304.496
  304.492
  304.482
  304.467
  304.451
  304.439
  304.433
  304.439
  304.459
  304.508
  304.706
  296.556
  298.404
  300.31
  302.071
  302.965
  303.489
  303.807
  303.988
  304.092
  304.157
  304.2
  304.233
  304.264
  304.296
  304.332
  304.371
  304.409
  304.443
  304.472
  304.496
  304.514
  304.528
  304.539
  304.548
  304.556
  304.561
  304.564
  304.564
  304.561
  304.553
  304.542
  304.53
  304.517
  304.508
  304.509
  304.54
  304.629
  304.682
  300.347
  300.265
  300.257
  302.592
  303.441
  303.797
  304.005
  304.14
  304.232
  304.295
  304.341
  304.375
  304.405
  304.431
  304.456
  304.481
  304.506
  304.529
  304.551
  304.569
  304.583
  304.594
  304.603
  304.609
  304.613
  304.617
  304.619
  304.62
  304.62
  304.62
  304.618
  304.614
  304.61
  304.604
  304.598
  304.598
  304.613
  304.66
  304.735
  304.926
)
;

boundaryField
{
  floor
  {
    type wallHeatTransfer;
    Tinf uniform 305.2;
    alphaWall uniform 0.24;
    value nonuniform List<scalar> 29
(
  303.643
  304.122
  304.076
  304.042
  304.017
  304.013
  304.025
  304.066
  304.101
  304.122
  304.131
  304.135
  304.137
  304.137
  304.131
  304.114
  304.08
  304.01
  303.943
  303.958
  303.958
  303.96
  304.025
  304.072
  303.643
  304.122
  304.116
  304.086
  303.615
)
;
  }
  ceiling
  {
    type wallHeatTransfer;
    Tinf uniform 303.2;
    alphaWall uniform 0.24;
    value nonuniform List<scalar> 43
(
  300.555
  300.47
  300.456
  302.63
  303.425
  303.757
  303.95
  304.071
  304.152
  304.205
  304.242
  304.27
  304.295
  304.317
  304.339
  304.361
  304.382
  304.402
  304.42
  304.434
  304.445
  304.453
  304.459
  304.463
  304.465
  304.467
  304.467
  304.468
  304.467
  304.466
  304.465
  304.462
  304.459
  304.455
  304.451
  304.451
  304.461
  304.492
  304.555
  304.755
  305.099
  304.857
  297.008
)
;
  }
  sWall
  {
    type wallHeatTransfer;
    Tinf uniform 315.2;
    alphaWall uniform 0.36;
    value uniform 301.924;
  }
  nWall
  {
    type wallHeatTransfer;
    Tinf uniform 307.2;
    alphaWall uniform 0.36;
    value nonuniform List<scalar> 6
(
  304.592
  304.559
  304.512
  305.078
  305.044
  305.25
)
;
  }
  sideWalls
  {
    type empty;
  }
  glass1
  {
    type wallHeatTransfer;
    Tinf uniform 315.2;
    alphaWall uniform 4.3;
    value nonuniform List<scalar> 9
(
  311.274
  310.747
  310.415
  310.164
  309.953
  309.758
  309.624
  309.701
  309.924
)
;
  }
  glass2
  {
    type wallHeatTransfer;
    Tinf uniform 307.2;
    alphaWall uniform 4.3;
    value nonuniform List<scalar> 2
(
  306.226
  306.33
)
;
  }
  sun
  {
    type wallHeatTransfer;
    Tinf uniform 305.2;
    alphaWall uniform 0.24;
    value nonuniform List<scalar> 14
(
  303.812
  303.573
  303.548
  303.531
  303.516
  303.501
  303.485
  303.469
  303.457
  303.454
  303.465
  303.505
  303.541
  303.586
)
;
  }
  heatsource1
  {
    type fixedGradient;
    gradient uniform 0;
  }
  heatsource2
  {
    type fixedGradient;
    gradient uniform 0;
  }
  Table_master
  {
    type zeroGradient;
  }
  Table_slave
  {
    type zeroGradient;
  }
  inlet
  {
    type fixedValue;
    value uniform 293.15;
  }
  outlet
  {
    type zeroGradient;
  }
} 	// ************************************************************************* //

