/*--------------------------------*- C++ -*----------------------------------*\
  =========                 |
  \\      /  F ield         | OpenFOAM: The Open Source CFD Toolbox
   \\    /   O peration     | Website:  https://openfoam.org
    \\  /    A nd           | Version:  6
     \\/     M anipulation  |
\*---------------------------------------------------------------------------*/
FoamFile
{
    version     2.0;
    format      ascii;
    class       surfaceScalarField;
    location    "1100";
    object      phi;
}
// * * * * * * * * * * * * * * * * * * * * * * * * * * * * * * * * * * * * * //

dimensions      [1 0 -1 0 0 0 0];

internalField   nonuniform List<scalar> 
852
(
-0.00295823
0.00301554
-0.00399846
0.00104023
-0.00479854
0.000800084
-0.00542165
0.000623113
-0.00583435
0.000412698
-0.00600859
0.000174235
-0.00591623
-9.23554e-05
-0.00553536
-0.000380872
-0.00488187
-0.000653492
-0.00402079
-0.00086108
-0.00305204
-0.000968746
-0.00208734
-0.000964699
-0.00122891
-0.000858431
-0.000538945
-0.000689967
-0.000537283
-0.000777235
0.000780206
-0.00052162
-0.000255616
7.391e-05
-0.00059553
0.000576854
-0.000502944
0.000927348
-0.000350494
0.00115683
-0.000229483
0.00128489
-0.00012806
0.0013467
-6.18113e-05
0.00138085
-3.41507e-05
0.00140189
-2.10356e-05
0.00141385
-1.19568e-05
0.00141827
-4.42062e-06
0.00141381
4.46049e-06
0.0013929
2.09066e-05
0.00133436
5.85439e-05
0.00120256
0.000131796
0.000985071
0.000217488
0.000716928
0.000268144
0.000720898
-0.00211926
0.00528924
-0.00313953
0.0020605
-0.0039683
0.00162886
-0.00458767
0.00124248
-0.00499879
0.00082382
-0.00518257
0.000358014
-0.00510761
-0.000167314
-0.00475622
-0.000732268
-0.00415679
-0.00125292
-0.00338502
-0.00163286
-0.00253904
-0.00181472
-0.0017136
-0.00179014
-0.000989293
-0.00158274
-0.000440066
-0.00123919
-0.000171624
-0.000805725
0.000117967
-0.000289643
0.000117916
0.000252776
0.000536088
0.000658462
-0.000661301
0.00092698
-0.000864048
0.00115296
-0.000728925
0.0013334
-0.00053093
0.00145061
-0.000346692
0.00147163
-0.000149085
0.00147669
-6.68728e-05
0.00148286
-4.03175e-05
0.00148805
-2.62261e-05
0.00149148
-1.53858e-05
0.00149331
-6.2476e-06
0.0014929
4.86545e-06
0.00148705
2.67624e-05
0.00144801
9.75809e-05
0.00128091
0.000298899
0.000990349
0.000508045
0.000625745
0.000632747
0.00135676
-0.00148948
0.00701501
-0.00237213
0.00294315
-0.00311262
0.00236934
-0.0036484
0.00177826
-0.0040136
0.00118902
-0.004184
0.000528419
-0.00410545
-0.000245867
-0.00375219
-0.00108553
-0.00317831
-0.0018268
-0.00247727
-0.00233389
-0.0017441
-0.00254789
-0.00105148
-0.00248277
-0.000451417
-0.0021828
2.14719e-05
-0.00171208
0.000332812
-0.00111706
0.000472846
-0.000429677
0.000590762
0.00149262
-0.000947051
0.00171246
-0.000881143
0.00167176
-0.000823344
0.00166188
-0.000719045
0.00168806
-0.000557117
0.00173306
-0.000391684
0.00158412
0.0015174
0.00147724
0.00145117
0.00143593
0.00142984
0.00143486
0.00146177
0.00155951
0.00128872
0.000569689
0.00095673
0.000840033
0.000537477
0.001052
0.00190955
-0.00104294
0.00836393
-0.00174482
0.00364503
-0.0022427
0.00286723
-0.00260177
0.00213732
-0.00285349
0.00144075
-0.00296116
0.000636083
-0.00282819
-0.000378834
-0.00243789
-0.00147583
-0.00189144
-0.00237325
-0.00129127
-0.00293406
-0.00071299
-0.00312617
-0.00019631
-0.00299945
0.000242919
-0.00262202
0.000605316
-0.00207448
0.000928106
-0.00143985
0.0012925
-0.000794068
0.00214016
-0.000256898
0.0024967
-0.000348182
0.00214547
-0.000595823
0.00200995
-0.000745621
0.00188103
-0.000694422
0.00176542
-0.000603435
0.00169174
-0.000483445
0.00163117
-0.000331114
0.00177484
-0.000143818
0.00186307
-8.83813e-05
0.001934
-7.10844e-05
0.00198968
-5.58371e-05
0.00201604
-2.65092e-05
0.00199125
2.46389e-05
0.00188963
0.000101463
0.00167749
0.000211989
0.00129947
0.000377864
0.00113969
0.00072947
0.000828235
0.00115149
0.000362668
0.00151757
0.00229219
-0.000728694
0.00945777
-0.00126204
0.00417838
-0.00138449
0.00298967
-0.00147813
0.00223096
-0.00154055
0.00150317
-0.0015022
0.000597736
-0.00122877
-0.000652265
-0.000788626
-0.00191598
-0.000313211
-0.00284866
0.000118556
-0.00336583
0.000472182
-0.0034798
0.000742883
-0.00327015
0.000952361
-0.0028315
0.00113029
-0.00225241
0.0013108
-0.00162036
0.00154172
-0.00102499
0.00186669
-0.000581863
0.00197274
-0.000454232
0.00189023
-0.00051332
0.0017138
-0.000569189
0.00155514
-0.000535756
0.00141933
-0.000467629
0.00131981
-0.000383924
0.00127266
-0.000283961
0.00131631
-0.000187475
0.00137139
-0.00014346
0.00143073
-0.000130426
0.0014911
-0.000116208
0.00154212
-7.75234e-05
0.00156338
3.37928e-06
0.00153314
0.000131705
0.00143916
0.00030597
0.00128223
0.000534789
0.00113595
0.000875755
0.000971555
0.00131588
0.000617783
0.00187134
0.000518912
0.00239106
-0.00098941
0.00150812
-0.00145309
0.000463478
-0.00140473
-0.000630877
0.0105037
-0.000997024
0.00454453
-0.000603406
0.00259606
-0.000310635
0.00193819
-9.66547e-05
0.00128919
0.000226514
0.000274567
0.00070646
-0.00113221
0.00114405
-0.00235357
0.00145687
-0.00316148
0.00163078
-0.00353974
0.0016913
-0.00354031
0.00167072
-0.00324956
0.00160163
-0.00276241
0.00152161
-0.0021724
0.00146398
-0.00156273
0.00145371
-0.00101472
0.00148403
-0.000612176
0.00145171
-0.000421911
0.00132654
-0.000388153
0.00114768
-0.000390334
0.000983518
-0.000371589
0.00085279
-0.000336901
0.000763677
-0.000294811
0.00072708
-0.000247364
0.000746821
-0.000207216
0.000797668
-0.000194307
0.000865196
-0.000197955
0.00094348
-0.000194491
0.00102661
-0.000160655
0.00110342
-7.34302e-05
0.00115547
7.96563e-05
0.00117665
0.000284794
0.0011757
0.000535735
0.00119708
0.00085437
0.00128702
0.00122595
0.00146171
0.00169665
0.00190006
0.00195271
0.00215832
0.00124985
0.00176914
0.000852663
0.000422507
-0.00071656
0.0116798
-0.000602429
0.0044304
0.000472897
0.00152073
0.00114977
0.00126132
0.0017227
0.000716254
0.00236725
-0.000369983
0.00292118
-0.00168614
0.00322719
-0.00265958
0.00327923
-0.00321352
0.00312299
-0.00338351
0.00282252
-0.00323984
0.0024419
-0.00286895
0.00203612
-0.00235663
0.00165354
-0.00178982
0.00132701
-0.0012362
0.00107669
-0.000764402
0.000899551
-0.000435035
0.000748714
-0.000271074
0.000588808
-0.000228247
0.000427637
-0.000229164
0.000288506
-0.000232458
0.000182836
-0.00023123
0.000115211
-0.000227187
9.02488e-05
-0.000222401
0.000106558
-0.000223525
0.000150397
-0.000238146
0.000210976
-0.000258534
0.000286235
-0.00026975
0.000380093
-0.000254513
0.00049758
-0.000190917
0.000627769
-5.0532e-05
0.000758779
0.000153784
0.000899663
0.00039485
0.00108829
0.000665743
0.00137113
0.000943103
0.00181353
0.00125425
0.00248154
0.00128471
0.00302443
0.000706963
0.00304653
0.000830559
0.0035317
0.00260245
0.00959095
0.00328023
0.00375261
0.00344459
0.00135637
0.00389624
0.000809677
0.00458588
2.66152e-05
0.00527762
-0.00106173
0.00556014
-0.00196866
0.00543616
-0.00253559
0.0049931
-0.00277046
0.00433552
-0.00272593
0.00356572
-0.00247004
0.00277018
-0.00207341
0.00200952
-0.00159597
0.00133873
-0.00111904
0.000784992
-0.000682458
0.000370761
-0.00035017
9.47414e-05
-0.000159016
-8.91543e-05
-8.71784e-05
-0.000230476
-8.69254e-05
-0.000350045
-0.000109594
-0.000448843
-0.00013366
-0.000524482
-0.000155591
-0.000575816
-0.000175853
-0.000602216
-0.000196002
-0.000606605
-0.000219137
-0.000597815
-0.000246935
-0.000582003
-0.000274347
-0.000558786
-0.000292967
-0.000520199
-0.0002931
-0.000447683
-0.000263433
-0.000310948
-0.000187267
-0.00012296
-3.42045e-05
9.84517e-05
0.000173439
0.000373097
0.000391098
0.000711748
0.000604452
0.00115506
0.000810939
0.00163466
0.000805106
0.00182973
0.000511893
0.00107683
0.00158346
0.00486698
0.0101546
0.0139
0.0122274
0.00302892
0.0113265
0.00171067
0.0105922
0.000760889
0.00970189
-0.00017144
0.00855479
-0.000821559
0.00725785
-0.00123865
0.00590529
-0.0014179
0.00456613
-0.00138678
0.00330348
-0.00120738
0.0021675
-0.00093743
0.00116973
-0.000598202
0.00035211
-0.000301413
-0.000250372
-7.99765e-05
-0.000625272
2.47302e-05
-0.000828581
4.42927e-05
-0.000944868
2.91083e-05
-0.00103164
-1.50212e-07
-0.00110945
-3.17901e-05
-0.00118076
-6.23514e-05
-0.00124509
-9.12557e-05
-0.0013027
-0.000118246
-0.00135501
-0.000143692
-0.00140591
-0.000168234
-0.00146269
-0.000190154
-0.0015329
-0.000204134
-0.00162406
-0.000201812
-0.00174537
-0.000171785
-0.0019086
-0.000100209
-0.00212145
2.55811e-05
-0.00237065
0.000215003
-0.0026803
0.000483081
-0.00313585
0.000846654
-0.00383346
0.00130205
-0.00483805
0.00181553
-0.0062634
0.00223046
-0.00798023
0.00222872
-0.00747262
0.00107585
-0.00231933
0.00510096
0.0045565
0.00409597
0.00271566
0.00449656
0.000360299
0.00453661
-0.000211493
0.00412861
-0.000413553
0.00344408
-0.000554127
0.00259626
-0.000570074
0.00167748
-0.000468002
0.000761519
-0.000291419
-9.73154e-05
-7.8596e-05
-0.000794559
9.90414e-05
-0.00125118
0.000155204
-0.00149814
0.000166984
-0.00161945
0.000146049
-0.00168678
0.00011162
-0.00173464
7.69628e-05
-0.00177961
4.48204e-05
-0.00182831
1.69133e-05
-0.00188423
-6.42698e-06
-0.00194745
-2.8038e-05
-0.00201744
-4.82625e-05
-0.00209535
-6.57758e-05
-0.00218259
-8.09931e-05
-0.0022813
-9.14449e-05
-0.00239262
-9.28115e-05
-0.0025154
-7.90326e-05
-0.00264502
-4.21737e-05
-0.0027727
2.74728e-05
-0.00288623
0.000139113
-0.00298314
0.000311915
-0.00307185
0.000571793
-0.00315915
0.000933954
-0.00324263
0.00138553
-0.00327578
0.00184869
-0.00319985
0.00215453
-0.00283512
0.00186399
-0.00156274
-0.000196528
-0.00380715
-0.000439668
0.00505273
0.000855667
0.00142032
0.000820499
0.000395467
0.000548018
6.09875e-05
0.000170308
-3.58428e-05
-0.000351747
-3.20728e-05
-0.00093978
1.79592e-05
-0.0014886
8.08224e-05
-0.00191835
0.000138329
-0.00217911
0.000182162
-0.00228219
0.000202121
-0.00231605
0.000189066
-0.00231253
0.000163458
-0.00230089
0.000134416
-0.00229714
0.000107869
-0.00230533
8.51497e-05
-0.00232538
6.48699e-05
-0.00235481
4.63411e-05
-0.00239091
2.96782e-05
-0.00243392
1.49702e-05
-0.00248344
1.26085e-06
-0.00253887
-1.03517e-05
-0.00259994
-1.99184e-05
-0.00266492
-2.64628e-05
-0.00272981
-2.79233e-05
-0.0027877
-2.11456e-05
-0.00282785
-2.01985e-06
-0.00283845
3.80687e-05
-0.00280705
0.000107715
-0.00271053
0.000215389
-0.00251596
0.000377223
-0.00219594
0.000613935
-0.00173521
0.0009248
-0.00110998
0.00122346
-0.000140502
0.00118505
0.00116338
0.000560103
0.00157606
-0.000609211
-0.00214884
-0.00793724
-0.0107901
-0.00569324
-0.00425004
-0.00384049
-0.00377028
-0.00380001
-0.00382826
-0.00380819
-0.00372656
-0.00358851
-0.00340756
-0.00320747
-0.00302113
-0.00286095
-0.00273027
-0.0026265
-0.00254572
-0.00248543
-0.0024438
-0.00241892
-0.00240877
-0.00241233
-0.00242745
-0.00245208
-0.00248317
-0.00251561
-0.00254116
-0.00254746
-0.00251353
-0.00240979
-0.00219824
-0.0018247
-0.00121433
-0.000292982
0.000927065
0.00210861
0.00266502
0.00205186
)
;

boundaryField
{
    floor
    {
        type            calculated;
        value           nonuniform List<scalar> 
29
(
0
0
0
0
0
0
0
0
0
0
0
0
0
0
0
0
0
0
0
0
-3.97073e-06
-1.01152e-05
-1.53158e-05
-1.99677e-05
-1.66151e-06
-2.97074e-06
-8.6579e-06
-9.4799e-06
-8.36082e-06
)
;
    }
    ceiling
    {
        type            calculated;
        value           nonuniform List<scalar> 
43
(
-4.66465e-05
-4.53722e-05
-4.41024e-05
-2.2877e-05
-1.4088e-05
-9.216e-06
-6.11458e-06
-3.82606e-06
-2.11024e-06
-8.06792e-07
2.79038e-07
1.21488e-06
2.02894e-06
2.722e-06
3.28653e-06
3.73551e-06
4.09177e-06
4.37065e-06
4.57792e-06
4.71718e-06
4.79611e-06
4.82548e-06
4.81561e-06
4.77276e-06
4.70697e-06
4.62278e-06
4.52244e-06
4.40733e-06
4.27784e-06
4.13257e-06
3.98179e-06
3.83194e-06
3.68843e-06
3.55893e-06
3.45769e-06
3.41477e-06
3.50577e-06
3.69223e-06
3.95075e-06
5.00184e-06
1.02707e-05
7.22586e-06
-5.65678e-05
)
;
    }
    sWall
    {
        type            calculated;
        value           uniform -0.000271682;
    }
    nWall
    {
        type            calculated;
        value           nonuniform List<scalar> 6(-4.85674e-05 -5.80979e-05 -6.26641e-05 -7.49216e-05 -8.22497e-05 -0.000101984);
    }
    sideWalls
    {
        type            empty;
        value           nonuniform 0();
    }
    glass1
    {
        type            calculated;
        value           nonuniform List<scalar> 9(-5.73134e-05 -0.000154439 -0.000236288 -0.000305978 -0.000365148 -0.000415022 -0.00045961 -0.000513555 -0.00057393);
    }
    glass2
    {
        type            calculated;
        value           nonuniform List<scalar> 2(-0.000258448 -0.000286309);
    }
    sun
    {
        type            calculated;
        value           uniform 0;
    }
    heatsource1
    {
        type            calculated;
        value           nonuniform List<scalar> 3(2.04188e-07 2.0413e-07 2.04148e-07);
    }
    heatsource2
    {
        type            calculated;
        value           nonuniform List<scalar> 4(5.11923e-08 5.12769e-08 0 0);
    }
    Table_master
    {
        type            calculated;
        value           nonuniform List<scalar> 9(-1.53138e-07 -1.53229e-07 -1.53261e-07 -1.53283e-07 -1.53298e-07 -1.53309e-07 -1.53314e-07 -1.53309e-07 -1.53279e-07);
    }
    Table_slave
    {
        type            calculated;
        value           nonuniform List<scalar> 9(1.53017e-07 1.53035e-07 1.53013e-07 1.52995e-07 1.52988e-07 1.52991e-07 1.53005e-07 1.53047e-07 1.53128e-07);
    }
    inlet
    {
        type            calculated;
        value           uniform -0.00662854;
    }
    outlet
    {
        type            calculated;
        value           nonuniform List<scalar> 2(0.00825557 0.00289821);
    }
}


// ************************************************************************* //
