/*--------------------------------*- C++ -*----------------------------------*\
  =========                 |
  \\      /  F ield         | OpenFOAM: The Open Source CFD Toolbox
   \\    /   O peration     | Website:  https://openfoam.org
    \\  /    A nd           | Version:  6
     \\/     M anipulation  |
\*---------------------------------------------------------------------------*/
FoamFile
{
    version     2.0;
    format      ascii;
    class       volVectorField;
    location    "1200";
    object      U;
}
// * * * * * * * * * * * * * * * * * * * * * * * * * * * * * * * * * * * * * //

dimensions      [0 1 -1 0 0 0 0];

internalField   nonuniform List<vector> 
459
(
(0.0341719 0.0859176 0)
(-0.167147 0.0254953 0)
(-0.191938 0.0178535 0)
(-0.222965 0.0121387 0)
(-0.245405 0.00583748 0)
(-0.258154 -0.000867693 0)
(-0.259513 -0.00804565 0)
(-0.248218 -0.0157196 0)
(-0.224874 -0.0231807 0)
(-0.191407 -0.0290918 0)
(-0.151577 -0.0323507 0)
(-0.109801 -0.0324258 0)
(-0.0703302 -0.0294788 0)
(-0.0383248 -0.0246596 0)
(-0.0277034 -0.0198238 0)
(-0.00654974 0.00912236 0)
(-0.0299567 -0.0163673 0)
(-0.00889691 -0.0262058 0)
(0.0148289 -0.0203142 0)
(0.0299356 -0.0139505 0)
(0.0425934 -0.00905979 0)
(0.0506552 -0.00526684 0)
(0.0548958 -0.00327587 0)
(0.0568367 -0.00248143 0)
(0.0578134 -0.0021421 0)
(0.0584311 -0.00193318 0)
(0.0587966 -0.00176617 0)
(0.0588558 -0.00156927 0)
(0.0584364 -0.00118032 0)
(0.0570382 -0.000248124 0)
(0.0535808 0.00171126 0)
(0.0468831 0.00378142 0)
(0.0411523 0.00541781 0)
(-0.0139246 0.0201331 0)
(0.2088 0.176051 0)
(-0.156348 0.0674738 0)
(-0.154837 0.053088 0)
(-0.187022 0.0412264 0)
(-0.209321 0.0277621 0)
(-0.222378 0.0125682 0)
(-0.224445 -0.00467477 0)
(-0.214103 -0.0233559 0)
(-0.192562 -0.0408458 0)
(-0.162169 -0.0540327 0)
(-0.12681 -0.060799 0)
(-0.0905695 -0.0605349 0)
(-0.0570084 -0.053858 0)
(-0.0295334 -0.0424166 0)
(-0.012114 -0.0287381 0)
(0.0016839 -0.0107829 0)
(0.000348363 0.0155928 0)
(0.0613836 0.036867 0)
(0.0233762 -0.0173227 0)
(0.0320939 -0.0309177 0)
(0.0430489 -0.0277239 0)
(0.0518116 -0.0200472 0)
(0.058323 -0.0126465 0)
(0.0611676 -0.00545525 0)
(0.0617459 -0.00130623 0)
(0.0617187 0.000429848 0)
(0.061837 0.00120066 0)
(0.0620458 0.0016748 0)
(0.0621988 0.00206282 0)
(0.0622591 0.0025299 0)
(0.0621838 0.00336722 0)
(0.0614903 0.00540275 0)
(0.057959 0.0110634 0)
(0.0489401 0.015778 0)
(0.0453717 0.0188698 0)
(-0.050935 0.0437803 0)
(0.369095 0.26349 0)
(-0.173278 0.107508 0)
(-0.11628 0.0859374 0)
(-0.147697 0.064775 0)
(-0.167607 0.0425872 0)
(-0.179825 0.0178933 0)
(-0.181586 -0.0101545 0)
(-0.170584 -0.04007 0)
(-0.149317 -0.06716 0)
(-0.121037 -0.0863687 0)
(-0.0898323 -0.0950217 0)
(-0.0591952 -0.0930774 0)
(-0.0314009 -0.0819737 0)
(-0.00851444 -0.0639987 0)
(0.00848689 -0.0405143 0)
(0.0196006 -0.0141547 0)
(0.0238182 0.0229175 0)
(0.110312 -0.0249291 0)
(0.0741334 -0.0362746 0)
(0.0684059 -0.0373887 0)
(0.0696724 -0.0323323 0)
(0.0708222 -0.0246335 0)
(0.0720034 -0.0178685 0)
(0.0706788 -0.0143555 0)
(0.0660209 -0.0101662 0)
(0.0626242 -0.00787424 0)
(0.0610637 -0.00656171 0)
(0.0603731 -0.00572028 0)
(0.060001 -0.00514168 0)
(0.0599267 -0.00464497 0)
(0.0605659 -0.00386818 0)
(0.0629711 -0.000916206 0)
(0.0609881 0.0153636 0)
(0.0483058 0.0266767 0)
(0.051874 0.0341971 0)
(-0.0836645 0.0681441 0)
(0.513825 0.33384 0)
(-0.208125 0.143009 0)
(-0.0753045 0.113934 0)
(-0.105431 0.0848809 0)
(-0.119918 0.056428 0)
(-0.128964 0.0240097 0)
(-0.127754 -0.0147033 0)
(-0.113694 -0.056444 0)
(-0.0920693 -0.0923663 0)
(-0.0668804 -0.115931 0)
(-0.0416448 -0.124947 0)
(-0.0187004 -0.120756 0)
(0.00172582 -0.105481 0)
(0.0185115 -0.0826854 0)
(0.0327414 -0.0558538 0)
(0.0479165 -0.0268279 0)
(0.0692907 0.00499984 0)
(0.0996627 0.0168803 0)
(0.104726 -0.0218011 0)
(0.0912837 -0.0324398 0)
(0.0823749 -0.0318424 0)
(0.0772029 -0.0278959 0)
(0.073211 -0.0220161 0)
(0.0704207 -0.0145117 0)
(0.0713069 -0.00872268 0)
(0.0758018 -0.00651396 0)
(0.0796045 -0.00531036 0)
(0.0820659 -0.00448255 0)
(0.0835575 -0.00356864 0)
(0.0836782 -0.00227104 0)
(0.0813456 -0.000325852 0)
(0.0752964 0.0025776 0)
(0.0630637 0.00694361 0)
(0.051251 0.0256379 0)
(0.0392219 0.0415004 0)
(0.0562033 0.0540284 0)
(-0.118583 0.089785 0)
(0.639141 0.388337 0)
(-0.250774 0.171999 0)
(-0.0344975 0.130111 0)
(-0.061176 0.0964123 0)
(-0.0676372 0.0644892 0)
(-0.0706829 0.0269415 0)
(-0.0606509 -0.0215236 0)
(-0.0414005 -0.074143 0)
(-0.0208198 -0.11528 0)
(-0.00154953 -0.139398 0)
(0.0146622 -0.14578 0)
(0.0270588 -0.137931 0)
(0.0367704 -0.120006 0)
(0.0445957 -0.0955673 0)
(0.0518261 -0.0681294 0)
(0.0604185 -0.0414584 0)
(0.0730812 -0.0217871 0)
(0.0836377 -0.0206892 0)
(0.0847418 -0.0281143 0)
(0.0784543 -0.0288188 0)
(0.0702715 -0.0259158 0)
(0.0634106 -0.0220975 0)
(0.0580908 -0.0175949 0)
(0.0546833 -0.012304 0)
(0.0540624 -0.00660955 0)
(0.0559465 -0.00385558 0)
(0.058231 -0.00292134 0)
(0.0604587 -0.00228137 0)
(0.0625865 -0.000917469 0)
(0.0643256 0.00179555 0)
(0.064485 0.00602488 0)
(0.0624094 0.0119649 0)
(0.0574631 0.0202037 0)
(0.0510696 0.0349021 0)
(0.0411902 0.0524669 0)
(0.0645052 0.0723962 0)
(-0.0234831 0.101569 0)
(0.046437 0.0311689 0)
(-0.0619612 -0.0342222 0)
(-0.272553 -0.0569203 0)
(0.730296 0.433781 0)
(-0.2924 0.191519 0)
(-0.00325266 0.126671 0)
(-0.0160072 0.0976718 0)
(-0.0118978 0.0669274 0)
(-0.00622905 0.023866 0)
(0.0225922 -0.0387883 0)
(0.044421 -0.0945131 0)
(0.0599359 -0.132629 0)
(0.0693157 -0.151904 0)
(0.0732325 -0.154309 0)
(0.0730973 -0.143442 0)
(0.0704122 -0.123342 0)
(0.0666838 -0.0980007 0)
(0.063396 -0.0710821 0)
(0.0619473 -0.0462305 0)
(0.063184 -0.0276777 0)
(0.0639992 -0.020193 0)
(0.0607498 -0.0195976 0)
(0.0537923 -0.0195522 0)
(0.0458508 -0.0180461 0)
(0.0390918 -0.0157427 0)
(0.0340536 -0.0129914 0)
(0.0310393 -0.00985779 0)
(0.0303276 -0.00694678 0)
(0.0315961 -0.00585802 0)
(0.0338394 -0.00584353 0)
(0.0366385 -0.00569993 0)
(0.0398488 -0.00444289 0)
(0.0432489 -0.00117592 0)
(0.0466179 0.0045832 0)
(0.0486477 0.0125738 0)
(0.0495018 0.0228505 0)
(0.05052 0.0368158 0)
(0.0498013 0.0541162 0)
(0.0731607 0.0768536 0)
(0.0525708 0.0949696 0)
(0.0935967 0.0669961 0)
(0.116269 0.0442602 0)
(-0.128764 -0.00681306 0)
(0.782279 0.475084 0)
(-0.313351 0.176961 0)
(0.0235715 0.077128 0)
(0.0426755 0.073842 0)
(0.0578744 0.052234 0)
(0.0847498 0.00091602 0)
(0.118881 -0.0632102 0)
(0.138133 -0.111962 0)
(0.1445 -0.141365 0)
(0.140677 -0.152876 0)
(0.129412 -0.149472 0)
(0.113628 -0.134914 0)
(0.0958995 -0.113081 0)
(0.078467 -0.0878749 0)
(0.0630148 -0.0624996 0)
(0.0507758 -0.0400409 0)
(0.042185 -0.0235722 0)
(0.0357115 -0.0151682 0)
(0.0291817 -0.0126323 0)
(0.0220856 -0.0120921 0)
(0.0153209 -0.0113988 0)
(0.00979889 -0.0104308 0)
(0.00583831 -0.00934287 0)
(0.00362545 -0.00821141 0)
(0.0032542 -0.00745061 0)
(0.00438249 -0.0077057 0)
(0.00638511 -0.00850782 0)
(0.00899568 -0.00903026 0)
(0.0122589 -0.00844049 0)
(0.0163331 -0.00576776 0)
(0.0220562 8.36752e-05 0)
(0.0285559 0.00883294 0)
(0.0347545 0.0192304 0)
(0.04242 0.0315781 0)
(0.0508843 0.0457005 0)
(0.0737996 0.0640013 0)
(0.087641 0.0722104 0)
(0.119614 0.0513962 0)
(0.158788 0.0435442 0)
(-0.0356877 0.0927337 0)
(0.886943 0.477769 0)
(-0.0706859 0.156619 0)
(0.106109 0.00376093 0)
(0.169337 -0.0167536 0)
(0.18245 -0.035756 0)
(0.218196 -0.0697859 0)
(0.23998 -0.102459 0)
(0.242433 -0.125752 0)
(0.22838 -0.137169 0)
(0.202775 -0.136948 0)
(0.170492 -0.126862 0)
(0.135757 -0.109547 0)
(0.101611 -0.0876969 0)
(0.0705434 -0.0645703 0)
(0.0440114 -0.0425794 0)
(0.0233516 -0.0242805 0)
(0.0090199 -0.0121475 0)
(-0.000335002 -0.00661786 0)
(-0.00696514 -0.00547685 0)
(-0.0125056 -0.00580337 0)
(-0.0172709 -0.00622167 0)
(-0.0210856 -0.00655767 0)
(-0.0238688 -0.00688647 0)
(-0.0255615 -0.00730279 0)
(-0.0262086 -0.00801664 0)
(-0.0261135 -0.0091952 0)
(-0.0256575 -0.0105936 0)
(-0.0249792 -0.011788 0)
(-0.0239455 -0.0123057 0)
(-0.022181 -0.0115926 0)
(-0.0188187 -0.0089417 0)
(-0.0111273 -0.00355872 0)
(-0.000618704 0.00420763 0)
(0.0106287 0.0123318 0)
(0.0232791 0.0188422 0)
(0.0443117 0.0257077 0)
(0.0643457 0.0202226 0)
(0.0837188 -0.00161608 0)
(0.141488 0.0482045 0)
(-0.432263 0.204807 0)
(1.032 0.430108 0)
(0.496962 0.28517 0)
(0.503264 0.191456 0)
(0.51184 0.1199 0)
(0.487308 0.0683492 0)
(0.444391 0.0148971 0)
(0.394317 -0.0333496 0)
(0.340744 -0.0674374 0)
(0.283385 -0.0849228 0)
(0.22467 -0.0878744 0)
(0.167911 -0.0803421 0)
(0.115869 -0.0663325 0)
(0.0695594 -0.0486023 0)
(0.0308708 -0.0305543 0)
(-0.000656922 -0.0143566 0)
(-0.0215482 -0.00426228 0)
(-0.0326765 -0.000433361 0)
(-0.0388202 0.00017714 0)
(-0.04276 -0.000658417 0)
(-0.0460571 -0.00184878 0)
(-0.0491215 -0.00297984 0)
(-0.0518926 -0.00405454 0)
(-0.0543547 -0.00512037 0)
(-0.0565113 -0.00622362 0)
(-0.0584885 -0.00743118 0)
(-0.0605681 -0.00874842 0)
(-0.063082 -0.00999158 0)
(-0.0663216 -0.0108244 0)
(-0.0705907 -0.0107695 0)
(-0.0762932 -0.00919085 0)
(-0.0839343 -0.00532561 0)
(-0.0939304 0.001557 0)
(-0.104458 0.0111316 0)
(-0.118106 0.0233417 0)
(-0.139718 0.0382531 0)
(-0.171469 0.0552992 0)
(-0.217294 0.0715291 0)
(-0.273633 0.0848161 0)
(-0.349887 0.0934246 0)
(-0.617232 0.0907038 0)
(-0.147815 0.0827699 0)
(0.134728 0.061502 0)
(0.217907 0.00562169 0)
(0.201415 -0.0291412 0)
(0.185643 -0.0433569 0)
(0.163049 -0.0478908 0)
(0.130497 -0.0461378 0)
(0.091897 -0.0396398 0)
(0.052026 -0.0298135 0)
(0.0140514 -0.0174854 0)
(-0.0231888 -0.00369262 0)
(-0.0468785 0.00401061 0)
(-0.0613041 0.00749647 0)
(-0.0682455 0.00798025 0)
(-0.0716331 0.00727531 0)
(-0.0738229 0.00638263 0)
(-0.0756707 0.00554165 0)
(-0.077524 0.00484275 0)
(-0.0794854 0.00420461 0)
(-0.0816864 0.00347635 0)
(-0.0841605 0.00256084 0)
(-0.086881 0.00154062 0)
(-0.0899273 0.000504592 0)
(-0.0934165 -0.000407851 0)
(-0.0974328 -0.000961701 0)
(-0.101988 -0.000853206 0)
(-0.107015 0.000258936 0)
(-0.112342 0.0027252 0)
(-0.117505 0.00694219 0)
(-0.121566 0.0135229 0)
(-0.124963 0.0235784 0)
(-0.127653 0.0376259 0)
(-0.130128 0.0552558 0)
(-0.132168 0.0741526 0)
(-0.130577 0.087362 0)
(-0.113177 0.080527 0)
(-0.0734449 0.0262132 0)
(-0.19799 -0.176273 0)
(-0.0230746 0.230881 0)
(0.0636078 0.0993259 0)
(0.0375159 0.01881 0)
(0.0253616 -0.00456807 0)
(0.015841 -0.00986994 0)
(-0.00295773 -0.0111614 0)
(-0.027957 -0.0086396 0)
(-0.0536658 -0.00403211 0)
(-0.0754005 0.000483848 0)
(-0.0903313 0.00348722 0)
(-0.0974513 0.00373289 0)
(-0.099933 0.00150115 0)
(-0.100202 -0.00146076 0)
(-0.0994795 -0.00480867 0)
(-0.098856 -0.00823093 0)
(-0.0987259 -0.0115038 0)
(-0.0991257 -0.0145201 0)
(-0.0999632 -0.0170941 0)
(-0.101098 -0.0190656 0)
(-0.10243 -0.0203686 0)
(-0.103941 -0.021029 0)
(-0.105691 -0.0211569 0)
(-0.107664 -0.0207677 0)
(-0.109845 -0.0200004 0)
(-0.112175 -0.0188671 0)
(-0.114479 -0.0171773 0)
(-0.116448 -0.0145978 0)
(-0.117639 -0.0106113 0)
(-0.117585 -0.00500145 0)
(-0.115469 0.00263104 0)
(-0.109996 0.0129813 0)
(-0.0998407 0.0266903 0)
(-0.0844208 0.0435809 0)
(-0.0641317 0.0605896 0)
(-0.0402286 0.0696485 0)
(0.0279166 0.0381288 0)
(0.147211 -0.0412689 0)
(-0.0494879 -0.0652657 0)
(-0.103358 -0.348646 0)
(-0.439213 -0.120346 0)
(-0.31071 0.0955195 0)
(-0.226666 -0.0203423 0)
(-0.180316 -0.0413716 0)
(-0.165987 -0.0291705 0)
(-0.163609 -0.0162121 0)
(-0.164937 -0.00590493 0)
(-0.165468 0.00269944 0)
(-0.163191 0.0102465 0)
(-0.15846 0.0171893 0)
(-0.151394 0.023525 0)
(-0.142921 0.028994 0)
(-0.134465 0.0336149 0)
(-0.126866 0.03795 0)
(-0.120447 0.0422187 0)
(-0.115215 0.0465162 0)
(-0.110992 0.0506746 0)
(-0.107628 0.0543542 0)
(-0.105024 0.0572159 0)
(-0.103102 0.0590351 0)
(-0.1018 0.059739 0)
(-0.101061 0.0593841 0)
(-0.100847 0.0581044 0)
(-0.10112 0.0560037 0)
(-0.101802 0.0534159 0)
(-0.102767 0.0505924 0)
(-0.103804 0.0476386 0)
(-0.10456 0.0446293 0)
(-0.10446 0.0416201 0)
(-0.102449 0.0393447 0)
(-0.0969362 0.0384547 0)
(-0.0857516 0.0396141 0)
(-0.0669571 0.0435807 0)
(-0.0406134 0.0508583 0)
(-0.00579584 0.0605181 0)
(0.0321411 0.0572352 0)
(0.0900219 0.0204815 0)
(0.119069 -0.0181799 0)
(-0.505031 0.0601409 0)
)
;

boundaryField
{
    floor
    {
        type            noSlip;
    }
    ceiling
    {
        type            noSlip;
    }
    sWall
    {
        type            noSlip;
    }
    nWall
    {
        type            noSlip;
    }
    sideWalls
    {
        type            empty;
    }
    glass1
    {
        type            noSlip;
    }
    glass2
    {
        type            noSlip;
    }
    sun
    {
        type            noSlip;
    }
    heatsource1
    {
        type            noSlip;
    }
    heatsource2
    {
        type            noSlip;
    }
    Table_master
    {
        type            noSlip;
    }
    Table_slave
    {
        type            noSlip;
    }
    inlet
    {
        type            fixedValue;
        value           uniform (0.3 0 0);
    }
    outlet
    {
        type            zeroGradient;
    }
}


// ************************************************************************* //
