/*--------------------------------*- C++ -*----------------------------------*\
  =========                 |
  \\      /  F ield         | OpenFOAM: The Open Source CFD Toolbox
   \\    /   O peration     | Website:  https://openfoam.org
    \\  /    A nd           | Version:  6
     \\/     M anipulation  |
\*---------------------------------------------------------------------------*/
FoamFile
{
    version     2.0;
    format      ascii;
    class       volScalarField;
    location    "400";
    object      epsilon;
}
// * * * * * * * * * * * * * * * * * * * * * * * * * * * * * * * * * * * * * //

dimensions      [0 2 -3 0 0 0 0];

internalField   nonuniform List<scalar> 
459
(
0.000147761
0.000160702
6.71504e-05
5.0705e-05
5.05207e-05
5.2809e-05
5.63081e-05
6.07884e-05
6.61258e-05
7.21555e-05
7.85656e-05
8.48404e-05
9.02556e-05
9.35952e-05
9.17201e-05
8.18675e-06
1.122e-05
1.22881e-05
8.45334e-06
5.32914e-06
4.15012e-06
3.7225e-06
4.40537e-06
5.72764e-06
7.47406e-06
9.4476e-06
1.11891e-05
1.1467e-05
1.07519e-05
9.86978e-06
8.97717e-06
7.66391e-06
6.44922e-06
5.08536e-06
0.000909416
0.00192813
0.000222603
5.28771e-05
3.82372e-05
3.8305e-05
4.10639e-05
4.50258e-05
5.00031e-05
5.60698e-05
6.33729e-05
7.20059e-05
8.16992e-05
9.13379e-05
0.000101141
0.000134154
4.30301e-05
3.13466e-05
3.17437e-05
2.39678e-05
1.59716e-05
9.8985e-06
7.85285e-06
7.14015e-06
9.70831e-06
1.41108e-05
1.92757e-05
2.39576e-05
2.67544e-05
2.71654e-05
2.57213e-05
2.25049e-05
1.83735e-05
1.48158e-05
1.37868e-05
9.96197e-06
0.00249867
0.00647986
0.000837034
0.000134645
6.06327e-05
5.03832e-05
5.04685e-05
5.38975e-05
5.9284e-05
6.63777e-05
7.52222e-05
8.58327e-05
9.78737e-05
0.000110334
0.00012238
0.000137734
0.00017441
9.54705e-05
7.91354e-05
5.1732e-05
3.98184e-05
3.09621e-05
2.33063e-05
1.04066e-05
1.25884e-05
1.5657e-05
1.90429e-05
2.27625e-05
2.70351e-05
3.25638e-05
4.04449e-05
5.45773e-05
3.99679e-05
4.08273e-05
4.60262e-05
3.50938e-05
0.00491501
0.0135021
0.002485
0.000443643
0.000139996
8.52589e-05
7.22613e-05
7.11356e-05
7.50506e-05
8.20384e-05
9.14628e-05
0.000102895
0.000115597
0.000128355
0.000140243
0.000153002
0.00017709
0.000236283
8.73659e-05
6.64829e-05
6.05718e-05
6.16315e-05
6.77674e-05
7.98147e-05
0.000102838
0.000103496
0.000104006
0.000104668
0.000106238
0.000109549
0.000115726
0.000126626
0.000145907
8.25898e-05
9.40994e-05
0.000113201
0.000142569
0.0078964
0.021576
0.00541767
0.00137934
0.000456948
0.00020206
0.000127519
0.000105786
0.000102164
0.0001066
0.000115934
0.000128606
0.000142935
0.000156233
0.000164578
0.000163505
0.000150472
0.000126341
9.72543e-05
8.38221e-05
7.88666e-05
7.8094e-05
7.92726e-05
8.12061e-05
8.26455e-05
8.26638e-05
8.25548e-05
8.26614e-05
8.33581e-05
8.50638e-05
8.82413e-05
9.33585e-05
0.000100697
0.000109863
0.0001273
0.000152651
0.000189003
0.00024767
0.00021901
0.000116836
0.0112292
0.0277517
0.00998754
0.00358604
0.0015083
0.000648067
0.000305995
0.000188912
0.000154643
0.000147327
0.00015303
0.000166656
0.000185356
0.000205961
0.000223816
0.000232721
0.000227159
0.000207317
0.000182929
0.000163774
0.000151067
0.000144253
0.000141332
0.0001399
0.000138624
0.000136987
0.000135133
0.000133221
0.000131559
0.00013061
0.000131014
0.000133646
0.000139664
0.000150487
0.000167883
0.00019329
0.000228492
0.000274795
0.000324831
0.000288511
0.0146162
0.0282963
0.0170735
0.00898109
0.00463162
0.00216241
0.000926166
0.000437343
0.000278869
0.000226445
0.000215362
0.00022414
0.000244747
0.000272754
0.000303189
0.000327939
0.000338569
0.000332201
0.000314874
0.000295068
0.000277804
0.000264797
0.000255929
0.000250064
0.000245664
0.000241626
0.000237457
0.000233032
0.000228533
0.000224398
0.00022131
0.000220266
0.0002227
0.000230665
0.000247134
0.00027631
0.000326571
0.000421154
0.000591718
0.000662557
0.0141592
0.0290722
0.0318219
0.0216137
0.0116891
0.00546094
0.00245352
0.00115667
0.000624812
0.000418601
0.000348926
0.000336792
0.000351164
0.000380424
0.000420392
0.000460337
0.000489536
0.000501869
0.000498566
0.000485863
0.000469768
0.000454221
0.000441348
0.000431436
0.000423543
0.000416448
0.00040924
0.000401511
0.000393298
0.000384966
0.000377172
0.000370913
0.000367602
0.000369305
0.00037919
0.00040117
0.000441808
0.000547764
0.000900894
0.00092313
0.0118159
0.0190538
0.109238
0.0653915
0.0275586
0.0107168
0.00443601
0.00210353
0.00118707
0.000812418
0.000664837
0.000619347
0.000621511
0.000646783
0.00068237
0.000721518
0.00075711
0.00078335
0.000795422
0.000794716
0.00078545
0.000771998
0.000758238
0.000745673
0.000734364
0.000723376
0.000711694
0.000698949
0.000685236
0.000670896
0.000656498
0.000642916
0.000631446
0.000624035
0.00062362
0.000633197
0.000653169
0.000701265
0.00097929
0.00115423
0.305281
0.190021
0.0356835
0.00974913
0.00464626
0.00278178
0.00196848
0.00161382
0.00147538
0.00143664
0.00143852
0.00145241
0.00146736
0.001481
0.00149272
0.00149986
0.00150132
0.00149588
0.00148363
0.0014662
0.00144837
0.00143022
0.00141198
0.00139234
0.00137016
0.00134581
0.00132008
0.00129377
0.00126759
0.0012423
0.00121888
0.00119879
0.00118412
0.00117679
0.00117692
0.00119544
0.0013462
0.00141344
0.178912
0.0959434
0.0321902
0.0133996
0.00711527
0.00469666
0.00371474
0.00338251
0.00335251
0.00343296
0.00351819
0.00356335
0.00356417
0.00353392
0.00348666
0.00343139
0.00337194
0.00331041
0.00324884
0.00319017
0.00313456
0.00308375
0.00303832
0.00299426
0.00294757
0.00289801
0.00284679
0.00279526
0.00274444
0.00269511
0.00264805
0.00260428
0.00256459
0.00252719
0.00248498
0.00242917
0.0027623
0.00175639
0.000810278
0.00183064
0.0443835
0.0343787
0.0217966
0.0134879
0.00870445
0.00597223
0.00437315
0.00343523
0.00291124
0.00264165
0.00251767
0.00246728
0.00244681
0.0024337
0.00241868
0.00239874
0.00237327
0.00234235
0.00230631
0.00226585
0.00222242
0.00217667
0.00212931
0.00208348
0.00203915
0.00199381
0.00194616
0.00189561
0.00184172
0.00178398
0.00172165
0.00165372
0.00157876
0.0014944
0.00139623
0.00127753
0.00116001
0.000730807
)
;

boundaryField
{
    floor
    {
        Cmu             0.09;
        kappa           0.41;
        E               9.8;
        type            epsilonWallFunction;
        value           nonuniform List<scalar> 
29
(
9.17201e-05
8.18675e-06
1.122e-05
1.22881e-05
8.45334e-06
5.32914e-06
4.15012e-06
3.7225e-06
4.40537e-06
5.72764e-06
7.47406e-06
9.4476e-06
1.11891e-05
1.1467e-05
1.07519e-05
9.86978e-06
8.97717e-06
7.66391e-06
6.44922e-06
5.08536e-06
5.08536e-06
9.96197e-06
3.50938e-05
0.000142569
9.17201e-05
8.18675e-06
3.13466e-05
9.54705e-05
0.000236283
)
;
    }
    ceiling
    {
        Cmu             0.09;
        kappa           0.41;
        E               9.8;
        type            epsilonWallFunction;
        value           nonuniform List<scalar> 
43
(
0.000810278
0.00183064
0.0443835
0.0343787
0.0217966
0.0134879
0.00870445
0.00597223
0.00437315
0.00343523
0.00291124
0.00264165
0.00251767
0.00246728
0.00244681
0.0024337
0.00241868
0.00239874
0.00237327
0.00234235
0.00230631
0.00226585
0.00222242
0.00217667
0.00212931
0.00208348
0.00203915
0.00199381
0.00194616
0.00189561
0.00184172
0.00178398
0.00172165
0.00165372
0.00157876
0.0014944
0.00139623
0.00127753
0.00116001
0.000730807
0.0118159
0.0190538
0.178912
)
;
    }
    sWall
    {
        Cmu             0.09;
        kappa           0.41;
        E               9.8;
        type            epsilonWallFunction;
        value           uniform 0.000810278;
    }
    nWall
    {
        Cmu             0.09;
        kappa           0.41;
        E               9.8;
        type            epsilonWallFunction;
        value           nonuniform List<scalar> 6(0.000116836 0.000288511 0.000662557 0.00141344 0.00175639 0.000730807);
    }
    sideWalls
    {
        type            empty;
    }
    glass1
    {
        Cmu             0.09;
        kappa           0.41;
        E               9.8;
        type            epsilonWallFunction;
        value           nonuniform List<scalar> 9(0.000147761 0.000909416 0.00249867 0.00491501 0.0078964 0.0112292 0.0146162 0.0141592 0.0118159);
    }
    glass2
    {
        Cmu             0.09;
        kappa           0.41;
        E               9.8;
        type            epsilonWallFunction;
        value           nonuniform List<scalar> 2(0.00092313 0.00115423);
    }
    sun
    {
        Cmu             0.09;
        kappa           0.41;
        E               9.8;
        type            epsilonWallFunction;
        value           nonuniform List<scalar> 
14
(
0.000147761
0.000160702
6.71504e-05
5.0705e-05
5.05207e-05
5.2809e-05
5.63081e-05
6.07884e-05
6.61258e-05
7.21555e-05
7.85656e-05
8.48404e-05
9.02556e-05
9.35952e-05
)
;
    }
    heatsource1
    {
        Cmu             0.09;
        kappa           0.41;
        E               9.8;
        type            epsilonWallFunction;
        value           nonuniform List<scalar> 3(0.00024767 0.00021901 0.000116836);
    }
    heatsource2
    {
        Cmu             0.09;
        kappa           0.41;
        E               9.8;
        type            epsilonWallFunction;
        value           nonuniform List<scalar> 4(0.000134154 4.30301e-05 4.30301e-05 0.00017441);
    }
    Table_master
    {
        Cmu             0.09;
        kappa           0.41;
        E               9.8;
        type            epsilonWallFunction;
        value           nonuniform List<scalar> 9(1.04066e-05 1.25884e-05 1.5657e-05 1.90429e-05 2.27625e-05 2.70351e-05 3.25638e-05 4.04449e-05 5.45773e-05);
    }
    Table_slave
    {
        Cmu             0.09;
        kappa           0.41;
        E               9.8;
        type            epsilonWallFunction;
        value           nonuniform List<scalar> 9(0.000102838 0.000103496 0.000104006 0.000104668 0.000106238 0.000109549 0.000115726 0.000126626 0.000145907);
    }
    inlet
    {
        type            turbulentMixingLengthDissipationRateInlet;
        mixingLength    0.01;
        phi             phi;
        k               k;
        value           uniform 0.305281;
    }
    outlet
    {
        type            zeroGradient;
    }
}


// ************************************************************************* //
