/*--------------------------------*- C++ -*----------------------------------*\
  =========                 |
  \\      /  F ield         | OpenFOAM: The Open Source CFD Toolbox
   \\    /   O peration     | Website:  https://openfoam.org
    \\  /    A nd           | Version:  6
     \\/     M anipulation  |
\*---------------------------------------------------------------------------*/
FoamFile
{
    version     2.0;
    format      ascii;
    class       surfaceScalarField;
    location    "400";
    object      phi;
}
// * * * * * * * * * * * * * * * * * * * * * * * * * * * * * * * * * * * * * //

dimensions      [1 0 -1 0 0 0 0];

internalField   nonuniform List<scalar> 
852
(
-0.00208993
0.00214224
-0.00206988
-1.98556e-05
-0.00188655
-0.000183129
-0.0017802
-0.000106147
-0.00171855
-6.14492e-05
-0.00167802
-4.03358e-05
-0.00164591
-3.19032e-05
-0.00161216
-3.35548e-05
-0.0015661
-4.58592e-05
-0.00149493
-7.09565e-05
-0.00138352
-0.000111203
-0.00121361
-0.000169697
-0.000956966
-0.00025642
-0.000561834
-0.000394908
-0.000561556
-0.000281561
0.000284472
-0.000234046
-4.739e-05
-0.000109692
-0.000124225
-5.60848e-06
-0.000103956
0.000125829
-0.000131308
0.000261997
-0.000136042
0.000370085
-0.000107975
0.000461052
-9.08584e-05
0.000532179
-7.10166e-05
0.000590431
-5.81392e-05
0.000644331
-5.37847e-05
0.00069608
-5.16296e-05
0.000718481
-2.22815e-05
0.000709282
9.31975e-06
0.000676108
3.32932e-05
0.000626508
4.97103e-05
0.000616312
1.02929e-05
0.000517093
9.93048e-05
0.000520133
-0.00149572
0.003769
-0.00186219
0.00034683
-0.00187227
-0.00017283
-0.00184912
-0.000129078
-0.00182101
-8.93405e-05
-0.00179266
-6.84683e-05
-0.00176568
-5.86634e-05
-0.00173785
-6.1162e-05
-0.00170366
-7.98319e-05
-0.00165421
-0.000120174
-0.00157677
-0.000188422
-0.00145443
-0.000291802
-0.0012711
-0.000439523
-0.00103039
-0.000635377
-0.000746011
-0.000845687
0.000132822
-0.000878636
0.000133
0.000578673
-0.000288909
0.00046174
6.97362e-05
0.000205451
0.000132246
3.65657e-05
6.50885e-05
-6.55984e-05
-2.89757e-05
-0.000157398
-4.40895e-05
-9.52527e-05
-0.000169975
-6.82714e-05
-0.000117701
-6.28728e-05
-7.62838e-05
-7.23665e-05
-4.85206e-05
-9.97368e-05
-2.6292e-05
-0.000152225
9.78065e-07
-0.000216283
4.18878e-05
-0.00028002
7.31552e-05
-0.000339965
9.33266e-05
-0.000425518
0.000135338
-0.000570528
0.000155357
-0.000609215
0.000138028
-8.28663e-05
-0.0010624
0.00502192
-0.00155166
0.000836319
-0.00172103
-3.22511e-06
-0.00178072
-6.91591e-05
-0.00178998
-7.98427e-05
-0.00177914
-7.90767e-05
-0.00176341
-7.4163e-05
-0.00174974
-7.46098e-05
-0.00173953
-8.98045e-05
-0.00173001
-0.00012947
-0.001715
-0.000203198
-0.00168662
-0.000319945
-0.00164047
-0.000485435
-0.00158321
-0.000692384
-0.00152513
-0.000903523
-0.00133924
-0.00106427
-0.00120598
-0.000664968
0.000380438
-0.000766117
0.00017111
-0.000746371
0.000112721
-0.000736065
5.49985e-05
-0.000757644
-7.18274e-06
-0.000702382
-9.91418e-05
-0.000872026
-0.00098941
-0.0010654
-0.00111364
-0.00113967
-0.00113842
-0.00109626
-0.00102283
-0.00092921
-0.000655424
-0.000138296
-0.000366134
-0.000133805
1.69203e-05
-0.000244909
-6.67388e-05
-0.000709216
0.00596992
-0.0011921
0.00131944
-0.00141722
0.000222156
-0.00155431
6.81796e-05
-0.0016274
-6.50971e-06
-0.00164781
-5.84303e-05
-0.00164621
-7.55211e-05
-0.00164349
-7.70938e-05
-0.00165178
-8.12737e-05
-0.00167698
-0.000104039
-0.00172192
-0.000158017
-0.00178974
-0.000251887
-0.00188844
-0.000386492
-0.00203166
-0.000548905
-0.00222432
-0.000710616
-0.00246429
-0.000824041
-0.0029355
-0.000734501
-0.00259924
-0.000336135
-0.00218732
-3.12124e-05
-0.00210411
8.81811e-05
-0.00209755
0.000106448
-0.00213102
8.87528e-05
-0.00217752
3.95952e-05
-0.00225831
-1.80848e-05
-0.00222938
-2.88057e-05
-0.00218005
-4.92105e-05
-0.00211135
-6.85862e-05
-0.00202799
-8.32338e-05
-0.00193173
-9.61425e-05
-0.0018221
-0.0001095
-0.00169603
-0.000125936
-0.00154504
-0.000150854
-0.00134886
-0.000196029
-0.00119763
-0.00028923
-0.000956394
-0.000374735
-0.000707045
-0.000493959
-0.000779066
-0.000422788
0.00667317
-0.000842182
0.00173908
-0.000917829
0.000298082
-0.00102937
0.000180007
-0.00121201
0.000176391
-0.00133675
6.65589e-05
-0.00138037
-3.16521e-05
-0.00139016
-6.70597e-05
-0.00140261
-6.8579e-05
-0.00143355
-7.28579e-05
-0.00149232
-9.9e-05
-0.0015853
-0.000158671
-0.00171756
-0.000253984
-0.00189116
-0.000375051
-0.00210392
-0.00049759
-0.00235685
-0.000570841
-0.00258386
-0.000507222
-0.00260332
-0.000316396
-0.00250268
-0.000131573
-0.00239386
-2.03569e-05
-0.00231561
2.84938e-05
-0.00226178
3.52159e-05
-0.00223054
8.64565e-06
-0.00221904
-2.93007e-05
-0.00218841
-5.91436e-05
-0.00215102
-8.63086e-05
-0.00210897
-0.00011034
-0.00206113
-0.000130774
-0.00200791
-0.000149069
-0.00194975
-0.000167354
-0.00188634
-0.000189036
-0.00181622
-0.000220656
-0.00173951
-0.000272409
-0.00167901
-0.0003494
-0.00159834
-0.000455083
-0.00147596
-0.000616015
-0.00143863
-0.000816072
-0.000516576
-0.000921932
0.00032663
-0.000843006
0.000343146
-0.00032682
0.00731752
-0.000560695
0.00197323
-0.000247377
-1.49208e-05
-0.000159894
9.28389e-05
-0.000416552
0.000433348
-0.000725478
0.00037576
-0.000903107
0.000146234
-0.00097136
1.4436e-06
-0.00100029
-3.9399e-05
-0.00102985
-4.30472e-05
-0.00108013
-4.84772e-05
-0.00116278
-7.57694e-05
-0.00128428
-0.000132225
-0.00144569
-0.00021338
-0.00164243
-0.000300592
-0.00185709
-0.000355905
-0.00202923
-0.000334805
-0.00210234
-0.000243003
-0.00209249
-0.000141139
-0.00204584
-6.67106e-05
-0.00199113
-2.59251e-05
-0.00194032
-1.5294e-05
-0.00190275
-2.86137e-05
-0.00187809
-5.36561e-05
-0.0018565
-8.04278e-05
-0.0018356
-0.000106899
-0.00181432
-0.000131303
-0.0017917
-0.000153086
-0.00176776
-0.000172682
-0.0017434
-0.000191391
-0.00172012
-0.000211987
-0.00170068
-0.000239767
-0.0016903
-0.000282451
-0.0016912
-0.000348165
-0.00169639
-0.000449546
-0.00171483
-0.000597237
-0.00175187
-0.000778674
-0.00166535
-0.00100807
-0.00125642
-0.00125146
-0.000898946
-0.0006546
0.00832344
-3.31347e-05
0.00135204
0.000861044
-0.000908753
0.0010247
-7.0471e-05
0.000642102
0.000816276
0.000211407
0.000806753
-0.0001129
0.000470814
-0.000313338
0.000202143
-0.000416036
6.35588e-05
-0.000469103
1.02813e-05
-0.000513727
-3.5915e-06
-0.000575359
-1.38736e-05
-0.00066754
-3.9779e-05
-0.000795014
-8.56369e-05
-0.000953316
-0.000142016
-0.00112277
-0.000186171
-0.00126499
-0.000192293
-0.00134888
-0.000158829
-0.00137742
-0.000112299
-0.00137074
-7.30884e-05
-0.00134718
-4.91767e-05
-0.00131987
-4.22985e-05
-0.0012975
-5.0664e-05
-0.0012822
-6.86356e-05
-0.00127166
-9.0648e-05
-0.00126409
-0.000114139
-0.00125782
-0.00013724
-0.00125143
-0.000159141
-0.00124401
-0.00017976
-0.00123535
-0.000199699
-0.00122634
-0.000220646
-0.00121986
-0.000245895
-0.00122137
-0.000280583
-0.00123669
-0.000332493
-0.00127247
-0.000413405
-0.00134067
-0.000528693
-0.00145545
-0.000663553
-0.00159446
-0.000868715
-0.0014517
-0.00139386
-0.00234047
0.0016704
0.00704989
0.00279562
0.000227109
0.00307946
-0.00119223
0.0024236
0.000585772
0.00164125
0.00159897
0.00112843
0.00131988
0.000789811
0.000809705
0.000551595
0.000440624
0.000391545
0.000223878
0.000292521
0.000109582
0.000230226
5.89901e-05
0.000177313
3.93303e-05
0.000112309
2.55179e-05
2.38823e-05
3.08337e-06
-8.8393e-05
-2.94477e-05
-0.000212521
-6.17458e-05
-0.000324616
-7.98969e-05
-0.000404303
-7.8836e-05
-0.000448692
-6.76001e-05
-0.000466092
-5.53731e-05
-0.000467174
-4.77756e-05
-0.000461539
-4.76093e-05
-0.000456042
-5.58318e-05
-0.000453885
-7.046e-05
-0.000455363
-8.88327e-05
-0.000460132
-0.000109027
-0.000467217
-0.000129806
-0.000475124
-0.000150881
-0.000482084
-0.000172439
-0.00048632
-0.000195096
-0.000486413
-0.000220178
-0.000481884
-0.000250044
-0.000473735
-0.000288348
-0.000465212
-0.00034063
-0.00046443
-0.000413802
-0.000486564
-0.000506179
-0.000557784
-0.00059196
-0.000724281
-0.000701856
-0.00081539
-0.00130239
-0.0031075
0.00747812
0.0076866
0.00576003
0.000734785
0.00302637
0.00331986
0.00194495
0.00268074
0.00152646
0.00173867
0.0013521
0.000984344
0.00125805
0.000534966
0.00119277
0.000289449
0.00114587
0.000156791
0.00111208
9.31049e-05
0.00108402
6.77126e-05
0.00105187
5.7989e-05
0.00100494
5.03406e-05
0.000938064
3.77649e-05
0.000856675
1.99762e-05
0.000775176
1.93485e-06
0.000707564
-1.08925e-05
0.000658423
-1.81259e-05
0.000625842
-2.24562e-05
0.00060507
-2.66654e-05
0.000590569
-3.27671e-05
0.000578404
-4.33217e-05
0.000565662
-5.73699e-05
0.000550982
-7.38015e-05
0.000533298
-9.09866e-05
0.000512291
-0.000108437
0.000488818
-0.00012704
0.000464431
-0.000147678
0.000441076
-0.00017136
0.000420896
-0.000199609
0.000406021
-0.000234773
0.000398348
-0.000280272
0.000398925
-0.000340799
0.000407058
-0.000421526
0.000424232
-0.000522945
0.000468879
-0.000636206
0.000561518
-0.000794103
0.000513486
-0.00125398
-0.00254241
-0.00383348
0.00251301
-0.00211545
0.00160231
-0.000233677
0.000799359
0.000872016
0.000633336
0.00142935
0.00042736
0.00171919
0.000245476
0.00188211
0.000126904
0.00198141
5.7872e-05
0.00204196
3.2937e-05
0.00207613
3.39369e-05
0.00208977
4.47344e-05
0.00208539
5.51013e-05
0.00206407
5.9461e-05
0.00202754
5.68821e-05
0.00197993
4.99096e-05
0.00192892
4.04927e-05
0.00188028
3.08735e-05
0.00183684
2.13519e-05
0.00179902
1.15194e-05
0.00176608
5.35912e-07
0.00173605
-1.29242e-05
0.00170636
-2.73166e-05
0.00167553
-4.25982e-05
0.00164183
-5.69183e-05
0.00160438
-7.06124e-05
0.00156346
-8.57436e-05
0.0015197
-0.000103533
0.00147393
-0.000125205
0.00142713
-0.000152417
0.00138025
-0.000187488
0.00133397
-0.000233586
0.00128837
-0.000294786
0.00124284
-0.000375579
0.00119901
-0.000478706
0.00116669
-0.00060348
0.00113621
-0.000763212
0.000925256
-0.00104264
-0.00160671
-0.000474208
0.00295997
0.00107793
5.07065e-05
0.0017095
0.000168274
0.00222744
0.000115868
0.00267644
-2.11495e-05
0.00298082
-5.84126e-05
0.00314846
-4.02462e-05
0.00321385
-7.03099e-06
0.00321754
2.97314e-05
0.00319216
5.97802e-05
0.00315776
7.95847e-05
0.00312421
8.91022e-05
0.0030939
9.02016e-05
0.00306553
8.56684e-05
0.00303764
7.8217e-05
0.0030091
6.94334e-05
0.00298009
6.02861e-05
0.0029508
5.10335e-05
0.00292107
4.16445e-05
0.00289008
3.19153e-05
0.00285465
2.2887e-05
0.00281423
1.34916e-05
0.00276816
3.85278e-06
0.00271708
-5.45214e-06
0.00266182
-1.49759e-05
0.00260212
-2.56524e-05
0.00253712
-3.8153e-05
0.00246572
-5.34105e-05
0.00238634
-7.26454e-05
0.00229673
-9.74778e-05
0.00219357
-0.000130022
0.00207215
-0.000172961
0.00192658
-0.000229601
0.00175221
-0.000303929
0.00155015
-0.000401009
0.00131369
-0.000526347
0.000962002
-0.000690555
-0.000634366
0.0044956
0.00165704
0.00457256
0.00457743
0.00469573
0.00475642
0.00467465
0.00455067
0.00444078
0.00436121
0.00431706
0.00430305
0.00430992
0.00432787
0.00434862
0.00436646
0.00437837
0.00438289
0.00437952
0.00436807
0.00434829
0.00431976
0.00428311
0.00423792
0.00418389
0.00412135
0.00405005
0.00396882
0.0038758
0.00376818
0.00364195
0.00349146
0.00330893
0.00308393
0.00280266
0.00244736
0.00199515
0.00141763
0.000676143
)
;

boundaryField
{
    floor
    {
        type            calculated;
        value           nonuniform List<scalar> 
29
(
0
0
0
0
0
0
0
0
0
0
0
0
0
0
0
0
0
0
0
0
-2.96491e-06
-6.19615e-06
8.5031e-07
5.57901e-06
-5.07579e-08
-2.79571e-06
-5.09193e-06
-4.1557e-06
1.45193e-07
)
;
    }
    ceiling
    {
        type            calculated;
        value           nonuniform List<scalar> 
43
(
0.000128185
0.000102661
4.49793e-05
4.63908e-05
5.05564e-05
5.57565e-05
6.12099e-05
6.6142e-05
7.02188e-05
7.30991e-05
7.44315e-05
7.43276e-05
7.32377e-05
7.16604e-05
6.99546e-05
6.83045e-05
6.67748e-05
6.53751e-05
6.40962e-05
6.29264e-05
6.18544e-05
6.08687e-05
5.99513e-05
5.90931e-05
5.82852e-05
5.74948e-05
5.6717e-05
5.597e-05
5.52624e-05
5.45978e-05
5.39789e-05
5.3409e-05
5.28939e-05
5.24416e-05
5.20623e-05
5.17713e-05
5.15954e-05
5.15648e-05
5.13258e-05
5.56684e-05
2.13066e-05
1.88799e-05
2.79113e-05
)
;
    }
    sWall
    {
        type            calculated;
        value           uniform -8.40256e-05;
    }
    nWall
    {
        type            calculated;
        value           nonuniform List<scalar> 6(-1.64535e-05 -1.3678e-05 -9.8073e-06 -1.00678e-05 -9.94899e-06 -1.35151e-05);
    }
    sideWalls
    {
        type            empty;
        value           nonuniform 0();
    }
    glass1
    {
        type            calculated;
        value           nonuniform List<scalar> 9(-5.21164e-05 -0.000130854 -0.000190327 -0.000238584 -0.000280271 -0.000317329 -0.000351104 -0.000396636 -0.000449324);
    }
    glass2
    {
        type            calculated;
        value           nonuniform List<scalar> 2(-4.80092e-05 -5.12275e-05);
    }
    sun
    {
        type            calculated;
        value           uniform 0;
    }
    heatsource1
    {
        type            calculated;
        value           nonuniform List<scalar> 3(2.00271e-07 2.00595e-07 2.0103e-07);
    }
    heatsource2
    {
        type            calculated;
        value           nonuniform List<scalar> 4(5.04492e-08 5.06311e-08 0 0);
    }
    Table_master
    {
        type            calculated;
        value           nonuniform List<scalar> 9(-1.52364e-07 -1.52263e-07 -1.52166e-07 -1.52081e-07 -1.52005e-07 -1.51936e-07 -1.51863e-07 -1.51779e-07 -1.5166e-07);
    }
    Table_slave
    {
        type            calculated;
        value           nonuniform List<scalar> 9(1.50444e-07 1.5044e-07 1.50442e-07 1.50452e-07 1.50466e-07 1.50484e-07 1.50506e-07 1.50534e-07 1.50553e-07);
    }
    inlet
    {
        type            calculated;
        value           uniform 0.00205599;
    }
    outlet
    {
        type            calculated;
        value           nonuniform List<scalar> 2(-0.00453936 0.00273631);
    }
}


// ************************************************************************* //
