// -*- C++ -*-
// File generated by PyFoam - sorry for the ugliness

FoamFile
{
 version 2.0;
 format ascii;
 class volVectorField;
 location "900";
 object U;
}

dimensions [ 0 1 -1 0 0 0 0 ];

internalField nonuniform List<vector> 459
(
  (0.02958 0.087373 0)
  (-0.17068 0.0266298 0)
  (-0.197683 0.0173162 0)
  (-0.228326 0.0103613 0)
  (-0.248371 0.00274918 0)
  (-0.256236 -0.00535567 0)
  (-0.249771 -0.0139228 0)
  (-0.229314 -0.0227184 0)
  (-0.19646 -0.0302473 0)
  (-0.1551 -0.0350614 0)
  (-0.110377 -0.0363495 0)
  (-0.0675629 -0.033712 0)
  (-0.0310769 -0.0265454 0)
  (-0.00264188 -0.0122712 0)
  (-0.0178993 0.00579364 0)
  (-0.0117651 0.0106429 0)
  (-0.0347208 -0.015242 0)
  (-0.0136508 -0.0262691 0)
  (0.0109434 -0.0228512 0)
  (0.0286051 -0.0165033 0)
  (0.0435438 -0.0111544 0)
  (0.0534218 -0.00643932 0)
  (0.058829 -0.00389548 0)
  (0.0612957 -0.00289688 0)
  (0.0624776 -0.00248332 0)
  (0.0632194 -0.00222646 0)
  (0.063693 -0.00201811 0)
  (0.0638377 -0.00178454 0)
  (0.0634543 -0.00134618 0)
  (0.0620049 -0.000335026 0)
  (0.0583189 0.00176775 0)
  (0.0511214 0.00410339 0)
  (0.0434325 0.00652066 0)
  (-0.00843002 0.0215074 0)
  (0.201488 0.179101 0)
  (-0.157661 0.0713677 0)
  (-0.159387 0.0540168 0)
  (-0.191314 0.0395397 0)
  (-0.211608 0.0229305 0)
  (-0.220152 0.00407433 0)
  (-0.214591 -0.016885 0)
  (-0.195714 -0.0376408 0)
  (-0.165878 -0.0543909 0)
  (-0.129359 -0.0641811 0)
  (-0.0909455 -0.0660415 0)
  (-0.0549028 -0.0601942 0)
  (-0.0244334 -0.047084 0)
  (-0.000182607 -0.0261318 0)
  (0.012489 -0.00570667 0)
  (0.0225312 0.00436414 0)
  (0.0183258 0.0200927 0)
  (0.0548595 0.0407785 0)
  (0.0154836 -0.0194447 0)
  (0.0284027 -0.0340906 0)
  (0.0405287 -0.0316238 0)
  (0.0508018 -0.0241588 0)
  (0.0589572 -0.0162314 0)
  (0.0627837 -0.00720938 0)
  (0.0636882 -0.00187118 0)
  (0.0636875 0.000278265 0)
  (0.0638237 0.00115835 0)
  (0.0640762 0.00166525 0)
  (0.0642635 0.00205946 0)
  (0.0643442 0.00254217 0)
  (0.064266 0.00342771 0)
  (0.0635338 0.00558691 0)
  (0.0598181 0.01153 0)
  (0.0504645 0.0166271 0)
  (0.0451204 0.0207599 0)
  (-0.0458289 0.0459362 0)
  (0.359428 0.267855 0)
  (-0.171629 0.112932 0)
  (-0.12003 0.0871388 0)
  (-0.151214 0.0619208 0)
  (-0.16979 0.0345373 0)
  (-0.177732 0.00368771 0)
  (-0.171029 -0.0301102 0)
  (-0.151657 -0.0626228 0)
  (-0.12338 -0.0873024 0)
  (-0.0910953 -0.100074 0)
  (-0.0589451 -0.100626 0)
  (-0.029726 -0.0902551 0)
  (-0.00524658 -0.0707531 0)
  (0.0149503 -0.0437451 0)
  (0.0288772 -0.0172524 0)
  (0.0362697 0.00669418 0)
  (0.0370632 0.0413003 0)
  (0.109789 -0.0138824 0)
  (0.0741241 -0.0333268 0)
  (0.0683505 -0.0393653 0)
  (0.0696578 -0.0365985 0)
  (0.07127 -0.0296374 0)
  (0.0733554 -0.0229487 0)
  (0.0725556 -0.0179258 0)
  (0.0666746 -0.0121798 0)
  (0.0622704 -0.00906448 0)
  (0.060312 -0.00730678 0)
  (0.0594851 -0.00618587 0)
  (0.0590137 -0.00542113 0)
  (0.0588377 -0.00479628 0)
  (0.0594375 -0.00388019 0)
  (0.0619516 -0.000663195 0)
  (0.0598312 0.0162655 0)
  (0.046879 0.0277932 0)
  (0.0494386 0.0359361 0)
  (-0.0806813 0.0704402 0)
  (0.50291 0.339203 0)
  (-0.20354 0.14943 0)
  (-0.0782635 0.115742 0)
  (-0.107847 0.0816009 0)
  (-0.121921 0.0458086 0)
  (-0.126437 0.00377278 0)
  (-0.114447 -0.0435376 0)
  (-0.0929713 -0.0871931 0)
  (-0.0667867 -0.117763 0)
  (-0.0405046 -0.131372 0)
  (-0.0166275 -0.12959 0)
  (0.00437238 -0.114586 0)
  (0.0211968 -0.0905145 0)
  (0.035734 -0.0610607 0)
  (0.0491953 -0.030708 0)
  (0.0638522 -0.00172926 0)
  (0.0831599 0.0304354 0)
  (0.113012 0.0360456 0)
  (0.113361 -0.0101786 0)
  (0.0987789 -0.0286143 0)
  (0.0886199 -0.0331838 0)
  (0.081745 -0.0317719 0)
  (0.0761816 -0.0267795 0)
  (0.071906 -0.0193082 0)
  (0.0722332 -0.0115039 0)
  (0.0776941 -0.00805703 0)
  (0.08207 -0.00614871 0)
  (0.0844099 -0.00487725 0)
  (0.0854048 -0.00362707 0)
  (0.0846563 -0.00202228 0)
  (0.0812999 0.000173862 0)
  (0.074054 0.00331155 0)
  (0.0601503 0.00801942 0)
  (0.0474458 0.0272609 0)
  (0.0354536 0.042685 0)
  (0.0527935 0.0545976 0)
  (-0.119361 0.0909461 0)
  (0.628257 0.394202 0)
  (-0.244206 0.178625 0)
  (-0.0365435 0.132527 0)
  (-0.0616221 0.0932514 0)
  (-0.0683814 0.0525179 0)
  (-0.0635065 0.00100704 0)
  (-0.0413989 -0.0602267 0)
  (-0.0185525 -0.111031 0)
  (0.00265829 -0.142707 0)
  (0.0195878 -0.153172 0)
  (0.0322676 -0.147143 0)
  (0.0416736 -0.129096 0)
  (0.048819 -0.10297 0)
  (0.0551856 -0.0726289 0)
  (0.0621554 -0.0424853 0)
  (0.0713356 -0.0166515 0)
  (0.0848212 -0.000476052 0)
  (0.0945072 -0.00877827 0)
  (0.0938677 -0.0210383 0)
  (0.0866566 -0.0257101 0)
  (0.0773355 -0.026061 0)
  (0.0688056 -0.0242885 0)
  (0.0616843 -0.0206225 0)
  (0.0565582 -0.0150652 0)
  (0.0547784 -0.0077837 0)
  (0.0561391 -0.00396818 0)
  (0.0579743 -0.00248257 0)
  (0.0596301 -0.00147903 0)
  (0.061138 0.000249433 0)
  (0.0621652 0.00323199 0)
  (0.0616278 0.00764507 0)
  (0.0589178 0.0137191 0)
  (0.0533466 0.0220735 0)
  (0.0465026 0.036742 0)
  (0.0364464 0.0534858 0)
  (0.0608922 0.0719423 0)
  (-0.0279748 0.100978 0)
  (0.0461548 0.0285284 0)
  (-0.0610937 -0.0333252 0)
  (-0.271217 -0.0560762 0)
  (0.720914 0.439516 0)
  (-0.285185 0.197418 0)
  (-0.00399098 0.128986 0)
  (-0.0131056 0.0939534 0)
  (-0.00924394 0.0513652 0)
  (0.0191008 -0.0157175 0)
  (0.0475797 -0.0834769 0)
  (0.0671851 -0.130916 0)
  (0.0786488 -0.156296 0)
  (0.0831445 -0.162021 0)
  (0.0825081 -0.152241 0)
  (0.0785578 -0.131524 0)
  (0.0732103 -0.104255 0)
  (0.0682318 -0.0742889 0)
  (0.0651059 -0.0456888 0)
  (0.0648923 -0.0223491 0)
  (0.0678381 -0.00805364 0)
  (0.069573 -0.00673445 0)
  (0.0664567 -0.0109889 0)
  (0.0593494 -0.0149225 0)
  (0.0508215 -0.0165805 0)
  (0.0429015 -0.0162685 0)
  (0.036326 -0.0143324 0)
  (0.0316571 -0.0110328 0)
  (0.029542 -0.00718549 0)
  (0.0298644 -0.00532247 0)
  (0.03145 -0.00487868 0)
  (0.0337697 -0.00445887 0)
  (0.036642 -0.00288922 0)
  (0.0400044 0.000756027 0)
  (0.0429017 0.00668762 0)
  (0.0446764 0.0147237 0)
  (0.0454752 0.0250256 0)
  (0.0465147 0.0387336 0)
  (0.0456171 0.0550222 0)
  (0.0697775 0.0760908 0)
  (0.0484175 0.092954 0)
  (0.0920945 0.0640922 0)
  (0.115274 0.0430441 0)
  (-0.127699 -0.00628006 0)
  (0.778331 0.480546 0)
  (-0.30596 0.181506 0)
  (0.0261897 0.0768875 0)
  (0.0501917 0.0638876 0)
  (0.0715539 0.0254391 0)
  (0.118997 -0.0484456 0)
  (0.147071 -0.107355 0)
  (0.158583 -0.143534 0)
  (0.156786 -0.158854 0)
  (0.145237 -0.157031 0)
  (0.127572 -0.142305 0)
  (0.107084 -0.119223 0)
  (0.086701 -0.0919876 0)
  (0.068488 -0.0637234 0)
  (0.0540437 -0.037883 0)
  (0.0441873 -0.0178208 0)
  (0.0386424 -0.005829 0)
  (0.0349866 -0.0028464 0)
  (0.0303967 -0.00485104 0)
  (0.0243072 -0.00773434 0)
  (0.0176164 -0.00946106 0)
  (0.0113413 -0.00987382 0)
  (0.0060867 -0.00924692 0)
  (0.00240505 -0.00791093 0)
  (0.000786087 -0.00657656 0)
  (0.00111118 -0.0064089 0)
  (0.00268983 -0.00706485 0)
  (0.00516269 -0.00756379 0)
  (0.00851306 -0.00688386 0)
  (0.0128737 -0.00390063 0)
  (0.0192844 0.00241209 0)
  (0.0255349 0.0110077 0)
  (0.0318769 0.0211942 0)
  (0.0398608 0.0332269 0)
  (0.0482031 0.0464383 0)
  (0.0710947 0.0632538 0)
  (0.0845867 0.0694241 0)
  (0.117986 0.0466552 0)
  (0.157476 0.0410569 0)
  (-0.0314895 0.0922905 0)
  (0.885001 0.480402 0)
  (-0.0600443 0.159794 0)
  (0.113639 -0.00185296 0)
  (0.182357 -0.0434772 0)
  (0.229565 -0.0741434 0)
  (0.257199 -0.106409 0)
  (0.264683 -0.131391 0)
  (0.253322 -0.143885 0)
  (0.22727 -0.14369 0)
  (0.192096 -0.132789 0)
  (0.15289 -0.113813 0)
  (0.11374 -0.0901261 0)
  (0.0780101 -0.0650902 0)
  (0.0473404 -0.0406935 0)
  (0.0238057 -0.0198434 0)
  (0.007985 -0.0054771 0)
  (-0.00125938 0.00149283 0)
  (-0.00570548 0.00216712 0)
  (-0.00915011 1.68864e-05 0)
  (-0.0131031 -0.00243358 0)
  (-0.0175774 -0.00413775 0)
  (-0.0219063 -0.00509125 0)
  (-0.0256226 -0.00553307 0)
  (-0.0282986 -0.00579172 0)
  (-0.029677 -0.00631693 0)
  (-0.0299424 -0.00749039 0)
  (-0.0295527 -0.00907404 0)
  (-0.0287407 -0.0105287 0)
  (-0.027417 -0.011252 0)
  (-0.0251877 -0.0105741 0)
  (-0.0210344 -0.00771455 0)
  (-0.0119779 -0.00206823 0)
  (-0.00269081 0.00527836 0)
  (0.00883887 0.0128486 0)
  (0.0206945 0.0188091 0)
  (0.0399299 0.0251552 0)
  (0.0570621 0.0177408 0)
  (0.0744484 -0.00776 0)
  (0.13192 0.0417574 0)
  (-0.419629 0.207791 0)
  (1.03357 0.429197 0)
  (0.497197 0.283704 0)
  (0.505188 0.183216 0)
  (0.525197 0.101655 0)
  (0.49724 0.0373283 0)
  (0.442056 -0.0197454 0)
  (0.382447 -0.0609299 0)
  (0.319671 -0.0827446 0)
  (0.254251 -0.0874652 0)
  (0.189893 -0.0799442 0)
  (0.129793 -0.0645373 0)
  (0.0765297 -0.0453436 0)
  (0.0321932 -0.0257454 0)
  (-0.00491354 -0.00764522 0)
  (-0.0271192 0.00251225 0)
  (-0.037667 0.00627861 0)
  (-0.0420051 0.00669232 0)
  (-0.0443085 0.00519198 0)
  (-0.0464097 0.00296225 0)
  (-0.0488377 0.000872612 0)
  (-0.051499 -0.000775536 0)
  (-0.0543662 -0.00204056 0)
  (-0.0571749 -0.00312549 0)
  (-0.0596794 -0.00424881 0)
  (-0.0618553 -0.00557203 0)
  (-0.0639663 -0.00711977 0)
  (-0.0664669 -0.00864397 0)
  (-0.0697747 -0.0097113 0)
  (-0.0742735 -0.00973634 0)
  (-0.0804146 -0.0079796 0)
  (-0.088742 -0.00358922 0)
  (-0.099139 0.00398446 0)
  (-0.110385 0.0143803 0)
  (-0.126479 0.0276683 0)
  (-0.151609 0.0436909 0)
  (-0.188081 0.0610452 0)
  (-0.238802 0.0755571 0)
  (-0.295338 0.0843419 0)
  (-0.361378 0.0878061 0)
  (-0.616177 0.0874796 0)
  (-0.121633 0.0678633 0)
  (0.120643 0.0262234 0)
  (0.187087 -0.0393679 0)
  (0.172125 -0.0578279 0)
  (0.150479 -0.056083 0)
  (0.120486 -0.0479973 0)
  (0.0825212 -0.0367268 0)
  (0.042037 -0.0232164 0)
  (-0.000890521 -0.00752713 0)
  (-0.0366106 0.00459985 0)
  (-0.0585452 0.0108645 0)
  (-0.0700336 0.0130469 0)
  (-0.0748499 0.0126361 0)
  (-0.0767685 0.0115013 0)
  (-0.0774788 0.0102864 0)
  (-0.0780848 0.00901557 0)
  (-0.0791428 0.00785552 0)
  (-0.0807542 0.00702476 0)
  (-0.0827453 0.00654866 0)
  (-0.0848867 0.00622669 0)
  (-0.0870878 0.00579064 0)
  (-0.0894234 0.00504664 0)
  (-0.0920503 0.00389787 0)
  (-0.0950924 0.00263471 0)
  (-0.0987021 0.00163791 0)
  (-0.102929 0.00132599 0)
  (-0.107699 0.00212863 0)
  (-0.112796 0.00443575 0)
  (-0.117614 0.00883557 0)
  (-0.121673 0.0161181 0)
  (-0.12513 0.0273002 0)
  (-0.12824 0.0427001 0)
  (-0.131769 0.0612314 0)
  (-0.136063 0.0791031 0)
  (-0.1377 0.0869577 0)
  (-0.117834 0.065212 0)
  (-0.05963 -0.0261254 0)
  (-0.276537 -0.205058 0)
  (0.00945646 0.218887 0)
  (0.0548212 0.0768855 0)
  (0.0208079 -0.000580225 0)
  (-0.00256874 -0.0176642 0)
  (-0.0292735 -0.0116802 0)
  (-0.0567963 -0.00582667 0)
  (-0.0817183 -0.000283642 0)
  (-0.100316 0.00479496 0)
  (-0.110177 0.00751734 0)
  (-0.113721 0.00713918 0)
  (-0.113751 0.00497353 0)
  (-0.111571 0.00233585 0)
  (-0.108582 -0.000689013 0)
  (-0.105788 -0.00382389 0)
  (-0.103577 -0.00697899 0)
  (-0.102151 -0.0103025 0)
  (-0.10158 -0.0138424 0)
  (-0.101771 -0.0174202 0)
  (-0.102509 -0.0207312 0)
  (-0.103569 -0.0234729 0)
  (-0.104804 -0.0254275 0)
  (-0.106163 -0.0264775 0)
  (-0.10766 -0.0265597 0)
  (-0.109365 -0.0257906 0)
  (-0.111171 -0.024117 0)
  (-0.112902 -0.0215691 0)
  (-0.114252 -0.0179014 0)
  (-0.114788 -0.0126398 0)
  (-0.113973 -0.00563966 0)
  (-0.110756 0.00359096 0)
  (-0.103747 0.0158491 0)
  (-0.0918258 0.0318355 0)
  (-0.0748809 0.0508239 0)
  (-0.0535941 0.0678279 0)
  (-0.0316288 0.0762793 0)
  (0.0115947 0.0567509 0)
  (0.140854 -0.0110927 0)
  (-0.205406 -0.112938 0)
  (-0.0952708 -0.345804 0)
  (-0.438408 -0.123588 0)
  (-0.310576 0.0859154 0)
  (-0.247669 -0.0160461 0)
  (-0.206252 -0.0241692 0)
  (-0.198454 -0.00987416 0)
  (-0.198177 0.00123397 0)
  (-0.196504 0.00920772 0)
  (-0.192378 0.0163424 0)
  (-0.185104 0.0230416 0)
  (-0.175224 0.0289378 0)
  (-0.164193 0.0337033 0)
  (-0.153418 0.0377653 0)
  (-0.143657 0.04167 0)
  (-0.135177 0.0456994 0)
  (-0.127868 0.0501218 0)
  (-0.12148 0.0550394 0)
  (-0.115849 0.0603586 0)
  (-0.110915 0.0657984 0)
  (-0.106666 0.0709063 0)
  (-0.1031 0.0751544 0)
  (-0.100223 0.078096 0)
  (-0.0980417 0.0794679 0)
  (-0.0965601 0.0791823 0)
  (-0.095764 0.0772768 0)
  (-0.0956161 0.0739657 0)
  (-0.0960175 0.0694854 0)
  (-0.0966968 0.0644079 0)
  (-0.0972067 0.05912 0)
  (-0.0967962 0.0539587 0)
  (-0.0941407 0.0498488 0)
  (-0.0872634 0.0475706 0)
  (-0.0737153 0.0479788 0)
  (-0.0521199 0.0520261 0)
  (-0.0245603 0.0600657 0)
  (0.0259753 0.0706958 0)
  (0.0650052 0.069326 0)
  (0.104868 0.0556015 0)
  (0.162467 0.0292752 0)
  (-0.218355 -0.0221993 0)
)
;

boundaryField
{
  floor
  {
    type noSlip;
  }
  ceiling
  {
    type noSlip;
  }
  sWall
  {
    type noSlip;
  }
  nWall
  {
    type noSlip;
  }
  sideWalls
  {
    type empty;
  }
  glass1
  {
    type noSlip;
  }
  glass2
  {
    type noSlip;
  }
  sun
  {
    type noSlip;
  }
  heatsource1
  {
    type noSlip;
  }
  heatsource2
  {
    type noSlip;
  }
  Table_master
  {
    type noSlip;
  }
  Table_slave
  {
    type noSlip;
  }
  inlet
  {
    type fixedValue;
    value uniform (0.3 0 0);
  }
  outlet
  {
    type zeroGradient;
  }
} 	// ************************************************************************* //

