/*--------------------------------*- C++ -*----------------------------------*\
  =========                 |
  \\      /  F ield         | OpenFOAM: The Open Source CFD Toolbox
   \\    /   O peration     | Website:  https://openfoam.org
    \\  /    A nd           | Version:  6
     \\/     M anipulation  |
\*---------------------------------------------------------------------------*/
FoamFile
{
    version     2.0;
    format      ascii;
    class       surfaceScalarField;
    location    "800";
    object      phi;
}
// * * * * * * * * * * * * * * * * * * * * * * * * * * * * * * * * * * * * * //

dimensions      [1 0 -1 0 0 0 0];

internalField   nonuniform List<scalar> 
852
(
-0.00299904
0.00305651
-0.00408798
0.00108897
-0.00489658
0.000808621
-0.00549379
0.00059723
-0.00584061
0.000346842
-0.00590408
6.34979e-05
-0.00565479
-0.000249269
-0.00508909
-0.000565674
-0.00425964
-0.000829426
-0.00326696
-0.000992655
-0.00223204
-0.0010349
-0.00127592
-0.000956097
-0.000518063
-0.000757837
-8.40261e-05
-0.000434017
-8.20166e-05
-0.000838505
0.000841576
-0.000629684
-0.000208812
-5.19198e-05
-0.000577756
0.00047948
-0.000531392
0.000869483
-0.000389997
0.00113437
-0.000264884
0.00128349
-0.000149106
0.00135356
-7.00668e-05
0.0013914
-3.78435e-05
0.0014147
-2.32874e-05
0.00142815
-1.34522e-05
0.00143375
-5.6e-06
0.0014305
3.25785e-06
0.00141106
1.94405e-05
0.00135445
5.66071e-05
0.00122507
0.000129379
0.00101159
0.000213485
0.00074038
0.000271207
0.000744409
-0.0021535
0.00536495
-0.00321145
0.00214694
-0.00404916
0.00164635
-0.00464907
0.00119716
-0.00500199
0.000699793
-0.00508041
0.000141939
-0.00485456
-0.000475099
-0.00433355
-0.00108665
-0.00358719
-0.00157576
-0.00272193
-0.00185789
-0.00184701
-0.0019098
-0.00105512
-0.00174797
-0.000413453
-0.00139948
3.67225e-05
-0.000884174
0.000331612
-0.00037689
0.000310995
2.05821e-05
0.000310959
0.000119058
0.00073162
0.000506971
-0.000596715
0.000816296
-0.000887072
0.00106848
-0.000783564
0.00127309
-0.000594604
0.00141188
-0.000403669
0.00143986
-0.000177086
0.00144606
-7.6263e-05
0.00145337
-4.51426e-05
0.00145945
-2.93636e-05
0.0014634
-1.74034e-05
0.00146558
-7.77722e-06
0.00146549
3.35219e-06
0.00146002
2.49048e-05
0.00142185
9.47781e-05
0.00125545
0.000295779
0.000971927
0.000497008
0.000624314
0.000618817
0.00137913
-0.00151477
0.00711705
-0.0024252
0.0030574
-0.00317798
0.00239916
-0.00370434
0.00172354
-0.00402042
0.0010159
-0.0040863
0.000207844
-0.00384777
-0.0007136
-0.003333
-0.0016014
-0.00264224
-0.00226648
-0.0018884
-0.00261171
-0.00116112
-0.00263704
-0.000519696
-0.00238937
7.74161e-06
-0.0019269
0.000424223
-0.00130064
0.000696984
-0.000649635
0.000710454
7.12797e-06
0.00102143
0.00146471
-0.000722613
0.00168201
-0.000813996
0.00163158
-0.000836635
0.0016201
-0.000772075
0.00165132
-0.000625817
0.00171751
-0.000469858
0.00154058
0.00146447
0.00141949
0.00139028
0.00137303
0.00136541
0.00136892
0.00139398
0.00148891
0.00121026
0.000574428
0.000886364
0.000820899
0.000505495
0.000999683
0.0019004
-0.00105739
0.00848225
-0.0017735
0.00377353
-0.00228623
0.00291191
-0.00264568
0.00208302
-0.00285984
0.00123008
-0.00284706
0.000195086
-0.00253271
-0.00102792
-0.00200458
-0.00212949
-0.00139023
-0.00288079
-0.000786361
-0.00321555
-0.00024612
-0.00317725
0.000209918
-0.00284539
0.000582918
-0.00229988
0.000915634
-0.00163334
0.0012142
-0.000948188
0.00154429
-0.000322948
0.00242794
0.000137794
0.00256057
-0.000123726
0.00225989
-0.000421919
0.00209782
-0.000651911
0.00193521
-0.000674024
0.00179028
-0.000627137
0.00169094
-0.000526476
0.00159553
-0.000374448
0.00175503
-0.000159652
0.00184361
-8.87342e-05
0.00190953
-6.60791e-05
0.00195731
-4.7938e-05
0.00197283
-1.56815e-05
0.00193451
3.81544e-05
0.00181684
0.000117517
0.00158608
0.000230588
0.00118626
0.000399664
0.00102231
0.000738369
0.000714502
0.0011287
0.000270187
0.00144399
0.0021912
-0.000733682
0.00958385
-0.00126606
0.00430593
-0.00139619
0.00304206
-0.0014869
0.00217376
-0.00152585
0.00126905
-0.00131126
-1.94791e-05
-0.000853945
-0.00148521
-0.00033893
-0.00264447
0.000130484
-0.00335017
0.000510064
-0.00359509
0.000792908
-0.00346006
0.000999604
-0.00305205
0.00116413
-0.00246438
0.00131998
-0.00178918
0.00149331
-0.0011215
0.00172507
-0.000554694
0.00204987
-0.000186993
0.00210366
-0.000177507
0.0020126
-0.000330852
0.00181928
-0.00045858
0.0016314
-0.000486142
0.00146264
-0.000458371
0.00132954
-0.00039338
0.00124938
-0.00029429
0.00127323
-0.000183518
0.00131253
-0.000128042
0.00135721
-0.000110763
0.00140518
-9.59213e-05
0.00144608
-5.65957e-05
0.00145921
2.5008e-05
0.00142262
0.000154088
0.00132336
0.000329837
0.00116519
0.000557821
0.00101888
0.000884665
0.000859502
0.00128807
0.000504805
0.00179868
0.000413436
0.00228257
-0.000990346
0.00140356
-0.00144115
0.000450589
-0.00139271
-0.000628038
0.0106307
-0.000975063
0.00465298
-0.000564851
0.00263187
-0.000213908
0.00182284
0.000133738
0.000921425
0.000651638
-0.000537358
0.00117902
-0.00201257
0.00157261
-0.00303801
0.00179538
-0.00357289
0.00187487
-0.00367454
0.00184993
-0.00343508
0.0017581
-0.0029602
0.00164439
-0.00235066
0.00154742
-0.0016922
0.00149425
-0.00106833
0.00150133
-0.000561768
0.0015539
-0.000239555
0.0015277
-0.000151305
0.00140205
-0.000205202
0.00121685
-0.000273383
0.00103462
-0.000303909
0.000876292
-0.000300049
0.000754152
-0.000271248
0.000683734
-0.000223884
0.000676174
-0.000175971
0.00070676
-0.000158643
0.000760043
-0.000164062
0.000830073
-0.000165969
0.000911047
-0.000137588
0.000989012
-5.29742e-05
0.00104417
9.89115e-05
0.00107164
0.000302348
0.00108005
0.00054939
0.00111149
0.000853217
0.00121214
0.0011874
0.00139649
0.00161433
0.00185922
0.00181984
0.00214321
0.00111956
0.00177809
0.000815691
0.000443424
-0.000684399
0.0117796
-0.00053609
0.0045047
0.000603809
0.001492
0.00139415
0.00103252
0.00217435
0.000141246
0.0029491
-0.00131209
0.0034265
-0.00248994
0.00358572
-0.00319719
0.00347828
-0.00346541
0.0031793
-0.00337551
0.00276546
-0.00302121
0.00230548
-0.0025002
0.00186077
-0.00190595
0.00147352
-0.00130494
0.00117079
-0.000765598
0.000967061
-0.000358044
0.000843766
-0.000116264
0.000735971
-4.35142e-05
0.000601885
-7.11207e-05
0.000449666
-0.00012117
0.000302066
-0.000156318
0.000174259
-0.000172254
7.73437e-05
-0.000174348
2.29156e-05
-0.000169472
1.61785e-05
-0.000169252
4.48183e-05
-0.000187302
9.72695e-05
-0.000216534
0.000170609
-0.000239331
0.000268343
-0.000235344
0.000395666
-0.000180319
0.000539433
-4.48765e-05
0.000685772
0.000155988
0.000844989
0.000390154
0.00105144
0.000646744
0.00134895
0.000889882
0.0018058
0.00115746
0.00249001
0.00113563
0.00304727
0.000562283
0.00306809
0.000794863
0.00357256
0.0026931
0.00960603
0.00342478
0.00377304
0.00371118
0.00120562
0.00448619
0.000257522
0.00542477
-0.00079732
0.0059351
-0.00182239
0.00595878
-0.00251359
0.00558139
-0.00281976
0.00492092
-0.00280491
0.00409694
-0.00255149
0.00321185
-0.0021361
0.00234781
-0.00163616
0.00157567
-0.00113381
0.00093089
-0.000660171
0.000441313
-0.000276035
0.000120366
-3.71097e-05
-6.13801e-05
6.54687e-05
-0.000171702
6.67948e-05
-0.000268625
2.57895e-05
-0.000370648
-1.91627e-05
-0.000471888
-5.50943e-05
-0.000561966
-8.21951e-05
-0.000632219
-0.000104115
-0.000675738
-0.000125974
-0.000691514
-0.000153499
-0.000688635
-0.000190205
-0.000674825
-0.000230368
-0.000650786
-0.000263393
-0.000608775
-0.000277379
-0.000529877
-0.00025924
-0.000383022
-0.000191755
-0.000178514
-4.85409e-05
6.3104e-05
0.000148515
0.000351968
0.000357861
0.000686596
0.000555237
0.00109939
0.000744641
0.00151219
0.00072282
0.00164028
0.000434177
0.000913818
0.00152131
0.00474545
0.0101776
0.0139442
0.012392
0.00275784
0.0115601
0.00108946
0.010741
2.18073e-05
0.00963112
-0.000712459
0.00827474
-0.00115715
0.00680029
-0.00134527
0.00530943
-0.00131402
0.00388405
-0.0011261
0.00258079
-0.00083284
0.00143265
-0.000488022
0.000479047
-0.000180227
-0.000235871
5.47181e-05
-0.000673779
0.000161851
-0.000886923
0.000176015
-0.000981839
0.000160368
-0.00104076
0.000125698
-0.00109723
8.22353e-05
-0.00115814
4.17281e-05
-0.00122265
9.39717e-06
-0.00128773
-1.71435e-05
-0.00134888
-4.29862e-05
-0.00140345
-7.14266e-05
-0.00145418
-0.000102794
-0.00151026
-0.000134151
-0.00158119
-0.000159467
-0.0016756
-0.000169004
-0.00180294
-0.000150062
-0.001974
-8.82069e-05
-0.0021954
2.96226e-05
-0.00245805
0.000214088
-0.00278941
0.000479859
-0.00327215
0.000840581
-0.00400259
0.00128566
-0.00503375
0.00177578
-0.00647129
0.00216035
-0.00817645
0.00213931
-0.00758195
0.000926794
-0.0025498
0.00501967
0.00440993
0.00373799
0.00237129
0.00390866
-0.00014869
0.00385132
-0.000655053
0.00331408
-0.000619906
0.00251428
-0.000545489
0.0015966
-0.000396381
0.000646017
-0.000175555
-0.000249994
6.31183e-05
-0.000956793
0.000218743
-0.00139889
0.00026184
-0.00161582
0.000271621
-0.00170666
0.000252669
-0.0017495
0.000218838
-0.00177237
0.000183209
-0.00179478
0.000148089
-0.00182647
0.000113894
-0.00186758
8.28198e-05
-0.00191433
5.61165e-05
-0.00196416
3.26556e-05
-0.00201802
1.08526e-05
-0.00207833
-1.1146e-05
-0.00214775
-3.34065e-05
-0.00222992
-5.19996e-05
-0.0023264
-6.30144e-05
-0.00243618
-5.92534e-05
-0.00255494
-3.132e-05
-0.00267471
3.15393e-05
-0.00278471
0.0001396
-0.00288185
0.000311209
-0.00297304
0.00057102
-0.00306498
0.000932503
-0.00315357
0.00137423
-0.00317919
0.00180138
-0.00305907
0.00204021
-0.00257202
0.00165224
-0.00131472
-0.000330522
-0.00379065
-0.000382268
0.00485307
0.000753209
0.0012359
0.000359166
0.000245388
-0.00025134
-4.46014e-05
-0.000862786
-8.51618e-06
-0.00146267
5.43427e-05
-0.00198082
0.000121713
-0.00234466
0.000188244
-0.0025216
0.000240025
-0.00256435
0.000261465
-0.00254972
0.00024718
-0.00249747
0.000219344
-0.00243471
0.000189882
-0.00238041
0.000164514
-0.00234154
0.000144311
-0.00232052
0.000127032
-0.00231697
0.000110317
-0.00232731
9.31339e-05
-0.00234656
7.53365e-05
-0.002371
5.70602e-05
-0.00239869
3.85141e-05
-0.00243033
2.04684e-05
-0.0024674
3.63671e-06
-0.0025094
-1.00339e-05
-0.00255447
-1.79646e-05
-0.0025969
-1.68557e-05
-0.00262589
-2.34811e-06
-0.0026292
3.48209e-05
-0.00259267
0.000103044
-0.00249189
0.000210408
-0.00229395
0.000373057
-0.00197405
0.000612584
-0.00152265
0.000922811
-0.00091241
0.00119112
3.30993e-05
0.00109468
0.00121818
0.00046714
0.00152411
-0.000636474
-0.00218544
0.000410221
-0.010847
-0.00594941
-0.00469186
-0.00443466
-0.0044723
-0.00447655
-0.00441978
-0.00429705
-0.00410893
-0.00387
-0.00361048
-0.00336599
-0.00314996
-0.00296392
-0.00280368
-0.00266403
-0.00254198
-0.00243692
-0.00234925
-0.00227949
-0.00222804
-0.0021951
-0.00218011
-0.00218182
-0.00219701
-0.00221992
-0.00224151
-0.00224835
-0.00221778
-0.00211873
-0.00191209
-0.00154258
-0.000933353
-1.37419e-05
0.00117426
0.00226572
0.00272942
0.00208922
)
;

boundaryField
{
    floor
    {
        type            calculated;
        value           nonuniform List<scalar> 
29
(
0
0
0
0
0
0
0
0
0
0
0
0
0
0
0
0
0
0
0
0
-4.03273e-06
-1.04079e-05
-1.57812e-05
-2.06231e-05
-1.9953e-06
-3.06255e-06
-9.09493e-06
-1.04735e-05
-8.88578e-06
)
;
    }
    ceiling
    {
        type            calculated;
        value           nonuniform List<scalar> 
43
(
-2.25807e-05
-4.38265e-05
-4.45604e-05
-2.16941e-05
-1.18572e-05
-7.01406e-06
-4.30901e-06
-2.4665e-06
-1.05441e-06
9.03142e-08
1.06216e-06
1.91457e-06
2.65954e-06
3.28516e-06
3.80425e-06
4.2434e-06
4.62353e-06
4.95297e-06
5.22553e-06
5.42653e-06
5.54486e-06
5.58096e-06
5.54519e-06
5.45056e-06
5.30855e-06
5.12765e-06
4.92281e-06
4.70209e-06
4.46861e-06
4.22229e-06
3.97739e-06
3.7429e-06
3.52501e-06
3.33169e-06
3.17819e-06
3.10384e-06
3.19805e-06
3.41498e-06
3.70515e-06
4.79402e-06
9.30561e-06
6.41955e-06
-6.08089e-05
)
;
    }
    sWall
    {
        type            calculated;
        value           uniform -0.000229653;
    }
    nWall
    {
        type            calculated;
        value           nonuniform List<scalar> 6(-4.86641e-05 -5.80511e-05 -6.10604e-05 -7.39017e-05 -8.11191e-05 -0.000101038);
    }
    sideWalls
    {
        type            empty;
        value           nonuniform 0();
    }
    glass1
    {
        type            calculated;
        value           nonuniform List<scalar> 9(-5.74518e-05 -0.000154914 -0.000237302 -0.000307777 -0.000367896 -0.000418744 -0.000464524 -0.000519503 -0.000580825);
    }
    glass2
    {
        type            calculated;
        value           nonuniform List<scalar> 2(-0.000259087 -0.000286716);
    }
    sun
    {
        type            calculated;
        value           uniform 0;
    }
    heatsource1
    {
        type            calculated;
        value           nonuniform List<scalar> 3(2.04311e-07 2.04207e-07 2.04228e-07);
    }
    heatsource2
    {
        type            calculated;
        value           nonuniform List<scalar> 4(5.12324e-08 5.13033e-08 0 0);
    }
    Table_master
    {
        type            calculated;
        value           nonuniform List<scalar> 9(-1.53223e-07 -1.53335e-07 -1.53374e-07 -1.53399e-07 -1.53418e-07 -1.5343e-07 -1.53437e-07 -1.53433e-07 -1.53405e-07);
    }
    Table_slave
    {
        type            calculated;
        value           nonuniform List<scalar> 9(1.53069e-07 1.53093e-07 1.53069e-07 1.53049e-07 1.53042e-07 1.53043e-07 1.53059e-07 1.53104e-07 1.5319e-07);
    }
    inlet
    {
        type            calculated;
        value           uniform -0.00667169;
    }
    outlet
    {
        type            calculated;
        value           nonuniform List<scalar> 2(-0.000158027 0.011301);
    }
}


// ************************************************************************* //
