/*--------------------------------*- C++ -*----------------------------------*\
  =========                 |
  \\      /  F ield         | OpenFOAM: The Open Source CFD Toolbox
   \\    /   O peration     | Website:  https://openfoam.org
    \\  /    A nd           | Version:  6
     \\/     M anipulation  |
\*---------------------------------------------------------------------------*/
FoamFile
{
    version     2.0;
    format      ascii;
    class       surfaceScalarField;
    location    "700";
    object      phi;
}
// * * * * * * * * * * * * * * * * * * * * * * * * * * * * * * * * * * * * * //

dimensions      [1 0 -1 0 0 0 0];

internalField   nonuniform List<scalar> 
852
(
-0.00309397
0.00315134
-0.00428867
0.00119474
-0.00509951
0.000810888
-0.00559826
0.000498794
-0.00573498
0.000136768
-0.00546615
-0.000268778
-0.00477787
-0.000688233
-0.00373911
-0.00103872
-0.0024941
-0.00124496
-0.00120683
-0.00128723
-4.03741e-05
-0.00116643
0.000725074
-0.000765423
0.00107416
-0.000349067
0.000925744
0.000148444
0.000927932
-0.000937333
0.000940235
-0.000840418
-9.69406e-05
-0.000252311
-0.000588129
0.000386653
-0.000638986
0.000898722
-0.000512092
0.00126305
-0.000364352
0.00147093
-0.000207908
0.00156957
-9.86692e-05
0.00162512
-5.55829e-05
0.00166187
-3.67848e-05
0.00168597
-2.41262e-05
0.00170008
-1.4147e-05
0.00170287
-2.82526e-06
0.00168508
1.77492e-05
0.00162193
6.31125e-05
0.00147051
0.00015138
0.0012089
0.000261558
0.000833883
0.000374973
0.000837378
-0.00222981
0.0055363
-0.0033627
0.00232768
-0.00420209
0.00165033
-0.00471827
0.00101503
-0.00487583
0.000294385
-0.0046352
-0.000509358
-0.00400515
-0.00131823
-0.00308409
-0.00195971
-0.00203208
-0.00229692
-0.00100258
-0.00231669
-0.000127711
-0.00204126
0.000557891
-0.001451
0.000991775
-0.000782931
0.00122716
-8.69249e-05
0.00160762
0.000547493
0.000865444
0.000742146
0.000865409
-8.76404e-05
0.00103671
0.000313521
-0.000498125
0.000732807
-0.00100743
0.00106561
-0.000971812
0.0013404
-0.000786902
0.00153505
-0.000559019
0.00157922
-0.000252114
0.00158918
-0.000108654
0.0015998
-6.62271e-05
0.00160854
-4.55592e-05
0.00161438
-3.00027e-05
0.00161805
-1.78554e-05
0.00161898
-3.78855e-06
0.00161307
2.36144e-05
0.00157048
0.000105668
0.00138569
0.000336125
0.00107395
0.000573249
0.000679822
0.000769054
0.00152675
-0.00157198
0.00734663
-0.00253489
0.00329065
-0.00329736
0.00241285
-0.00376204
0.00147976
-0.00389896
0.000431366
-0.00364012
-0.000768143
-0.00302011
-0.00193817
-0.0021822
-0.00279754
-0.00129743
-0.00318163
-0.000483242
-0.00313082
0.00018083
-0.0027053
0.00072108
-0.00199123
0.00111767
-0.00117951
0.00139646
-0.000365696
0.00155311
0.000390859
0.00126382
0.00103146
0.00212924
0.00137142
-0.000322551
0.00168066
-0.000807385
0.00168466
-0.00101145
0.0017187
-0.00100586
0.00178472
-0.000852941
0.00189575
-0.000670077
0.00164376
0.00153523
0.00146913
0.00142369
0.00139381
0.00137607
0.0013724
0.00139612
0.0015019
0.00120616
0.000631819
0.000882863
0.000896499
0.000512226
0.00113964
0.00205384
-0.00109411
0.00875076
-0.00183848
0.00403508
-0.00237219
0.00294661
-0.00269341
0.00180104
-0.00271939
0.000457397
-0.00235442
-0.00113305
-0.00172004
-0.00257247
-0.000993569
-0.00352393
-0.00031583
-0.00385929
0.000253707
-0.0037003
0.000700581
-0.00315214
0.0010671
-0.00235774
0.00135788
-0.00147029
0.00159567
-0.000603481
0.00181812
0.000168424
0.00210048
0.000749113
0.0031529
0.00107683
0.00279042
0.000372508
0.0026399
-0.000172018
0.00244755
-0.000615029
0.00223739
-0.000801286
0.00205195
-0.000820433
0.00191419
-0.000715204
0.00175875
-0.000514669
0.0019579
-0.000199333
0.0020301
-7.23943e-05
0.00205177
-2.18651e-05
0.00203704
1.45365e-05
0.00198105
5.57848e-05
0.00187354
0.000107302
0.00169657
0.000176767
0.00141984
0.000276521
0.000985755
0.00043387
0.000856517
0.000761004
0.00060336
0.0011496
0.000258873
0.00148407
0.00233246
-0.000752342
0.00987473
-0.00129026
0.00457306
-0.00144132
0.00309772
-0.00152065
0.00188042
-0.00126285
0.00019965
-0.000695298
-0.00170053
-7.58832e-05
-0.00319179
0.000449864
-0.00404957
0.000843166
-0.0042525
0.00111438
-0.00397146
0.00130229
-0.00334002
0.0014397
-0.00249515
0.00155021
-0.0015808
0.00167001
-0.000723287
0.00185023
-1.17911e-05
0.00212188
0.000477468
0.00252114
0.00067758
0.00253806
0.000355596
0.00245865
-9.2601e-05
0.00225111
-0.000407492
0.00200778
-0.000557963
0.00177011
-0.000582788
0.00156589
-0.000511015
0.00141573
-0.00036455
0.00139447
-0.000178122
0.00138164
-5.96192e-05
0.00136032
-5.93335e-07
0.00133533
3.94617e-05
0.00130503
8.60229e-05
0.00125766
0.00015461
0.00117809
0.000256276
0.00105269
0.000401849
0.000889003
0.000597493
0.000762417
0.000887529
0.000655221
0.00125674
0.000384006
0.00175523
0.000402912
0.00231349
-0.000988529
0.00139116
-0.00142947
0.000440652
-0.00138259
-0.000625262
0.0109241
-0.000943857
0.0048917
-0.000507469
0.00266138
-2.39625e-05
0.00139696
0.000662551
-0.000486834
0.00134184
-0.00237975
0.00180805
-0.00365791
0.00203382
-0.00427522
0.00208624
-0.00430482
0.00200863
-0.0038938
0.00186076
-0.00319214
0.00169468
-0.00232907
0.00155109
-0.00143723
0.00146861
-0.000640829
0.00147923
-2.24145e-05
0.00159212
0.000364569
0.00178476
0.000484948
0.00185068
0.000289668
0.00175368
4.38767e-06
0.00156007
-0.0002139
0.00133271
-0.000330628
0.00110617
-0.000356292
0.0009061
-0.000310993
0.000757251
-0.000215758
0.000682109
-0.000103041
0.000652544
-3.0119e-05
0.000649247
2.63578e-06
0.000665909
2.27306e-05
0.000695378
5.64833e-05
0.000728619
0.000121296
0.000757815
0.000227006
0.000780271
0.000379319
0.000797968
0.000579723
0.000851245
0.000834184
0.000990978
0.00111695
0.00122263
0.00152352
0.00175285
0.00178322
0.00207595
0.00106799
0.00173747
0.00077905
0.000411419
-0.000610156
0.0120063
-0.000377615
0.00465921
0.000913925
0.00136988
0.00206298
0.000247939
0.00305538
-0.00147918
0.00364254
-0.00296683
0.0038246
-0.00383985
0.00366461
-0.00411512
0.00326883
-0.00390896
0.00274017
-0.00336509
0.00217663
-0.00262859
0.00164844
-0.00180092
0.00121029
-0.000999129
0.000900875
-0.000331462
0.000754094
0.000124334
0.000765819
0.000352827
0.000857283
0.000393471
0.000883756
0.000263177
0.000806186
8.1928e-05
0.000656095
-6.3849e-05
0.000468759
-0.000143344
0.000275522
-0.000163116
0.00010318
-0.000138719
-2.3591e-05
-8.906e-05
-8.81755e-05
-3.8533e-05
-0.00010142
-1.69525e-05
-7.70436e-05
-2.18185e-05
-1.97562e-05
-3.46356e-05
6.86517e-05
-3.20049e-05
0.000180794
9.07054e-06
0.000310783
9.69328e-05
0.0004643
0.000225719
0.000644755
0.000399187
0.000875038
0.000603825
0.00119397
0.000797949
0.0016676
0.00104982
0.0023894
0.00106136
0.00296872
0.000488602
0.00302347
0.000724226
0.00349451
0.00291578
0.00961927
0.00378185
0.00379319
0.00440607
0.000745705
0.00555941
-0.000905368
0.00626408
-0.00218378
0.00632471
-0.00302736
0.00586549
-0.00338051
0.00504947
-0.003299
0.0040334
-0.00289283
0.00295295
-0.00228463
0.00193835
-0.00161403
0.00105785
-0.000920491
0.000374965
-0.000316324
-4.29613e-05
8.63905e-05
-0.000203842
0.000285173
-0.00020206
0.000351012
-0.000148317
0.000339694
-0.000138974
0.000253791
-0.000199976
0.000142875
-0.000315308
5.14179e-05
-0.000458773
4.6248e-08
-0.000605737
-1.62328e-05
-0.000733061
-1.14817e-05
-0.000823086
8.75923e-07
-0.000867416
5.70531e-06
-0.000875583
-8.87823e-06
-0.000857762
-3.97313e-05
-0.000816231
-7.62596e-05
-0.000743855
-0.000104475
-0.000625999
-0.000108878
-0.000457737
-7.14217e-05
-0.000250499
1.83891e-05
3.26082e-06
0.000145339
0.000308533
0.000298469
0.000641747
0.000464655
0.00104361
0.000647889
0.00145432
0.000650571
0.00155591
0.000386936
0.000812541
0.00146752
0.0045566
0.0102029
0.0139908
0.0124825
0.00225406
0.0115529
2.42725e-05
0.0103212
-0.000951906
0.00878191
-0.00148797
0.00704666
-0.00164516
0.00526962
-0.00152191
0.00356659
-0.00118983
0.00200126
-0.000719354
0.000665702
-0.00027857
-0.000337478
8.25533e-05
-0.000916143
0.000262245
-0.00114068
0.000310862
-0.00118517
0.0003296
-0.00116226
0.000328042
-0.00112642
0.000303791
-0.00112484
0.000252147
-0.00117179
0.00018974
-0.0012564
0.000135942
-0.00135723
0.000100779
-0.00145651
8.2944e-05
-0.00154309
7.4996e-05
-0.00161043
6.81183e-05
-0.00166055
5.5714e-05
-0.00170509
3.5561e-05
-0.00175819
1.32671e-05
-0.00183301
-1.54459e-06
-0.00193993
2.33739e-06
-0.00208653
3.76213e-05
-0.00227643
0.000118385
-0.00251715
0.000259011
-0.0028481
0.000476201
-0.00333274
0.00078302
-0.00404522
0.00117705
-0.00503115
0.00163373
-0.00639844
0.00201778
-0.00805292
0.00204133
-0.00746596
0.000880472
-0.00263788
0.00498125
0.0040247
0.00352409
0.00148174
0.00342703
-0.000854807
0.0029369
-0.000997922
0.00200851
-0.000716917
0.000887376
-0.000400941
-0.000256293
-4.63628e-05
-0.00119781
0.000222015
-0.00178341
0.000306912
-0.00204342
0.000342457
-0.00211848
0.000337215
-0.0021209
0.000313197
-0.00208489
0.000293506
-0.00203713
0.0002802
-0.00199873
0.000265298
-0.00198814
0.000241456
-0.00200974
0.00021124
-0.00205529
0.000181388
-0.00211149
0.000156863
-0.00216717
0.000138515
-0.0022165
0.000124207
-0.00225916
0.000110666
-0.00229909
9.5529e-05
-0.00234261
7.89674e-05
-0.00239423
6.47668e-05
-0.00245539
5.95065e-05
-0.00252519
7.20319e-05
-0.00260105
0.000113368
-0.00267971
0.000196943
-0.00275984
0.000339045
-0.00284231
0.000558575
-0.00292709
0.000867707
-0.0030001
0.00124996
-0.00299186
0.0016254
-0.00280215
0.00182797
-0.0021607
0.00139979
-0.000902147
-0.000378183
-0.00347253
-0.000206469
0.00429971
0.00045347
0.000821759
-0.000505031
0.000103461
-0.00150803
4.86554e-06
-0.00230573
8.05877e-05
-0.00287701
0.000170165
-0.00317059
0.000247062
-0.00323949
0.000290787
-0.00321832
0.00028562
-0.00313588
0.000259907
-0.00302844
0.000229665
-0.00292048
0.000205137
-0.00281835
0.000191265
-0.00272447
0.000186212
-0.00264353
0.000184247
-0.0025819
0.000179704
-0.00254169
0.00017091
-0.0025194
0.000158981
-0.00250849
0.000145819
-0.00250289
0.000132797
-0.00249925
0.000120438
-0.00249723
0.000108513
-0.00249833
9.65032e-05
-0.00250388
8.43963e-05
-0.00251276
7.35241e-05
-0.00252022
6.6853e-05
-0.00251767
6.93653e-05
-0.00249276
8.83467e-05
-0.00242924
0.000133313
-0.00230666
0.000216361
-0.00210141
0.000353213
-0.00179018
0.000556385
-0.00135135
0.000811026
-0.000733395
0.00100734
0.000173749
0.000920732
0.00125356
0.000319871
0.00154469
-0.000669417
-0.0018539
0.0008408
-0.0106503
-0.00630973
-0.00547347
-0.00536544
-0.00536022
-0.00528164
-0.00511528
-0.00487354
-0.00458937
-0.00431151
-0.00406028
-0.00384005
-0.00364498
-0.00346434
-0.00328928
-0.0031167
-0.00294918
-0.00279095
-0.00264506
-0.00251267
-0.0023935
-0.0022868
-0.00219204
-0.00210923
-0.00203839
-0.00197821
-0.00192442
-0.00186771
-0.00179152
-0.00166976
-0.0014643
-0.00112129
-0.000574444
0.000227676
0.00122657
0.0021388
0.00244964
0.00177049
)
;

boundaryField
{
    floor
    {
        type            calculated;
        value           nonuniform List<scalar> 
29
(
0
0
0
0
0
0
0
0
0
0
0
0
0
0
0
0
0
0
0
0
-3.5453e-06
-9.60031e-06
-1.49233e-05
-1.9797e-05
-2.1645e-06
-2.9324e-06
-8.86005e-06
-1.2191e-05
-1.00151e-05
)
;
    }
    ceiling
    {
        type            calculated;
        value           nonuniform List<scalar> 
43
(
-1.64009e-05
-3.91344e-05
-4.09902e-05
-1.46851e-05
-4.75187e-06
-5.14558e-07
1.85976e-06
3.66624e-06
5.1811e-06
6.48931e-06
7.62268e-06
8.55416e-06
9.30835e-06
9.93844e-06
1.04941e-05
1.1017e-05
1.1534e-05
1.20479e-05
1.25351e-05
1.29579e-05
1.32832e-05
1.3496e-05
1.36011e-05
1.36146e-05
1.35529e-05
1.34235e-05
1.32205e-05
1.2929e-05
1.25338e-05
1.20315e-05
1.14366e-05
1.07785e-05
1.00939e-05
9.4237e-06
8.79685e-06
8.34816e-06
8.39383e-06
8.91865e-06
9.62467e-06
1.13667e-05
7.93524e-06
5.29314e-06
-6.84619e-05
)
;
    }
    sWall
    {
        type            calculated;
        value           uniform -0.000222869;
    }
    nWall
    {
        type            calculated;
        value           nonuniform List<scalar> 6(-4.71746e-05 -5.66161e-05 -5.96938e-05 -6.76152e-05 -7.40593e-05 -9.49005e-05);
    }
    sideWalls
    {
        type            empty;
        value           nonuniform 0();
    }
    glass1
    {
        type            calculated;
        value           nonuniform List<scalar> 9(-5.73224e-05 -0.000155096 -0.000238292 -0.000309972 -0.000371564 -0.000424028 -0.000472002 -0.000528718 -0.000591498);
    }
    glass2
    {
        type            calculated;
        value           nonuniform List<scalar> 2(-0.000249628 -0.000271563);
    }
    sun
    {
        type            calculated;
        value           uniform 0;
    }
    heatsource1
    {
        type            calculated;
        value           nonuniform List<scalar> 3(2.0406e-07 2.0393e-07 2.03965e-07);
    }
    heatsource2
    {
        type            calculated;
        value           nonuniform List<scalar> 4(5.11592e-08 5.12876e-08 0 0);
    }
    Table_master
    {
        type            calculated;
        value           nonuniform List<scalar> 9(-1.53135e-07 -1.53281e-07 -1.53326e-07 -1.53354e-07 -1.53371e-07 -1.53381e-07 -1.53384e-07 -1.53374e-07 -1.53333e-07);
    }
    Table_slave
    {
        type            calculated;
        value           nonuniform List<scalar> 9(1.52916e-07 1.52947e-07 1.52929e-07 1.52918e-07 1.52913e-07 1.52925e-07 1.52955e-07 1.53011e-07 1.53103e-07);
    }
    inlet
    {
        type            calculated;
        value           uniform -0.00675174;
    }
    outlet
    {
        type            calculated;
        value           nonuniform List<scalar> 2(-0.000601716 0.0115301);
    }
}


// ************************************************************************* //
