// -*- C++ -*-
// File generated by PyFoam - sorry for the ugliness

FoamFile
{
 version 2.0;
 format ascii;
 class volVectorField;
 location "300";
 object U;
}

dimensions [ 0 1 -1 0 0 0 0 ];

internalField nonuniform List<vector> 459
(
  (0.0330335 0.0690931 0)
  (-0.133983 0.0163976 0)
  (-0.140672 0.00610093 0)
  (-0.148313 0.000912162 0)
  (-0.147088 -0.00386554 0)
  (-0.138814 -0.00783292 0)
  (-0.126482 -0.00980512 0)
  (-0.113031 -0.0100207 0)
  (-0.100278 -0.00968137 0)
  (-0.0886505 -0.00952479 0)
  (-0.0777556 -0.00994508 0)
  (-0.0664609 -0.0112343 0)
  (-0.0527778 -0.0137859 0)
  (-0.0342493 -0.018231 0)
  (-0.0105448 -0.0250384 0)
  (0.0153914 -0.00438388 0)
  (0.00350685 0.000946885 0)
  (-0.00212716 0.00206221 0)
  (-0.000159975 0.000226134 0)
  (0.00167658 -0.000965409 0)
  (0.00572045 0.000552228 0)
  (0.0118361 -0.00560223 0)
  (0.0158654 -0.0054882 0)
  (0.0197819 -0.00400255 0)
  (0.0211629 -0.00277628 0)
  (0.021724 -0.00199838 0)
  (0.0227287 -0.00180883 0)
  (0.0244473 -0.00215059 0)
  (0.0264919 -0.00219508 0)
  (0.0277123 -0.00132567 0)
  (0.0239878 0.00288345 0)
  (0.016634 0.0068244 0)
  (0.00348349 0.010611 0)
  (-0.0205132 -0.0023089 0)
  (0.157816 0.139768 0)
  (-0.136949 0.0458029 0)
  (-0.123898 0.0187994 0)
  (-0.133143 0.00593271 0)
  (-0.134401 -0.0072046 0)
  (-0.127332 -0.0172418 0)
  (-0.116283 -0.0205953 0)
  (-0.104698 -0.0197168 0)
  (-0.0947513 -0.017629 0)
  (-0.086617 -0.0157965 0)
  (-0.0798529 -0.0150645 0)
  (-0.0735893 -0.0160324 0)
  (-0.0666249 -0.019317 0)
  (-0.0578599 -0.0255707 0)
  (-0.0475171 -0.0344748 0)
  (-0.0387408 -0.0396591 0)
  (0.0115337 0.0104817 0)
  (-0.0511156 0.000996953 0)
  (0.00725949 0.003111 0)
  (-0.000428318 0.00248041 0)
  (-0.00388167 0.00086481 0)
  (-0.0101918 -0.00125497 0)
  (-0.0162241 -0.00497131 0)
  (-0.0104795 -0.0168126 0)
  (-0.0079976 -0.00998696 0)
  (0.00242849 -0.00444445 0)
  (0.00528418 -0.00206007 0)
  (0.00603324 -0.000961207 0)
  (0.00558374 -0.000644671 0)
  (0.00377103 -0.000256282 0)
  (-0.000507567 0.00227119 0)
  (-0.00400995 0.00696826 0)
  (-0.00332919 0.0119832 0)
  (-0.00296219 0.0126042 0)
  (-0.0182153 0.0127487 0)
  (0.0738265 -0.00100181 0)
  (0.343962 0.215026 0)
  (-0.109311 0.0607918 0)
  (-0.0620811 0.00537644 0)
  (-0.0804783 -0.00592989 0)
  (-0.0983871 -0.021447 0)
  (-0.0996999 -0.0297021 0)
  (-0.0946489 -0.0318053 0)
  (-0.0868555 -0.0291598 0)
  (-0.0806307 -0.0251012 0)
  (-0.0763464 -0.0214821 0)
  (-0.0738673 -0.0194968 0)
  (-0.072701 -0.0199545 0)
  (-0.0721016 -0.0235069 0)
  (-0.0711119 -0.0305393 0)
  (-0.0691564 -0.0403625 0)
  (-0.0699536 -0.0504494 0)
  (-0.0871069 -0.0594086 0)
  (-0.0856891 0.0171737 0)
  (-0.0213761 0.00447679 0)
  (-0.0248104 0.00265913 0)
  (-0.023112 0.00200187 0)
  (-0.0200357 0.0015004 0)
  (-0.0185265 -0.000481448 0)
  (-0.0172971 -0.0143187 0)
  (-0.039419 -0.00917771 0)
  (-0.0455849 -0.00593021 0)
  (-0.0485322 -0.00461291 0)
  (-0.0500128 -0.00402742 0)
  (-0.0511047 -0.00366782 0)
  (-0.0519405 -0.00331895 0)
  (-0.0508826 -0.00308392 0)
  (-0.0453206 -0.00366915 0)
  (-0.0353508 -0.00272738 0)
  (-0.0221794 0.00100555 0)
  (-0.0309026 0.00213367 0)
  (0.128598 0.000757114 0)
  (0.521674 0.185753 0)
  (0.258462 0.152618 0)
  (0.193225 0.121601 0)
  (0.13462 0.0932642 0)
  (0.0659307 0.0577668 0)
  (-0.0277133 -0.0046997 0)
  (-0.0574203 -0.0293638 0)
  (-0.0613129 -0.0321055 0)
  (-0.0610808 -0.027823 0)
  (-0.0611824 -0.0224896 0)
  (-0.0627956 -0.018694 0)
  (-0.0661236 -0.0176456 0)
  (-0.0709861 -0.0199671 0)
  (-0.0771586 -0.0257642 0)
  (-0.0855317 -0.0344601 0)
  (-0.100385 -0.0447391 0)
  (-0.122812 -0.0519828 0)
  (-0.125776 -0.0419035 0)
  (-0.105016 0.00671338 0)
  (-0.0907803 0.00268737 0)
  (-0.091562 0.00226586 0)
  (-0.0936639 0.00148407 0)
  (-0.09685 4.84412e-05 0)
  (-0.101104 -0.00209927 0)
  (-0.104171 -0.00211079 0)
  (-0.103395 -0.00272193 0)
  (-0.101793 -0.00367697 0)
  (-0.0992091 -0.0045729 0)
  (-0.0957438 -0.00555436 0)
  (-0.0913199 -0.0067399 0)
  (-0.0854676 -0.00826974 0)
  (-0.0772555 -0.0104059 0)
  (-0.0664036 -0.0135536 0)
  (-0.0566229 -0.0177507 0)
  (-0.0499226 -0.0209859 0)
  (-0.0463056 -0.0217401 0)
  (0.13932 -0.00183835 0)
  (0.243135 -0.153439 0)
  (0.183287 0.0441131 0)
  (0.18259 0.116615 0)
  (0.159374 0.134031 0)
  (0.103773 0.113248 0)
  (0.0377413 0.0657078 0)
  (-0.0143261 0.00352603 0)
  (-0.034029 -0.0246931 0)
  (-0.0395879 -0.025294 0)
  (-0.0437866 -0.0196083 0)
  (-0.0484485 -0.014368 0)
  (-0.0542192 -0.0116687 0)
  (-0.0611388 -0.0121423 0)
  (-0.0692105 -0.0156658 0)
  (-0.0792054 -0.0213933 0)
  (-0.0930458 -0.0270694 0)
  (-0.10911 -0.0270807 0)
  (-0.116569 -0.0154985 0)
  (-0.114482 -0.00455795 0)
  (-0.110565 -0.000158525 0)
  (-0.108153 0.00223488 0)
  (-0.106351 0.00297509 0)
  (-0.105184 0.00255503 0)
  (-0.104428 0.00140956 0)
  (-0.103312 0.000410454 0)
  (-0.101669 -0.00118601 0)
  (-0.0998811 -0.00250931 0)
  (-0.0978413 -0.00365435 0)
  (-0.0955288 -0.00478993 0)
  (-0.0929758 -0.00608894 0)
  (-0.0901642 -0.0077724 0)
  (-0.0870807 -0.0102543 0)
  (-0.0843029 -0.0142209 0)
  (-0.0836711 -0.019785 0)
  (-0.0876112 -0.0239143 0)
  (-0.0944228 -0.0248139 0)
  (-0.0968395 -0.0169773 0)
  (-0.110995 -0.0170965 0)
  (-0.0901955 -0.0288245 0)
  (0.116775 -0.0711488 0)
  (0.166196 -0.221827 0)
  (0.11748 -0.00274751 0)
  (0.151281 0.13496 0)
  (0.141543 0.183086 0)
  (0.0937278 0.164599 0)
  (0.0431253 0.109081 0)
  (0.0109875 0.0436263 0)
  (-0.00867103 -0.00848531 0)
  (-0.0193231 -0.0182499 0)
  (-0.0269199 -0.0137915 0)
  (-0.0336281 -0.00816031 0)
  (-0.0404207 -0.00477244 0)
  (-0.0476134 -0.00439717 0)
  (-0.0555635 -0.00692787 0)
  (-0.0649409 -0.0116133 0)
  (-0.0762927 -0.016378 0)
  (-0.0879788 -0.0171761 0)
  (-0.0956263 -0.0115448 0)
  (-0.0979926 -0.0058351 0)
  (-0.0974939 -0.00242608 0)
  (-0.0960663 -0.000377552 0)
  (-0.0941833 0.000377127 0)
  (-0.0922199 5.58309e-05 0)
  (-0.0903845 -0.00094845 0)
  (-0.088657 -0.00215208 0)
  (-0.0869419 -0.00359611 0)
  (-0.0852338 -0.00500173 0)
  (-0.0834341 -0.00631861 0)
  (-0.081489 -0.00759539 0)
  (-0.0793992 -0.00890394 0)
  (-0.077193 -0.0103428 0)
  (-0.0749833 -0.0121039 0)
  (-0.0731786 -0.0144616 0)
  (-0.0724845 -0.0172815 0)
  (-0.0729351 -0.0192714 0)
  (-0.0722766 -0.0194477 0)
  (-0.0687686 -0.0171533 0)
  (-0.0735643 -0.0191304 0)
  (-0.0990699 -0.0264271 0)
  (0.188777 -0.0927976 0)
  (0.107084 -0.282578 0)
  (0.0610187 -0.103191 0)
  (0.132463 0.122657 0)
  (0.113899 0.225046 0)
  (0.0590423 0.205872 0)
  (0.0232735 0.136572 0)
  (0.0128566 0.0622017 0)
  (0.00910436 0.0113133 0)
  (-0.00210801 -0.00791686 0)
  (-0.0120129 -0.00622084 0)
  (-0.0190552 -0.00151202 0)
  (-0.024486 0.00154705 0)
  (-0.0294332 0.00225473 0)
  (-0.0349305 0.000636995 0)
  (-0.0417511 -0.00285664 0)
  (-0.0496531 -0.00665342 0)
  (-0.05766 -0.00836648 0)
  (-0.0636256 -0.00697082 0)
  (-0.0666281 -0.004724 0)
  (-0.0674286 -0.00299839 0)
  (-0.0669859 -0.0019167 0)
  (-0.0658324 -0.00159376 0)
  (-0.0643865 -0.00196688 0)
  (-0.0629031 -0.00285432 0)
  (-0.0614821 -0.00404735 0)
  (-0.0601487 -0.00543884 0)
  (-0.05888 -0.00688242 0)
  (-0.0575921 -0.0083303 0)
  (-0.0562073 -0.00979876 0)
  (-0.0546668 -0.0113343 0)
  (-0.0529253 -0.0130129 0)
  (-0.0509785 -0.0149599 0)
  (-0.0489237 -0.0172974 0)
  (-0.0468747 -0.019883 0)
  (-0.0443805 -0.0221139 0)
  (-0.0392693 -0.0235895 0)
  (-0.0289395 -0.0256064 0)
  (-0.0248431 -0.0321162 0)
  (-0.10806 -0.0431817 0)
  (0.294418 -0.103507 0)
  (0.0196966 -0.250069 0)
  (-0.0756441 -0.151926 0)
  (0.0938117 0.0651375 0)
  (0.0750526 0.279067 0)
  (-0.00904144 0.232745 0)
  (-0.0129946 0.141049 0)
  (0.00117387 0.0615098 0)
  (0.00911918 0.0171806 0)
  (0.00630541 0.00245739 0)
  (-0.000186535 0.00174788 0)
  (-0.00378683 0.00380545 0)
  (-0.00504455 0.00498039 0)
  (-0.00538154 0.005234 0)
  (-0.00609999 0.00445151 0)
  (-0.00814951 0.00244397 0)
  (-0.0121802 -0.000349662 0)
  (-0.0169002 -0.0024696 0)
  (-0.0207522 -0.00310823 0)
  (-0.02317 -0.00291547 0)
  (-0.0242643 -0.00258645 0)
  (-0.0244484 -0.00240293 0)
  (-0.0240348 -0.00254929 0)
  (-0.0233133 -0.00306976 0)
  (-0.0225014 -0.00391313 0)
  (-0.0217419 -0.0049858 0)
  (-0.0211117 -0.00622024 0)
  (-0.0206177 -0.00755219 0)
  (-0.0202042 -0.00895971 0)
  (-0.0197962 -0.0104555 0)
  (-0.0193142 -0.0120784 0)
  (-0.0186746 -0.0138991 0)
  (-0.017795 -0.0160351 0)
  (-0.0165967 -0.0186281 0)
  (-0.0149212 -0.0217331 0)
  (-0.0121502 -0.0252533 0)
  (-0.00618571 -0.0293475 0)
  (0.00721753 -0.0359001 0)
  (0.0226317 -0.0477331 0)
  (-0.0630184 -0.0628844 0)
  (0.483661 -0.0768484 0)
  (-0.14138 -0.112377 0)
  (-0.345614 -0.0806953 0)
  (-0.522235 0.00875788 0)
  (0.00761511 0.301695 0)
  (-0.105364 0.218173 0)
  (-0.0563606 0.121263 0)
  (-0.0158998 0.0525189 0)
  (0.00548309 0.0184426 0)
  (0.0132357 0.0110267 0)
  (0.0176806 0.0104359 0)
  (0.0223342 0.0103585 0)
  (0.0272263 0.00973327 0)
  (0.0317961 0.00895161 0)
  (0.0351562 0.0082571 0)
  (0.036939 0.00733101 0)
  (0.0370464 0.00595956 0)
  (0.0357686 0.00445982 0)
  (0.0337539 0.00323529 0)
  (0.0319527 0.00239687 0)
  (0.0307455 0.00184023 0)
  (0.0299817 0.00140613 0)
  (0.0295863 0.0009326 0)
  (0.0294111 0.000336733 0)
  (0.0293127 -0.00040506 0)
  (0.0291439 -0.00126184 0)
  (0.0287987 -0.00222696 0)
  (0.0282445 -0.00330392 0)
  (0.0275061 -0.00450374 0)
  (0.0266332 -0.00585348 0)
  (0.0256856 -0.00740406 0)
  (0.0247296 -0.00924253 0)
  (0.0238368 -0.0115119 0)
  (0.0230874 -0.0144271 0)
  (0.0226 -0.0182798 0)
  (0.0226846 -0.0234918 0)
  (0.0244991 -0.0309302 0)
  (0.0300327 -0.0426529 0)
  (0.0355606 -0.0612725 0)
  (-0.0473926 -0.0777459 0)
  (0.514448 -0.0354546 0)
  (-2.1568 0.0163591 0)
  (-0.0280235 0.166882 0)
  (-0.158444 0.1288 0)
  (-0.0649416 0.0588876 0)
  (0.0170645 0.00302553 0)
  (0.0477188 -0.00662673 0)
  (0.062035 -0.00299153 0)
  (0.0712616 0.00449208 0)
  (0.0790441 0.0123188 0)
  (0.0855831 0.0187135 0)
  (0.0906535 0.0230049 0)
  (0.0940836 0.0257481 0)
  (0.0963282 0.0261238 0)
  (0.0974217 0.024882 0)
  (0.0974312 0.0229809 0)
  (0.0966522 0.0209249 0)
  (0.0954461 0.0189577 0)
  (0.0940046 0.0171632 0)
  (0.0925599 0.0155453 0)
  (0.091271 0.0138314 0)
  (0.0900221 0.0121337 0)
  (0.0887382 0.0104563 0)
  (0.0873247 0.00882037 0)
  (0.0857012 0.00714517 0)
  (0.083838 0.0053296 0)
  (0.081733 0.00329703 0)
  (0.0793894 0.000968027 0)
  (0.0768108 -0.00176033 0)
  (0.0739972 -0.00503147 0)
  (0.0709362 -0.00904766 0)
  (0.0675874 -0.0140856 0)
  (0.0638545 -0.0205054 0)
  (0.0595606 -0.0287682 0)
  (0.0545739 -0.039523 0)
  (0.0480497 -0.0539094 0)
  (0.0330614 -0.0732078 0)
  (-0.0475173 -0.086868 0)
  (0.212132 -0.026819 0)
  (-0.989202 0.0904594 0)
  (0.412742 -0.0424257 0)
  (0.166054 -0.0581635 0)
  (0.147855 -0.0981335 0)
  (0.166864 -0.119585 0)
  (0.174999 -0.130257 0)
  (0.174848 -0.139303 0)
  (0.172701 -0.148447 0)
  (0.170381 -0.156369 0)
  (0.16774 -0.16138 0)
  (0.164698 -0.162555 0)
  (0.162072 -0.158258 0)
  (0.160003 -0.151197 0)
  (0.158497 -0.143752 0)
  (0.157374 -0.137181 0)
  (0.156412 -0.131841 0)
  (0.15545 -0.127689 0)
  (0.154374 -0.124567 0)
  (0.153127 -0.122286 0)
  (0.151547 -0.120491 0)
  (0.14958 -0.119133 0)
  (0.147217 -0.118158 0)
  (0.144532 -0.117189 0)
  (0.141556 -0.116223 0)
  (0.138294 -0.115391 0)
  (0.13471 -0.114747 0)
  (0.130739 -0.114302 0)
  (0.126296 -0.114049 0)
  (0.121277 -0.113967 0)
  (0.115542 -0.114029 0)
  (0.108891 -0.114201 0)
  (0.101033 -0.114427 0)
  (0.091556 -0.114619 0)
  (0.0800688 -0.114636 0)
  (0.0661091 -0.114379 0)
  (0.0476276 -0.115353 0)
  (-0.0235312 -0.125117 0)
  (0.236614 -0.208106 0)
  (0.00704858 0.19922 0)
  (0.378117 0.120937 0)
  (0.184982 0.21087 0)
  (0.431106 0.188445 0)
  (0.421697 0.218592 0)
  (0.375771 0.252618 0)
  (0.346945 0.281244 0)
  (0.325959 0.312378 0)
  (0.30614 0.346286 0)
  (0.288617 0.379215 0)
  (0.275091 0.406856 0)
  (0.265557 0.425811 0)
  (0.259177 0.434688 0)
  (0.254804 0.431839 0)
  (0.252023 0.422002 0)
  (0.250167 0.40973 0)
  (0.24857 0.397792 0)
  (0.246825 0.387371 0)
  (0.244775 0.378752 0)
  (0.242379 0.37183 0)
  (0.239618 0.366353 0)
  (0.236481 0.361916 0)
  (0.23299 0.35836 0)
  (0.229132 0.355574 0)
  (0.22484 0.352981 0)
  (0.220122 0.350499 0)
  (0.21495 0.348293 0)
  (0.209236 0.346442 0)
  (0.202868 0.344958 0)
  (0.195708 0.343812 0)
  (0.18758 0.342947 0)
  (0.178254 0.342293 0)
  (0.167424 0.341758 0)
  (0.154697 0.341225 0)
  (0.13956 0.34054 0)
  (0.121455 0.339465 0)
  (0.0998704 0.337405 0)
  (0.0734302 0.33459 0)
  (-0.0412773 0.372107 0)
  (0.323795 0.567614 0)
)
;

boundaryField
{
  floor
  {
    type noSlip;
  }
  ceiling
  {
    type noSlip;
  }
  sWall
  {
    type noSlip;
  }
  nWall
  {
    type noSlip;
  }
  sideWalls
  {
    type empty;
  }
  glass1
  {
    type noSlip;
  }
  glass2
  {
    type noSlip;
  }
  sun
  {
    type noSlip;
  }
  heatsource1
  {
    type noSlip;
  }
  heatsource2
  {
    type noSlip;
  }
  Table_master
  {
    type noSlip;
  }
  Table_slave
  {
    type noSlip;
  }
  inlet
  {
    type fixedValue;
    value uniform (0.0382683 -0.092388 0);
  }
  outlet
  {
    type zeroGradient;
  }
} 	// ************************************************************************* //

