/*--------------------------------*- C++ -*----------------------------------*\
  =========                 |
  \\      /  F ield         | OpenFOAM: The Open Source CFD Toolbox
   \\    /   O peration     | Website:  https://openfoam.org
    \\  /    A nd           | Version:  6
     \\/     M anipulation  |
\*---------------------------------------------------------------------------*/
FoamFile
{
    version     2.0;
    format      ascii;
    class       volScalarField;
    location    "1400";
    object      epsilon;
}
// * * * * * * * * * * * * * * * * * * * * * * * * * * * * * * * * * * * * * //

dimensions      [0 2 -3 0 0 0 0];

internalField   nonuniform List<scalar> 
459
(
0.000427765
0.000554472
0.000586632
0.000674767
0.000763967
0.000855039
0.000952466
0.00105203
0.00112586
0.00115502
0.00112329
0.00102486
0.000867947
0.000676943
0.000491156
3.54765e-05
6.03485e-05
8.71744e-05
8.99343e-05
8.25746e-05
7.25986e-05
6.00349e-05
4.87921e-05
3.98672e-05
3.29374e-05
2.75284e-05
2.32608e-05
1.98605e-05
1.71166e-05
1.48319e-05
1.2839e-05
1.09832e-05
9.92218e-06
7.61179e-06
0.00108039
0.00157862
0.000520354
0.000503575
0.000526144
0.000565761
0.000626814
0.000707873
0.000785331
0.000833486
0.000832009
0.000775297
0.000671919
0.00054428
0.000439012
0.000518515
0.000125224
4.01677e-05
9.48827e-05
0.00010603
9.94989e-05
8.68805e-05
7.42171e-05
6.80652e-05
5.50384e-05
4.34152e-05
3.4249e-05
2.7219e-05
2.18517e-05
1.77469e-05
1.46226e-05
1.23286e-05
1.09189e-05
1.03154e-05
2.62142e-05
1.78767e-05
0.00196743
0.00388012
0.000638851
0.000476654
0.000497424
0.000558065
0.000650649
0.000768398
0.000876748
0.000941225
0.000944306
0.000887332
0.000781994
0.000654073
0.000535547
0.000477362
0.000568533
0.000266143
0.000209635
0.000167345
0.000134516
0.000108896
9.339e-05
0.000172541
0.000119361
8.52409e-05
6.28871e-05
4.78251e-05
3.73847e-05
2.99662e-05
2.46133e-05
2.07671e-05
1.58383e-05
1.32832e-05
4.9408e-05
2.84843e-05
0.00318475
0.00807283
0.0010071
0.000478536
0.000482176
0.000567291
0.000707052
0.000882971
0.00102057
0.00108678
0.00107801
0.00100552
0.00088004
0.000733425
0.000604381
0.000520747
0.000502398
0.000910692
0.000527457
0.000324958
0.000221858
0.000162629
0.000125596
0.000108307
0.000250454
0.000191881
0.000156273
0.000132358
0.000113959
9.83444e-05
8.47075e-05
7.17384e-05
5.83726e-05
3.47188e-05
2.24613e-05
8.18748e-05
3.9375e-05
0.00486036
0.0144405
0.00199099
0.000558993
0.000484605
0.000597796
0.000849882
0.00111339
0.00125959
0.00130198
0.00126039
0.00115298
0.000994254
0.000810457
0.000633316
0.000488836
0.000390757
0.000349952
0.000288042
0.000231649
0.000186112
0.000150225
0.000122321
0.000102929
9.93416e-05
9.28569e-05
8.65877e-05
8.03492e-05
7.35984e-05
6.61954e-05
5.87813e-05
5.1722e-05
4.52224e-05
3.63012e-05
2.78505e-05
5.88478e-05
4.54093e-05
7.41716e-05
0.000129999
0.000184173
0.00719412
0.0215086
0.00449601
0.001044
0.000681819
0.00079764
0.00130448
0.00156977
0.00164672
0.00161936
0.00152258
0.00136427
0.00115193
0.000910514
0.000676626
0.000484998
0.000354183
0.000281358
0.000237453
0.000202029
0.000169378
0.000140745
0.000117521
0.000101021
9.27265e-05
8.93402e-05
8.75908e-05
8.54206e-05
8.15997e-05
7.5183e-05
6.6018e-05
5.63741e-05
4.75127e-05
3.95771e-05
3.43413e-05
4.4859e-05
4.69271e-05
5.73225e-05
0.000240237
0.000210704
0.00997339
0.0257618
0.00938722
0.00345435
0.00221943
0.00220248
0.00240814
0.00238202
0.00225081
0.00208226
0.00188353
0.00163949
0.00134612
0.00102852
0.000728956
0.00049149
0.000337088
0.000254417
0.000210544
0.000178905
0.0001508
0.000127118
0.000109491
9.88355e-05
9.52562e-05
9.65723e-05
9.98076e-05
0.000103174
0.000105435
0.000104892
9.82803e-05
8.71038e-05
7.59242e-05
6.64148e-05
6.25885e-05
6.98546e-05
8.89736e-05
0.000142129
0.000326365
0.000317984
0.0106558
0.0287067
0.0156095
0.00995238
0.00707584
0.00547349
0.00433951
0.00357731
0.00305972
0.00267494
0.00232951
0.00196044
0.00154908
0.00112864
0.000747436
0.000463535
0.000295735
0.000213811
0.000174145
0.000147338
0.000125841
0.000110115
0.000100719
9.75525e-05
9.99147e-05
0.000106401
0.000115703
0.000127387
0.000141532
0.000158048
0.00017591
0.000187544
0.000197436
0.000218701
0.00026292
0.000395361
0.000730519
0.00137776
0.00400725
0.00118721
0.0099042
0.0168619
0.0135294
0.0102201
0.00780057
0.00615225
0.00503938
0.00427987
0.00373258
0.00326819
0.00278758
0.00224456
0.00165156
0.00109503
0.00061889
0.000332875
0.00021334
0.000160265
0.000132253
0.000113459
0.000100416
9.27745e-05
9.03062e-05
9.2533e-05
9.88496e-05
0.000108757
0.000122234
0.000139976
0.00016337
0.000194455
0.000235958
0.000291848
0.000368628
0.00048379
0.000653317
0.000883188
0.00114586
0.00137478
0.00155156
0.000971008
0.00493362
0.00663586
0.00668871
0.00620051
0.00552866
0.00488621
0.00424413
0.0035377
0.0027557
0.00191939
0.0010535
0.000560712
0.000301219
0.000181173
0.000128688
0.000102778
8.7957e-05
7.88025e-05
7.34734e-05
7.14835e-05
7.25025e-05
7.61624e-05
8.2254e-05
9.08362e-05
0.000102336
0.000117611
0.000138028
0.000165654
0.00020373
0.0002572
0.000331417
0.000433499
0.000566799
0.000718732
0.000848674
0.000902613
0.00084717
0.00053621
0.00339396
0.00675283
0.00666995
0.0053689
0.00453366
0.00385318
0.0029979
0.0020943
0.00133097
0.000779353
0.000430672
0.000243792
0.000149934
0.000105784
8.48124e-05
7.39685e-05
6.80688e-05
6.51587e-05
6.44568e-05
6.55795e-05
6.82692e-05
7.25161e-05
7.85019e-05
8.65131e-05
9.70467e-05
0.000110919
0.000129401
0.000154445
0.000188786
0.000236037
0.000301111
0.000388916
0.000499973
0.000625852
0.000719199
0.00081431
0.000763465
0.000563716
0.00270614
0.00268523
0.00283722
0.00315941
0.00235131
0.00182103
0.00160047
0.00139404
0.00112648
0.000846149
0.00058902
0.000392034
0.00025983
0.000179446
0.000133141
0.000105846
8.8749e-05
7.77059e-05
7.0892e-05
6.74008e-05
6.66162e-05
6.80779e-05
7.152e-05
7.69539e-05
8.4249e-05
9.35876e-05
0.000105371
0.000120203
0.000139011
0.000163328
0.000193932
0.000232351
0.000280878
0.000342414
0.000419761
0.00052759
0.000564671
0.000522311
0.000429227
0.000342992
)
;

boundaryField
{
    floor
    {
        Cmu             0.09;
        kappa           0.41;
        E               9.8;
        type            epsilonWallFunction;
        value           nonuniform List<scalar> 
29
(
0.000491156
3.54765e-05
6.03485e-05
8.71744e-05
8.99343e-05
8.25746e-05
7.25986e-05
6.00349e-05
4.87921e-05
3.98672e-05
3.29374e-05
2.75284e-05
2.32608e-05
1.98605e-05
1.71166e-05
1.48319e-05
1.2839e-05
1.09832e-05
9.92218e-06
7.61179e-06
7.61179e-06
1.78767e-05
2.84843e-05
3.9375e-05
0.000491156
3.54765e-05
4.01677e-05
0.000266143
0.000910692
)
;
    }
    ceiling
    {
        Cmu             0.09;
        kappa           0.41;
        E               9.8;
        type            epsilonWallFunction;
        value           nonuniform List<scalar> 
43
(
0.00270614
0.00268523
0.00283722
0.00315941
0.00235131
0.00182103
0.00160047
0.00139404
0.00112648
0.000846149
0.00058902
0.000392034
0.00025983
0.000179446
0.000133141
0.000105846
8.8749e-05
7.77059e-05
7.0892e-05
6.74008e-05
6.66162e-05
6.80779e-05
7.152e-05
7.69539e-05
8.4249e-05
9.35876e-05
0.000105371
0.000120203
0.000139011
0.000163328
0.000193932
0.000232351
0.000280878
0.000342414
0.000419761
0.00052759
0.000564671
0.000522311
0.000429227
0.000342992
0.0099042
0.0168619
0.00339396
)
;
    }
    sWall
    {
        Cmu             0.09;
        kappa           0.41;
        E               9.8;
        type            epsilonWallFunction;
        value           uniform 0.00270614;
    }
    nWall
    {
        Cmu             0.09;
        kappa           0.41;
        E               9.8;
        type            epsilonWallFunction;
        value           nonuniform List<scalar> 6(0.000184173 0.000210704 0.000317984 0.00053621 0.000563716 0.000342992);
    }
    sideWalls
    {
        type            empty;
    }
    glass1
    {
        Cmu             0.09;
        kappa           0.41;
        E               9.8;
        type            epsilonWallFunction;
        value           nonuniform List<scalar> 9(0.000427765 0.00108039 0.00196743 0.00318475 0.00486036 0.00719412 0.00997339 0.0106558 0.0099042);
    }
    glass2
    {
        Cmu             0.09;
        kappa           0.41;
        E               9.8;
        type            epsilonWallFunction;
        value           nonuniform List<scalar> 2(0.00118721 0.000971008);
    }
    sun
    {
        Cmu             0.09;
        kappa           0.41;
        E               9.8;
        type            epsilonWallFunction;
        value           nonuniform List<scalar> 
14
(
0.000427765
0.000554472
0.000586632
0.000674767
0.000763967
0.000855039
0.000952466
0.00105203
0.00112586
0.00115502
0.00112329
0.00102486
0.000867947
0.000676943
)
;
    }
    heatsource1
    {
        Cmu             0.09;
        kappa           0.41;
        E               9.8;
        type            epsilonWallFunction;
        value           nonuniform List<scalar> 3(7.41716e-05 0.000129999 0.000184173);
    }
    heatsource2
    {
        Cmu             0.09;
        kappa           0.41;
        E               9.8;
        type            epsilonWallFunction;
        value           nonuniform List<scalar> 4(0.000518515 0.000125224 0.000125224 0.000568533);
    }
    Table_master
    {
        Cmu             0.09;
        kappa           0.41;
        E               9.8;
        type            epsilonWallFunction;
        value           nonuniform List<scalar> 9(0.000172541 0.000119361 8.52409e-05 6.28871e-05 4.78251e-05 3.73847e-05 2.99662e-05 2.46133e-05 2.07671e-05);
    }
    Table_slave
    {
        Cmu             0.09;
        kappa           0.41;
        E               9.8;
        type            epsilonWallFunction;
        value           nonuniform List<scalar> 9(0.000250454 0.000191881 0.000156273 0.000132358 0.000113959 9.83444e-05 8.47075e-05 7.17384e-05 5.83726e-05);
    }
    inlet
    {
        type            turbulentMixingLengthDissipationRateInlet;
        mixingLength    0.01;
        phi             phi;
        k               k;
        value           uniform 0.000101881;
    }
    outlet
    {
        type            zeroGradient;
    }
}


// ************************************************************************* //
