// -*- C++ -*-
// File generated by PyFoam - sorry for the ugliness

FoamFile
{
 version 2.0;
 format ascii;
 class volScalarField;
 location "200";
 object T;
}

dimensions [ 0 0 0 1 0 0 0 ];

internalField nonuniform List<scalar> 459
(
  304.775
  304.483
  304.464
  304.458
  304.45
  304.443
  304.435
  304.426
  304.417
  304.405
  304.391
  304.373
  304.351
  304.326
  304.297
  303.684
  303.663
  303.663
  303.672
  303.684
  303.699
  303.72
  303.749
  303.786
  303.83
  303.876
  303.925
  303.978
  304.037
  304.105
  304.171
  304.189
  304.113
  303.958
  304.992
  304.575
  304.533
  304.529
  304.529
  304.526
  304.522
  304.516
  304.508
  304.495
  304.476
  304.449
  304.411
  304.361
  304.299
  304.235
  304.218
  303.701
  303.693
  303.696
  303.712
  303.733
  303.744
  303.761
  303.803
  303.853
  303.911
  303.978
  304.057
  304.147
  304.25
  304.362
  304.461
  304.465
  304.375
  304.195
  305.192
  304.688
  304.617
  304.613
  304.621
  304.628
  304.632
  304.632
  304.628
  304.619
  304.599
  304.566
  304.516
  304.446
  304.355
  304.255
  304.175
  303.76
  303.814
  303.855
  303.885
  303.919
  303.918
  303.813
  303.866
  303.932
  304.011
  304.109
  304.228
  304.369
  304.522
  304.679
  304.817
  304.866
  304.904
  304.919
  305.378
  304.825
  304.73
  304.715
  304.729
  304.747
  304.763
  304.775
  304.781
  304.78
  304.766
  304.735
  304.681
  304.6
  304.49
  304.353
  304.202
  304.081
  304.028
  304.178
  304.296
  304.377
  304.432
  304.483
  304.531
  304.569
  304.611
  304.66
  304.716
  304.781
  304.852
  304.928
  305.005
  305.071
  305.142
  305.212
  305.275
  305.554
  304.988
  304.894
  304.861
  304.866
  304.887
  304.914
  304.939
  304.959
  304.972
  304.973
  304.955
  304.915
  304.85
  304.76
  304.652
  304.541
  304.449
  304.399
  304.451
  304.521
  304.578
  304.625
  304.664
  304.699
  304.735
  304.774
  304.82
  304.872
  304.932
  304.998
  305.069
  305.143
  305.215
  305.288
  305.355
  305.407
  305.427
  305.346
  305.197
  305.718
  305.186
  305.136
  305.103
  305.077
  305.077
  305.098
  305.128
  305.159
  305.184
  305.201
  305.202
  305.182
  305.138
  305.068
  304.979
  304.882
  304.797
  304.742
  304.728
  304.749
  304.78
  304.809
  304.835
  304.86
  304.886
  304.915
  304.95
  304.99
  305.038
  305.093
  305.155
  305.224
  305.297
  305.371
  305.442
  305.497
  305.517
  305.458
  305.177
  305.876
  305.436
  305.503
  305.491
  305.436
  305.389
  305.374
  305.383
  305.403
  305.426
  305.45
  305.466
  305.466
  305.444
  305.399
  305.331
  305.249
  305.167
  305.101
  305.059
  305.042
  305.039
  305.044
  305.051
  305.061
  305.072
  305.086
  305.104
  305.127
  305.156
  305.193
  305.238
  305.292
  305.353
  305.423
  305.497
  305.568
  305.621
  305.639
  305.606
  306.086
  305.814
  306.024
  306.059
  305.968
  305.869
  305.807
  305.773
  305.759
  305.758
  305.76
  305.77
  305.778
  305.773
  305.75
  305.704
  305.64
  305.569
  305.5
  305.443
  305.4
  305.37
  305.349
  305.334
  305.323
  305.315
  305.31
  305.308
  305.31
  305.318
  305.332
  305.354
  305.384
  305.422
  305.469
  305.524
  305.59
  305.659
  305.713
  305.77
  306.367
  306.303
  306.937
  306.925
  306.684
  306.475
  306.343
  306.267
  306.226
  306.206
  306.197
  306.187
  306.175
  306.16
  306.14
  306.108
  306.061
  306.003
  305.94
  305.877
  305.82
  305.77
  305.727
  305.689
  305.655
  305.625
  305.599
  305.575
  305.556
  305.541
  305.531
  305.528
  305.532
  305.543
  305.562
  305.588
  305.617
  305.651
  305.693
  305.762
  311.063
  308.061
  307.238
  306.942
  306.819
  306.757
  306.727
  306.712
  306.703
  306.693
  306.679
  306.656
  306.624
  306.582
  306.532
  306.474
  306.41
  306.344
  306.279
  306.216
  306.155
  306.098
  306.044
  305.993
  305.945
  305.901
  305.859
  305.822
  305.788
  305.761
  305.739
  305.725
  305.717
  305.717
  305.721
  305.73
  305.744
  305.758
  310.354
  308.7
  308.152
  307.815
  307.621
  307.51
  307.439
  307.386
  307.342
  307.298
  307.253
  307.204
  307.15
  307.092
  307.028
  306.96
  306.887
  306.811
  306.734
  306.658
  306.582
  306.509
  306.439
  306.371
  306.306
  306.243
  306.183
  306.126
  306.072
  306.023
  305.978
  305.939
  305.906
  305.878
  305.856
  305.835
  305.816
  305.796
  309.726
  309.737
  310.163
  309.758
  309.357
  309.039
  308.813
  308.637
  308.487
  308.353
  308.229
  308.112
  308
  307.893
  307.79
  307.691
  307.595
  307.502
  307.411
  307.322
  307.235
  307.149
  307.066
  306.983
  306.9
  306.818
  306.738
  306.658
  306.579
  306.501
  306.425
  306.351
  306.279
  306.21
  306.143
  306.078
  306.016
  305.953
  305.886
  305.823
)
;

boundaryField
{
  floor
  {
    type wallHeatTransfer;
    Tinf uniform 305.2;
    alphaWall uniform 0.24;
    value nonuniform List<scalar> 29
(
  304.423
  304.115
  304.091
  304.099
  304.103
  304.108
  304.115
  304.122
  304.132
  304.147
  304.164
  304.185
  304.209
  304.237
  304.272
  304.316
  304.362
  304.378
  304.328
  304.23
  304.23
  304.384
  304.959
  305.266
  304.423
  304.115
  304.067
  304.036
  304.223
)
;
  }
  ceiling
  {
    type wallHeatTransfer;
    Tinf uniform 303.2;
    alphaWall uniform 0.24;
    value nonuniform List<scalar> 43
(
  309.159
  309.26
  309.946
  309.536
  309.117
  308.779
  308.529
  308.332
  308.164
  308.016
  307.882
  307.76
  307.647
  307.543
  307.445
  307.353
  307.265
  307.181
  307.097
  307.016
  306.935
  306.855
  306.777
  306.698
  306.621
  306.543
  306.467
  306.391
  306.317
  306.243
  306.171
  306.1
  306.032
  305.965
  305.9
  305.836
  305.774
  305.71
  305.647
  305.565
  306.225
  306.18
  310.196
)
;
  }
  sWall
  {
    type wallHeatTransfer;
    Tinf uniform 315.2;
    alphaWall uniform 0.36;
    value uniform 310.412;
  }
  nWall
  {
    type wallHeatTransfer;
    Tinf uniform 307.2;
    alphaWall uniform 0.36;
    value nonuniform List<scalar> 6
(
  305.545
  305.524
  305.82
  305.922
  305.952
  306.017
)
;
  }
  sideWalls
  {
    type empty;
  }
  glass1
  {
    type wallHeatTransfer;
    Tinf uniform 315.2;
    alphaWall uniform 4.3;
    value nonuniform List<scalar> 9
(
  312.731
  311.738
  311.111
  310.676
  310.379
  310.175
  310.055
  310.173
  310.424
)
;
  }
  glass2
  {
    type wallHeatTransfer;
    Tinf uniform 307.2;
    alphaWall uniform 4.3;
    value nonuniform List<scalar> 2
(
  306.649
  306.631
)
;
  }
  sun
  {
    type wallHeatTransfer;
    Tinf uniform 305.2;
    alphaWall uniform 0.24;
    value nonuniform List<scalar> 14
(
  304.839
  304.589
  304.584
  304.577
  304.568
  304.558
  304.549
  304.539
  304.528
  304.516
  304.502
  304.485
  304.466
  304.444
)
;
  }
  heatsource1
  {
    type fixedGradient;
    gradient uniform 0;
  }
  heatsource2
  {
    type fixedGradient;
    gradient uniform 0;
  }
  Table_master
  {
    type zeroGradient;
  }
  Table_slave
  {
    type zeroGradient;
  }
  inlet
  {
    type fixedValue;
    value uniform 293.15;
  }
  outlet
  {
    type zeroGradient;
  }
} 	// ************************************************************************* //

