/*--------------------------------*- C++ -*----------------------------------*\
  =========                 |
  \\      /  F ield         | OpenFOAM: The Open Source CFD Toolbox
   \\    /   O peration     | Website:  https://openfoam.org
    \\  /    A nd           | Version:  6
     \\/     M anipulation  |
\*---------------------------------------------------------------------------*/
FoamFile
{
    version     2.0;
    format      ascii;
    class       volScalarField;
    location    "1500";
    object      alphat;
}
// * * * * * * * * * * * * * * * * * * * * * * * * * * * * * * * * * * * * * //

dimensions      [1 -1 -1 0 0 0 0];

internalField   nonuniform List<scalar> 
459
(
0.00123591
0.00134839
0.00137392
0.00143943
0.00150013
0.00155737
0.00161424
0.00166857
0.00170672
0.00172139
0.00170558
0.00165434
0.00156535
0.00144125
0.00129578
0.000535115
0.000637374
0.000719659
0.00072657
0.000705122
0.000674665
0.000632508
0.00058962
0.000550675
0.000516249
0.000485898
0.000459052
0.000435216
0.000413954
0.000394489
0.000375858
0.000356793
0.000345816
0.000317556
0.00168197
0.00398498
0.00376909
0.00437066
0.00496063
0.00555271
0.00606807
0.00646991
0.00684399
0.00715571
0.00736229
0.00741968
0.00727495
0.00680245
0.00547201
0.00131876
0.00081779
0.0005578
0.00117143
0.00163819
0.0019902
0.00219762
0.00220617
0.00174202
0.00149409
0.00131804
0.00118368
0.00107753
0.000991561
0.000919241
0.000852212
0.000787582
0.000730221
0.000679639
0.000814911
0.000425193
0.00205286
0.00540568
0.00459415
0.00571704
0.00623341
0.00661079
0.00690756
0.0071705
0.0074758
0.00780626
0.00812312
0.00836775
0.00848728
0.00839388
0.00782954
0.00600868
0.00135775
0.0010458
0.00152005
0.00197578
0.00241821
0.00274654
0.0027141
0.000901717
0.000796892
0.000711799
0.000642759
0.000586351
0.000539846
0.000501212
0.000469128
0.000442976
0.000476508
0.000546887
0.000923886
0.000498876
0.0024092
0.00691854
0.00453591
0.0059664
0.00635324
0.00644928
0.00653311
0.00668658
0.00694513
0.00728972
0.00768433
0.00804572
0.00831701
0.00842244
0.0083035
0.00765486
0.00513848
0.00158764
0.0018947
0.00240611
0.00296597
0.00346407
0.00380638
0.00362827
0.00102153
0.000932936
0.000869482
0.00082123
0.000780319
0.000742343
0.000705863
0.00066749
0.00062295
0.00058526
0.000591335
0.00108228
0.000557055
0.00277245
0.00889343
0.00490631
0.00569033
0.00621888
0.0061647
0.00612049
0.00624086
0.00648417
0.00683625
0.00727198
0.00766924
0.00794701
0.00805434
0.00799225
0.00773146
0.00707078
0.0059808
0.00559733
0.00552001
0.00555583
0.00560341
0.00559747
0.00541357
0.00460566
0.00420629
0.00397345
0.00379458
0.00360711
0.00334022
0.0029711
0.00251632
0.00200848
0.00150462
0.00111576
0.00109879
0.000762277
0.000692108
0.000833097
0.000935721
0.00315824
0.0110593
0.00675502
0.00550857
0.00601916
0.00618633
0.00603188
0.00614394
0.00634574
0.00667193
0.00709531
0.00750905
0.0077849
0.00784638
0.00771083
0.00747487
0.00724501
0.00708725
0.00707566
0.00708627
0.0070384
0.0069226
0.00674376
0.00648893
0.00611014
0.00576832
0.00546374
0.00517058
0.00487244
0.0045547
0.00415898
0.00366791
0.00308144
0.00243321
0.00185214
0.00135807
0.0010597
0.000908435
0.00128619
0.000978769
0.00352027
0.0126206
0.00969072
0.00700546
0.00653775
0.00657449
0.00641516
0.0063268
0.0064252
0.00673488
0.00718051
0.00761426
0.00787632
0.00787907
0.00766301
0.007403
0.00732829
0.00750864
0.00773565
0.00779965
0.0076715
0.00740806
0.00705834
0.00665211
0.00621685
0.0058094
0.00543616
0.00508927
0.00476878
0.00448167
0.00423038
0.00392821
0.0034992
0.00296148
0.00243846
0.00194218
0.00159678
0.0014701
0.00145486
0.00110883
0.00359639
0.0114403
0.00993023
0.00880153
0.00811159
0.00734771
0.00670742
0.00644037
0.00656431
0.00698085
0.00751791
0.00797309
0.00817
0.00805071
0.00772471
0.00746672
0.00754396
0.00785607
0.00798016
0.00781559
0.00744611
0.00695209
0.00639899
0.00584873
0.00535438
0.0049387
0.00459141
0.00430275
0.00407347
0.00390942
0.00381641
0.0037782
0.00364374
0.00332592
0.00304106
0.00289601
0.00298191
0.00329409
0.00409827
0.00168608
0.00350634
0.00419092
0.00473731
0.00491195
0.00492978
0.00504729
0.00538241
0.00596558
0.00674437
0.00756499
0.00823381
0.00858355
0.00850354
0.0080713
0.00760514
0.00750011
0.0075503
0.00753055
0.00729217
0.00684214
0.0062504
0.00560497
0.00498957
0.00446592
0.00405347
0.00373577
0.00348641
0.00328641
0.00312322
0.00298598
0.00286438
0.00275081
0.00266318
0.00259932
0.00257387
0.00258156
0.0025641
0.00246874
0.00230479
0.00156657
0.00216781
0.00383705
0.00529144
0.00650491
0.00748852
0.00837026
0.0090559
0.00939774
0.00934724
0.00892669
0.00819454
0.00736625
0.00685232
0.00665208
0.00644503
0.00608273
0.00556878
0.00497246
0.00437589
0.00384296
0.0034136
0.00309582
0.00286849
0.00270623
0.00259033
0.00250932
0.00245638
0.00242764
0.00242317
0.00244711
0.00248377
0.00252995
0.00258072
0.00261696
0.00260647
0.00253059
0.0022387
0.00125119
0.00252009
0.0053643
0.00732705
0.00824118
0.008852
0.00927268
0.0092336
0.00864562
0.00774855
0.00678812
0.0059801
0.00539406
0.00500281
0.00465877
0.00425263
0.00379741
0.00334565
0.00294933
0.00263917
0.00241809
0.00226953
0.0021704
0.00210649
0.00207336
0.00206707
0.00208342
0.00211876
0.00216864
0.00223805
0.00232393
0.00242347
0.00253051
0.00262986
0.0026977
0.00271744
0.00268844
0.00193507
0.00127953
0.00215254
0.00226721
0.00235171
0.00241887
0.00218766
0.00200691
0.0019204
0.00183285
0.00170632
0.00155082
0.00137375
0.00119839
0.00104342
0.000920652
0.000831868
0.000769185
0.000723927
0.000691039
0.000668464
0.000655327
0.000650652
0.000653209
0.000661881
0.000675937
0.000695162
0.000718926
0.000747075
0.000779937
0.000818139
0.000862833
0.000913499
0.000970168
0.00103333
0.00110337
0.0011797
0.00126136
0.00127802
0.00114206
0.00108359
0.00128178
)
;

boundaryField
{
    floor
    {
        type            compressible::alphatWallFunction;
        Prt             0.85;
        value           nonuniform List<scalar> 
29
(
0.000183307
7.45957e-05
8.99502e-05
0.000102086
0.000103097
9.9955e-05
9.54726e-05
8.92272e-05
8.28209e-05
7.69538e-05
7.17245e-05
6.7078e-05
6.29376e-05
5.92357e-05
5.59116e-05
5.28494e-05
4.99001e-05
4.68623e-05
4.51038e-05
4.05427e-05
4.05421e-05
5.76717e-05
6.90697e-05
7.79192e-05
0.000183305
7.45948e-05
7.80306e-05
0.000148728
0.000222735
)
;
    }
    ceiling
    {
        type            compressible::alphatWallFunction;
        Prt             0.85;
        value           nonuniform List<scalar> 
43
(
0.000296805
0.00031158
0.000322418
0.00033112
0.000301506
0.000278105
0.000266827
0.000255353
0.000238653
0.000217937
0.000194059
0.000170064
0.000148524
0.000131196
0.000118495
0.000109432
0.000102833
9.80066e-05
9.46775e-05
9.2734e-05
9.20413e-05
9.24204e-05
9.37046e-05
9.57816e-05
9.86141e-05
0.000102102
0.000106216
0.000110994
0.00011652
0.000122945
0.000130181
0.000138219
0.000147115
0.000156905
0.000167492
0.000178733
0.000181016
0.000162282
0.000154152
0.00018154
0.000467348
0.000550614
0.000343767
)
;
    }
    sWall
    {
        type            compressible::alphatWallFunction;
        Prt             0.85;
        value           uniform 0.000295585;
    }
    nWall
    {
        type            compressible::alphatWallFunction;
        Prt             0.85;
        value           nonuniform List<scalar> 6(0.000133013 0.000139101 0.000157321 0.000177012 0.000180895 0.00018121);
    }
    sideWalls
    {
        type            empty;
    }
    glass1
    {
        type            compressible::alphatWallFunction;
        Prt             0.85;
        value           nonuniform List<scalar> 9(0.000170797 0.000230182 0.000278357 0.000323845 0.00036955 0.000417452 0.000461897 0.000471313 0.000460554);
    }
    glass2
    {
        type            compressible::alphatWallFunction;
        Prt             0.85;
        value           nonuniform List<scalar> 2(0.000234233 0.000218444);
    }
    sun
    {
        type            compressible::alphatWallFunction;
        Prt             0.85;
        value           nonuniform List<scalar> 
14
(
0.000175121
0.000190486
0.000193957
0.000202829
0.000211009
0.00021869
0.00022629
0.000233523
0.000238586
0.000240528
0.000238433
0.000231628
0.000219754
0.000203071
)
;
    }
    heatsource1
    {
        type            compressible::alphatWallFunction;
        Prt             0.85;
        value           nonuniform List<scalar> 3(9.81568e-05 0.000118666 0.000133332);
    }
    heatsource2
    {
        type            compressible::alphatWallFunction;
        Prt             0.85;
        value           nonuniform List<scalar> 4(0.000186575 0.000116461 0.00011646 0.000191884);
    }
    Table_master
    {
        type            compressible::alphatWallFunction;
        Prt             0.85;
        value           nonuniform List<scalar> 9(0.000128492 0.00011344 0.000101047 9.08604e-05 8.24384e-05 7.54194e-05 6.95308e-05 6.45973e-05 6.05442e-05);
    }
    Table_slave
    {
        type            compressible::alphatWallFunction;
        Prt             0.85;
        value           nonuniform List<scalar> 9(0.000145448 0.000132936 0.000123889 0.000116957 0.000111042 0.000105517 0.000100178 9.45262e-05 8.79158e-05);
    }
    inlet
    {
        type            fixedValue;
        value           uniform 1.94e-05;
    }
    outlet
    {
        type            zeroGradient;
    }
}


// ************************************************************************* //
