// -*- C++ -*-
// File generated by PyFoam - sorry for the ugliness

FoamFile
{
 version 2.0;
 format ascii;
 class volVectorField;
 location "1500";
 object U;
}

dimensions [ 0 1 -1 0 0 0 0 ];

internalField nonuniform List<vector> 459
(
  (0.0342355 0.0859006 0)
  (-0.167109 0.0254786 0)
  (-0.191866 0.0178513 0)
  (-0.222887 0.0121486 0)
  (-0.245338 0.00585899 0)
  (-0.25812 -0.0008344 0)
  (-0.259538 -0.00800074 0)
  (-0.248316 -0.015664 0)
  (-0.225053 -0.0231228 0)
  (-0.19166 -0.0290423 0)
  (-0.151879 -0.0323209 0)
  (-0.110119 -0.0324249 0)
  (-0.0706245 -0.0295198 0)
  (-0.0385638 -0.0247616 0)
  (-0.0278654 -0.0200031 0)
  (-0.00644979 0.00909589 0)
  (-0.0298746 -0.0163943 0)
  (-0.00878143 -0.0262099 0)
  (0.0148982 -0.0202913 0)
  (0.0300084 -0.0139274 0)
  (0.0426417 -0.00904082 0)
  (0.0506789 -0.00525666 0)
  (0.054902 -0.00327063 0)
  (0.0568329 -0.00247747 0)
  (0.0578036 -0.00213819 0)
  (0.0584165 -0.00192924 0)
  (0.0587776 -0.00176228 0)
  (0.0588329 -0.00156528 0)
  (0.0584102 -0.00117642 0)
  (0.0570095 -0.000244636 0)
  (0.0535513 0.00171371 0)
  (0.0468552 0.00378078 0)
  (0.0411449 0.00540967 0)
  (-0.0139895 0.0201264 0)
  (0.208886 0.176019 0)
  (-0.156339 0.0674295 0)
  (-0.15479 0.0530654 0)
  (-0.186971 0.0412287 0)
  (-0.209281 0.0277922 0)
  (-0.222369 0.0126298 0)
  (-0.224493 -0.00458038 0)
  (-0.21422 -0.0232382 0)
  (-0.192752 -0.0407262 0)
  (-0.162419 -0.0539347 0)
  (-0.127097 -0.0607421 0)
  (-0.090866 -0.0605277 0)
  (-0.0572893 -0.0539086 0)
  (-0.0297882 -0.0425303 0)
  (-0.0123356 -0.0288932 0)
  (0.00147734 -0.0109318 0)
  (0.000205409 0.0155694 0)
  (0.0615545 0.0367978 0)
  (0.0234727 -0.0173224 0)
  (0.0321404 -0.0308919 0)
  (0.043088 -0.0276804 0)
  (0.0518393 -0.0200011 0)
  (0.0583318 -0.0126049 0)
  (0.0611657 -0.00543203 0)
  (0.0617391 -0.00129577 0)
  (0.0617101 0.000435564 0)
  (0.0618269 0.00120489 0)
  (0.0620341 0.0016784 0)
  (0.0621858 0.00206607 0)
  (0.062245 0.00253231 0)
  (0.0621693 0.00336866 0)
  (0.061476 0.00540279 0)
  (0.0579458 0.0110615 0)
  (0.0489282 0.0157713 0)
  (0.0453823 0.0188535 0)
  (-0.0510076 0.0437692 0)
  (0.369189 0.263445 0)
  (-0.173295 0.107451 0)
  (-0.116252 0.0859087 0)
  (-0.147669 0.0647833 0)
  (-0.167589 0.0426396 0)
  (-0.179836 0.0179964 0)
  (-0.18166 -0.0100007 0)
  (-0.170731 -0.0398832 0)
  (-0.149528 -0.0669793 0)
  (-0.121295 -0.0862302 0)
  (-0.0901087 -0.094952 0)
  (-0.0594691 -0.0930802 0)
  (-0.0316574 -0.0820539 0)
  (-0.00875722 -0.0641564 0)
  (0.00828418 -0.040697 0)
  (0.0194271 -0.0143325 0)
  (0.0236885 0.0227319 0)
  (0.110358 -0.0251009 0)
  (0.0740987 -0.0363365 0)
  (0.0683574 -0.0373812 0)
  (0.0696256 -0.0322904 0)
  (0.0707738 -0.0245801 0)
  (0.0719469 -0.0178118 0)
  (0.0706246 -0.0143099 0)
  (0.0659832 -0.0101354 0)
  (0.0626012 -0.00785223 0)
  (0.0610496 -0.00654506 0)
  (0.0603651 -0.00570738 0)
  (0.0599982 -0.00513151 0)
  (0.0599288 -0.00463647 0)
  (0.0605719 -0.00386149 0)
  (0.0629795 -0.00091259 0)
  (0.0609965 0.015362 0)
  (0.0483107 0.0266694 0)
  (0.0518978 0.0341821 0)
  (-0.0837299 0.0681303 0)
  (0.51391 0.333787 0)
  (-0.208156 0.142949 0)
  (-0.0752957 0.113902 0)
  (-0.105428 0.0848943 0)
  (-0.119922 0.0565003 0)
  (-0.129001 0.0241561 0)
  (-0.127875 -0.0144822 0)
  (-0.113888 -0.0561833 0)
  (-0.0923116 -0.0921304 0)
  (-0.0671494 -0.115762 0)
  (-0.0419059 -0.124875 0)
  (-0.0189465 -0.120771 0)
  (0.00149254 -0.105592 0)
  (0.0183038 -0.0828507 0)
  (0.032541 -0.0560538 0)
  (0.0477154 -0.0270403 0)
  (0.069107 0.0047522 0)
  (0.0994649 0.0167487 0)
  (0.104555 -0.0218996 0)
  (0.0911028 -0.0324739 0)
  (0.0822041 -0.0318256 0)
  (0.0770545 -0.0278545 0)
  (0.073085 -0.0219668 0)
  (0.0703169 -0.0144623 0)
  (0.0712138 -0.00869263 0)
  (0.0757063 -0.00649833 0)
  (0.0795113 -0.00530349 0)
  (0.0819835 -0.00448128 0)
  (0.0834897 -0.00357109 0)
  (0.0836282 -0.00227591 0)
  (0.0813109 -0.000331235 0)
  (0.075274 0.00257256 0)
  (0.0630506 0.00693824 0)
  (0.0512495 0.0256334 0)
  (0.0392226 0.0414945 0)
  (0.056224 0.0540194 0)
  (-0.118654 0.0897707 0)
  (0.63921 0.38828 0)
  (-0.250805 0.171944 0)
  (-0.0345054 0.130082 0)
  (-0.0611953 0.0964319 0)
  (-0.0676616 0.0645779 0)
  (-0.0707506 0.0271325 0)
  (-0.0608507 -0.021218 0)
  (-0.04165 -0.0738144 0)
  (-0.0210851 -0.115014 0)
  (-0.00181791 -0.139227 0)
  (0.0144334 -0.145735 0)
  (0.0268535 -0.137975 0)
  (0.0365876 -0.120126 0)
  (0.0444249 -0.0957419 0)
  (0.0516573 -0.0683321 0)
  (0.0602417 -0.0416639 0)
  (0.0728873 -0.0219618 0)
  (0.0834413 -0.0207881 0)
  (0.0845525 -0.0281827 0)
  (0.0782672 -0.0288518 0)
  (0.0700929 -0.0259171 0)
  (0.0632507 -0.0220802 0)
  (0.0579536 -0.0175711 0)
  (0.0545699 -0.0122841 0)
  (0.0539681 -0.00660832 0)
  (0.0558664 -0.00386874 0)
  (0.0581657 -0.00294265 0)
  (0.0604107 -0.00230728 0)
  (0.0625563 -0.00094594 0)
  (0.064314 0.00176911 0)
  (0.0644881 0.00600363 0)
  (0.062422 0.0119495 0)
  (0.0574797 0.0201918 0)
  (0.0510867 0.0348916 0)
  (0.0412049 0.0524587 0)
  (0.0645283 0.0723892 0)
  (-0.0234839 0.101547 0)
  (0.0464774 0.0311979 0)
  (-0.0619289 -0.034197 0)
  (-0.272586 -0.0569009 0)
  (0.730345 0.433725 0)
  (-0.292425 0.191475 0)
  (-0.00327161 0.126655 0)
  (-0.0160523 0.0977016 0)
  (-0.0119541 0.0670226 0)
  (-0.00637901 0.0241483 0)
  (0.0222998 -0.0383824 0)
  (0.0441388 -0.0941644 0)
  (0.0596757 -0.132383 0)
  (0.0690917 -0.151772 0)
  (0.0730493 -0.15429 0)
  (0.0729492 -0.143515 0)
  (0.0702926 -0.123482 0)
  (0.0665792 -0.0981829 0)
  (0.0632929 -0.071282 0)
  (0.0618333 -0.0464237 0)
  (0.063051 -0.0278407 0)
  (0.0638537 -0.0203053 0)
  (0.0606002 -0.0196716 0)
  (0.0536426 -0.0195948 0)
  (0.0457074 -0.0180632 0)
  (0.0389632 -0.0157451 0)
  (0.0339452 -0.01299 0)
  (0.0309538 -0.00986122 0)
  (0.0302635 -0.00696287 0)
  (0.0315498 -0.00588576 0)
  (0.0338086 -0.00587867 0)
  (0.036622 -0.00573923 0)
  (0.0398456 -0.00448415 0)
  (0.0432534 -0.00121615 0)
  (0.0466381 0.00455171 0)
  (0.0486764 0.0125534 0)
  (0.0495324 0.022838 0)
  (0.0505485 0.0368067 0)
  (0.0498268 0.0541085 0)
  (0.0731858 0.0768459 0)
  (0.052599 0.094945 0)
  (0.0936302 0.0669886 0)
  (0.116287 0.044265 0)
  (-0.128708 -0.00676842 0)
  (0.782296 0.475031 0)
  (-0.313375 0.176937 0)
  (0.0235349 0.0771507 0)
  (0.0425852 0.0739436 0)
  (0.0577217 0.0524411 0)
  (0.0843042 0.00133628 0)
  (0.118524 -0.0628051 0)
  (0.137841 -0.111644 0)
  (0.144271 -0.141164 0)
  (0.140514 -0.152795 0)
  (0.129309 -0.149499 0)
  (0.113575 -0.135027 0)
  (0.0958818 -0.113248 0)
  (0.0784655 -0.0880669 0)
  (0.0630125 -0.0626963 0)
  (0.0507581 -0.0402196 0)
  (0.0421424 -0.0237155 0)
  (0.0356453 -0.015268 0)
  (0.0290998 -0.0126976 0)
  (0.0219964 -0.0121331 0)
  (0.0152335 -0.0114236 0)
  (0.00972208 -0.0104482 0)
  (0.00577764 -0.00936068 0)
  (0.00358279 -0.00823528 0)
  (0.00322773 -0.00748424 0)
  (0.00436821 -0.00774819 0)
  (0.00637962 -0.00855582 0)
  (0.00899664 -0.00908071 0)
  (0.0122647 -0.00849103 0)
  (0.0163423 -0.00581685 0)
  (0.0220629 3.93298e-05 0)
  (0.0285774 0.00880587 0)
  (0.0347798 0.0192174 0)
  (0.0424431 0.0315715 0)
  (0.0509052 0.0456945 0)
  (0.0738188 0.0639915 0)
  (0.0876668 0.0721847 0)
  (0.119644 0.0513749 0)
  (0.158817 0.0435541 0)
  (-0.0356718 0.0927678 0)
  (0.886954 0.47774 0)
  (-0.0707577 0.156602 0)
  (0.106053 0.00384632 0)
  (0.169204 -0.0164957 0)
  (0.182206 -0.0353029 0)
  (0.217808 -0.0693762 0)
  (0.239663 -0.102127 0)
  (0.242214 -0.125524 0)
  (0.228258 -0.137056 0)
  (0.202742 -0.136944 0)
  (0.170531 -0.12695 0)
  (0.135852 -0.109705 0)
  (0.10174 -0.0878907 0)
  (0.0706802 -0.0647706 0)
  (0.0441375 -0.0427699 0)
  (0.023447 -0.0244373 0)
  (0.00907374 -0.0122592 0)
  (-0.000320349 -0.00668965 0)
  (-0.00697521 -0.00552505 0)
  (-0.0125267 -0.00583874 0)
  (-0.0172932 -0.00625054 0)
  (-0.0211026 -0.00658549 0)
  (-0.0238772 -0.00691707 0)
  (-0.0255618 -0.00733858 0)
  (-0.0262036 -0.00805854 0)
  (-0.0261068 -0.00924218 0)
  (-0.025652 -0.0106434 0)
  (-0.0249766 -0.0118382 0)
  (-0.023947 -0.0123544 0)
  (-0.0221874 -0.0116384 0)
  (-0.0188319 -0.00898459 0)
  (-0.0111534 -0.00359624 0)
  (-0.000621729 0.00418532 0)
  (0.010623 0.0123232 0)
  (0.0232684 0.0188361 0)
  (0.0442918 0.0256964 0)
  (0.0643118 0.0201977 0)
  (0.0836706 -0.00162909 0)
  (0.141426 0.0482363 0)
  (-0.432316 0.204862 0)
  (1.03201 0.430096 0)
  (0.496963 0.285164 0)
  (0.503226 0.191536 0)
  (0.511679 0.120082 0)
  (0.48696 0.0685813 0)
  (0.444202 0.0152066 0)
  (0.394239 -0.0330681 0)
  (0.340766 -0.0672577 0)
  (0.283505 -0.0848649 0)
  (0.224874 -0.0879247 0)
  (0.168169 -0.0804731 0)
  (0.116163 -0.0665238 0)
  (0.0698614 -0.0488105 0)
  (0.0311545 -0.030754 0)
  (-0.000399855 -0.0145325 0)
  (-0.0213747 -0.00436323 0)
  (-0.0325577 -0.000492764 0)
  (-0.0387376 0.00013732 0)
  (-0.0426987 -0.000689273 0)
  (-0.0460103 -0.0018757 0)
  (-0.0490807 -0.00300629 0)
  (-0.0518544 -0.00408207 0)
  (-0.0543177 -0.00514986 0)
  (-0.056477 -0.0062558 0)
  (-0.0584593 -0.0074663 0)
  (-0.0605464 -0.00878619 0)
  (-0.0630685 -0.0100306 0)
  (-0.0663164 -0.0108631 0)
  (-0.0705931 -0.0108062 0)
  (-0.0763021 -0.00922439 0)
  (-0.0839478 -0.00535485 0)
  (-0.0939562 0.00153619 0)
  (-0.104494 0.0111218 0)
  (-0.11814 0.0233415 0)
  (-0.139753 0.0382584 0)
  (-0.171512 0.0553054 0)
  (-0.217347 0.0715316 0)
  (-0.273689 0.0848142 0)
  (-0.349946 0.0934244 0)
  (-0.617331 0.09072 0)
  (-0.148009 0.0829621 0)
  (0.134899 0.061927 0)
  (0.218171 0.00617393 0)
  (0.201694 -0.0287419 0)
  (0.185973 -0.0431286 0)
  (0.163449 -0.0478253 0)
  (0.130961 -0.0461923 0)
  (0.0923983 -0.0397769 0)
  (0.0525201 -0.0300103 0)
  (0.0145796 -0.017745 0)
  (-0.022765 -0.00388227 0)
  (-0.0465585 0.003891 0)
  (-0.0610808 0.00742333 0)
  (-0.0680947 0.0079392 0)
  (-0.0715047 0.00724074 0)
  (-0.0737073 0.00634769 0)
  (-0.0755617 0.00550205 0)
  (-0.0774176 0.00479435 0)
  (-0.079385 0.0041449 0)
  (-0.0815949 0.00340306 0)
  (-0.0840771 0.00247759 0)
  (-0.0868069 0.00145054 0)
  (-0.0898638 0.000411237 0)
  (-0.0933645 -0.000501365 0)
  (-0.0973919 -0.00105183 0)
  (-0.101958 -0.000936939 0)
  (-0.106996 0.000184665 0)
  (-0.112333 0.00266423 0)
  (-0.117507 0.00689609 0)
  (-0.121573 0.0134897 0)
  (-0.124974 0.023558 0)
  (-0.127666 0.0376183 0)
  (-0.130144 0.0552585 0)
  (-0.132191 0.0741596 0)
  (-0.130606 0.0873665 0)
  (-0.113191 0.0805279 0)
  (-0.0733826 0.0262201 0)
  (-0.198041 -0.176276 0)
  (-0.0234159 0.231044 0)
  (0.0636326 0.0996466 0)
  (0.0377266 0.0191122 0)
  (0.025587 -0.00434653 0)
  (0.016276 -0.00976902 0)
  (-0.00234376 -0.0112028 0)
  (-0.0273041 -0.00872295 0)
  (-0.0530607 -0.00410222 0)
  (-0.0748974 0.00043428 0)
  (-0.0899515 0.00347253 0)
  (-0.0971996 0.00376643 0)
  (-0.0997311 0.00155567 0)
  (-0.100038 -0.0013939 0)
  (-0.0993373 -0.00473161 0)
  (-0.098725 -0.00814698 0)
  (-0.0986037 -0.0114087 0)
  (-0.0990095 -0.0144087 0)
  (-0.0998503 -0.0169616 0)
  (-0.100986 -0.0189094 0)
  (-0.102318 -0.020189 0)
  (-0.10383 -0.0208323 0)
  (-0.105582 -0.0209476 0)
  (-0.107557 -0.0205506 0)
  (-0.109745 -0.0197918 0)
  (-0.112084 -0.0186717 0)
  (-0.114399 -0.016999 0)
  (-0.116382 -0.0144408 0)
  (-0.117588 -0.0104813 0)
  (-0.117546 -0.00489464 0)
  (-0.115442 0.0027167 0)
  (-0.109977 0.0130497 0)
  (-0.0998278 0.0267461 0)
  (-0.084414 0.0436284 0)
  (-0.0641345 0.0606313 0)
  (-0.0402397 0.0696834 0)
  (0.0279299 0.0381418 0)
  (0.147198 -0.0413004 0)
  (-0.0495104 -0.0652233 0)
  (-0.103652 -0.348745 0)
  (-0.439278 -0.120292 0)
  (-0.310745 0.0956951 0)
  (-0.226429 -0.0203347 0)
  (-0.17996 -0.0415916 0)
  (-0.165507 -0.0294837 0)
  (-0.163101 -0.0165363 0)
  (-0.164457 -0.00621058 0)
  (-0.165071 0.00242968 0)
  (-0.162839 0.00998578 0)
  (-0.158163 0.0169271 0)
  (-0.151142 0.0232608 0)
  (-0.142699 0.0287296 0)
  (-0.134256 0.0333409 0)
  (-0.126665 0.0376628 0)
  (-0.12025 0.0419134 0)
  (-0.115022 0.0461855 0)
  (-0.110806 0.0503114 0)
  (-0.107452 0.0539509 0)
  (-0.10486 0.0567668 0)
  (-0.102954 0.0585383 0)
  (-0.101669 0.0591976 0)
  (-0.100948 0.0588068 0)
  (-0.100754 0.0575007 0)
  (-0.101046 0.0553852 0)
  (-0.101746 0.05281 0)
  (-0.102727 0.05001 0)
  (-0.103779 0.0470894 0)
  (-0.104546 0.0441224 0)
  (-0.104456 0.0411645 0)
  (-0.102453 0.038937 0)
  (-0.096945 0.0380948 0)
  (-0.0857612 0.0393002 0)
  (-0.0669627 0.0433093 0)
  (-0.0406108 0.0506249 0)
  (-0.00577481 0.0603191 0)
  (0.0321708 0.0570281 0)
  (0.0900879 0.0201961 0)
  (0.119008 -0.0184697 0)
  (-0.505033 0.0599038 0)
)
;

boundaryField
{
  floor
  {
    type noSlip;
  }
  ceiling
  {
    type noSlip;
  }
  sWall
  {
    type noSlip;
  }
  nWall
  {
    type noSlip;
  }
  sideWalls
  {
    type empty;
  }
  glass1
  {
    type noSlip;
  }
  glass2
  {
    type noSlip;
  }
  sun
  {
    type noSlip;
  }
  heatsource1
  {
    type noSlip;
  }
  heatsource2
  {
    type noSlip;
  }
  Table_master
  {
    type noSlip;
  }
  Table_slave
  {
    type noSlip;
  }
  inlet
  {
    type fixedValue;
    value uniform (0.3 0 0);
  }
  outlet
  {
    type zeroGradient;
  }
} 	// ************************************************************************* //

