/*--------------------------------*- C++ -*----------------------------------*\
  =========                 |
  \\      /  F ield         | OpenFOAM: The Open Source CFD Toolbox
   \\    /   O peration     | Website:  https://openfoam.org
    \\  /    A nd           | Version:  6
     \\/     M anipulation  |
\*---------------------------------------------------------------------------*/
FoamFile
{
    version     2.0;
    format      ascii;
    class       volScalarField;
    location    "300";
    object      nut;
}
// * * * * * * * * * * * * * * * * * * * * * * * * * * * * * * * * * * * * * //

dimensions      [0 2 -1 0 0 0 0];

internalField   nonuniform List<scalar> 
459
(
0.000701615
0.000717172
0.000608707
0.000623505
0.000646557
0.000670579
0.000695192
0.000720739
0.000747701
0.00077247
0.000793338
0.000807988
0.000813452
0.000805859
0.000777604
0.000258759
0.00025508
0.000235543
0.00023361
0.000234072
0.000235419
0.000240072
0.000251402
0.000268617
0.00029168
0.000321038
0.000356609
0.000395057
0.000438272
0.000485883
0.000529222
0.000534758
0.000494856
0.000422995
0.00127781
0.00245072
0.00162251
0.00248424
0.00278494
0.00298291
0.00317744
0.00336071
0.00351737
0.00364921
0.00373006
0.00371766
0.00353825
0.00306455
0.00212734
0.00082262
0.000572482
0.000355703
0.000738322
0.000510654
0.000430518
0.000359638
0.000321853
0.000352422
0.000386808
0.000458546
0.000557565
0.000668616
0.000780983
0.000908605
0.00105052
0.00122284
0.00156356
0.00134464
0.000983395
0.000544598
0.00178767
0.00438814
0.00186413
0.00308922
0.00410659
0.00445371
0.00468775
0.0048851
0.00504058
0.00516009
0.0052135
0.00515216
0.00489648
0.00433007
0.00334576
0.00203161
0.000829865
0.000510731
0.00133572
0.00098989
0.000777943
0.000618448
0.000463178
0.00025626
0.000286983
0.000331134
0.000378126
0.000429659
0.000489883
0.000563279
0.00065384
0.000767748
0.00206449
0.00190088
0.00142703
0.000831692
0.00226135
0.00675219
0.00275167
0.00292273
0.00452435
0.00514816
0.0054679
0.00571687
0.00592052
0.00608982
0.00621447
0.00624951
0.0061156
0.00569166
0.00483252
0.00347017
0.00188963
0.000897919
0.00176215
0.00200839
0.00184242
0.00162559
0.00137082
0.00110342
0.000811752
0.000814362
0.000814611
0.000813143
0.000812977
0.000818818
0.000837512
0.000878371
0.000954082
0.0027007
0.0026255
0.0021253
0.00107713
0.00269088
0.00920452
0.00454623
0.0031079
0.00421614
0.0051035
0.00561172
0.00599244
0.00631357
0.00660356
0.00689922
0.00717291
0.00736978
0.00741413
0.0072255
0.00675522
0.0060397
0.00520338
0.0044464
0.00437187
0.00449057
0.00466372
0.00480361
0.00480443
0.00473088
0.00467376
0.00457203
0.00442399
0.00423771
0.00403393
0.00384756
0.00371612
0.00365599
0.00366435
0.00345682
0.00316002
0.00265271
0.00123941
0.00111115
0.00096594
0.00308398
0.0113337
0.00736728
0.00466276
0.00403429
0.00441108
0.00501479
0.00557012
0.00603883
0.00647828
0.00697189
0.00750282
0.00802035
0.00845427
0.00872793
0.00877491
0.00856177
0.00812015
0.00756229
0.00718576
0.00707335
0.00711792
0.00719664
0.00721176
0.00716957
0.00707106
0.00691305
0.00669119
0.0063985
0.00603142
0.00560089
0.00514171
0.00470063
0.00430234
0.00393882
0.00358994
0.0031911
0.00273026
0.00214455
0.000986449
0.00341231
0.0125493
0.0103801
0.00746797
0.0054877
0.00450455
0.00445842
0.00481145
0.00523027
0.00569606
0.00628905
0.00700814
0.00779313
0.00854991
0.00918172
0.00960324
0.00975196
0.0096336
0.00933411
0.00901326
0.00880405
0.00871599
0.00868292
0.00865741
0.00861237
0.00853342
0.00841493
0.00824895
0.0080193
0.00769884
0.00725222
0.00665447
0.00593177
0.00518278
0.00451222
0.00393815
0.003403
0.00286084
0.00223164
0.00102011
0.00342471
0.0111045
0.0101112
0.00930876
0.00766782
0.00620191
0.00532986
0.00493867
0.00485749
0.00498405
0.00531768
0.00589856
0.00671094
0.00765223
0.0085703
0.00932826
0.00979365
0.00996979
0.0099114
0.00973131
0.0095485
0.00941886
0.00934162
0.0092966
0.00926229
0.00922384
0.00917394
0.00910657
0.00901155
0.00886926
0.00864332
0.00827229
0.00767551
0.0068232
0.00584792
0.0049548
0.00420341
0.00362621
0.00320425
0.00161408
0.00326472
0.00377187
0.00908812
0.00969543
0.00845588
0.00712863
0.00609864
0.00540491
0.00499135
0.00479556
0.00481078
0.00506181
0.0055684
0.00631222
0.00719361
0.00805402
0.00874065
0.00918279
0.00938287
0.00940455
0.00933612
0.00924535
0.00916703
0.00911243
0.00907956
0.00906276
0.00905719
0.00905888
0.00906287
0.0090609
0.00903829
0.00896946
0.00881462
0.00853044
0.00811731
0.00762119
0.0070318
0.00616223
0.00595464
0.00171235
0.019801
0.0180968
0.0103016
0.00802989
0.00685046
0.00609107
0.00560113
0.00531109
0.00518104
0.00518941
0.00533573
0.00562259
0.00604425
0.00656447
0.00711033
0.00759766
0.00796296
0.00818688
0.00829197
0.00831799
0.00830171
0.00826971
0.00823761
0.00821377
0.00820329
0.00820911
0.0082313
0.0082658
0.0083025
0.00832244
0.00829402
0.00817198
0.0079081
0.00747085
0.00684778
0.0060332
0.00510546
0.00163302
0.00688384
0.0142293
0.00997918
0.00775883
0.00655167
0.00582885
0.00539651
0.00516336
0.00507722
0.00510361
0.00521608
0.00539432
0.00562396
0.00589225
0.00618
0.00645891
0.00669911
0.00688138
0.00700253
0.00707152
0.00710272
0.00711029
0.00709966
0.00707681
0.0070511
0.00702868
0.00701144
0.00699642
0.00697526
0.00693336
0.00684926
0.00669586
0.00644625
0.00608276
0.00560086
0.00497424
0.00466871
0.0015443
0.00161237
0.00228903
0.00485816
0.00441172
0.00367829
0.00308696
0.00265026
0.0023276
0.00208523
0.0019011
0.00176156
0.00165792
0.00158418
0.00153541
0.0015069
0.00149415
0.00149268
0.0014979
0.00150541
0.0015116
0.00151431
0.00151284
0.00150751
0.00149915
0.00148947
0.00147938
0.00146911
0.00145891
0.0014489
0.00143902
0.00142885
0.00141763
0.00140424
0.00138731
0.00136544
0.0013373
0.00130151
0.00125801
0.00126147
0.00112675
)
;

boundaryField
{
    floor
    {
        type            nutkWallFunction;
        Cmu             0.09;
        kappa           0.41;
        E               9.8;
        value           nonuniform List<scalar> 
29
(
9.41776e-05
2.77104e-05
2.71921e-05
2.44517e-05
2.41766e-05
2.42419e-05
2.44332e-05
2.50893e-05
2.66772e-05
2.90729e-05
3.22518e-05
3.62511e-05
4.10325e-05
4.61318e-05
5.17878e-05
5.79381e-05
6.34683e-05
6.41674e-05
5.90785e-05
4.97811e-05
4.97811e-05
6.54021e-05
0.000100754
0.00012981
9.41776e-05
2.77103e-05
4.09027e-05
6.10706e-05
0.000108598
)
;
    }
    ceiling
    {
        type            nutkWallFunction;
        Cmu             0.09;
        kappa           0.41;
        E               9.8;
        value           nonuniform List<scalar> 
43
(
0.000190913
0.000265051
0.000529796
0.000485027
0.000410531
0.000349397
0.000303493
0.000269077
0.000242898
0.000222794
0.000207418
0.000195913
0.000187679
0.000182208
0.000179
0.000177561
0.000177392
0.000177978
0.00017882
0.000179514
0.000179817
0.000179651
0.00017905
0.000178108
0.000177015
0.000175877
0.000174717
0.000173565
0.000172435
0.000171318
0.000170169
0.000168899
0.000167383
0.000165464
0.00016298
0.000159777
0.000155692
0.000150711
0.000151103
0.000135556
0.000367728
0.000419885
0.00072817
)
;
    }
    sWall
    {
        type            nutkWallFunction;
        Cmu             0.09;
        kappa           0.41;
        E               9.8;
        value           uniform 0.000190953;
    }
    nWall
    {
        type            nutkWallFunction;
        Cmu             0.09;
        kappa           0.41;
        E               9.8;
        value           nonuniform List<scalar> 6(0.000116759 0.000119156 0.000123126 0.00019309 0.000183165 0.000135564);
    }
    sideWalls
    {
        type            empty;
    }
    glass1
    {
        type            nutkWallFunction;
        Cmu             0.09;
        kappa           0.41;
        E               9.8;
        value           nonuniform List<scalar> 9(8.48767e-05 0.000153104 0.000210464 0.000262142 0.000308003 0.000349304 0.000383386 0.000384682 0.000368147);
    }
    glass2
    {
        type            nutkWallFunction;
        Cmu             0.09;
        kappa           0.41;
        E               9.8;
        value           nonuniform List<scalar> 2(0.000191066 0.000201971);
    }
    sun
    {
        type            nutkWallFunction;
        Cmu             0.09;
        kappa           0.41;
        E               9.8;
        value           nonuniform List<scalar> 
14
(
8.49119e-05
8.68182e-05
7.34236e-05
7.52685e-05
7.81307e-05
8.11003e-05
8.41297e-05
8.72609e-05
9.05508e-05
9.35608e-05
9.60877e-05
9.78568e-05
9.85151e-05
9.75977e-05
)
;
    }
    heatsource1
    {
        type            nutkWallFunction;
        Cmu             0.09;
        kappa           0.41;
        E               9.8;
        value           nonuniform List<scalar> 3(0.000148597 0.00013379 0.000116755);
    }
    heatsource2
    {
        type            nutkWallFunction;
        Cmu             0.09;
        kappa           0.41;
        E               9.8;
        value           nonuniform List<scalar> 4(9.96112e-05 6.88946e-05 6.88946e-05 0.00010047);
    }
    Table_master
    {
        type            nutkWallFunction;
        Cmu             0.09;
        kappa           0.41;
        E               9.8;
        value           nonuniform List<scalar> 9(2.73473e-05 3.15904e-05 3.75905e-05 4.3866e-05 5.06344e-05 5.84168e-05 6.77452e-05 7.9057e-05 9.30227e-05);
    }
    Table_slave
    {
        type            nutkWallFunction;
        Cmu             0.09;
        kappa           0.41;
        E               9.8;
        value           nonuniform List<scalar> 9(9.83116e-05 9.86321e-05 9.86665e-05 9.84928e-05 9.84757e-05 9.9182e-05 0.000101433 0.000106332 0.000115339);
    }
    inlet
    {
        type            calculated;
        value           uniform 0.019801;
    }
    outlet
    {
        type            calculated;
        value           nonuniform List<scalar> 2(0.00161237 0.00228903);
    }
}


// ************************************************************************* //
