/*--------------------------------*- C++ -*----------------------------------*\
  =========                 |
  \\      /  F ield         | OpenFOAM: The Open Source CFD Toolbox
   \\    /   O peration     | Website:  https://openfoam.org
    \\  /    A nd           | Version:  6
     \\/     M anipulation  |
\*---------------------------------------------------------------------------*/
FoamFile
{
    version     2.0;
    format      ascii;
    class       volScalarField;
    location    "800";
    object      alphat;
}
// * * * * * * * * * * * * * * * * * * * * * * * * * * * * * * * * * * * * * //

dimensions      [1 -1 -1 0 0 0 0];

internalField   nonuniform List<scalar> 
459
(
0.00115113
0.00124627
0.0012618
0.00131762
0.00136831
0.00141485
0.00145941
0.0015048
0.00154045
0.00155914
0.00155434
0.00152094
0.00145755
0.00137066
0.00127592
0.000489815
0.000586752
0.000645405
0.000630321
0.000602538
0.000570857
0.000535646
0.000501762
0.000471035
0.000443578
0.000419111
0.000397569
0.000378411
0.000361167
0.000345336
0.000330162
0.000314588
0.000311861
0.000292306
0.00159559
0.00355267
0.00329275
0.00380836
0.00428644
0.00477742
0.00523331
0.00557507
0.00588263
0.0061472
0.00632432
0.00636206
0.00618512
0.00563479
0.00418537
0.00128102
0.000750385
0.000529068
0.000980722
0.00128412
0.00149232
0.00159458
0.00159089
0.00135299
0.00120023
0.00108469
0.000993227
0.000918927
0.00085404
0.000796187
0.000743793
0.00069685
0.00065841
0.000616002
0.000763902
0.000422229
0.00196975
0.00483048
0.00392593
0.00501188
0.00545426
0.00576824
0.00600863
0.00620174
0.00642081
0.00666404
0.00689715
0.0070769
0.00714479
0.00704243
0.00663867
0.00535682
0.00119577
0.00104172
0.00135802
0.00161112
0.0018345
0.00199051
0.00196254
0.000757263
0.000680841
0.00061805
0.000566435
0.000523771
0.000488231
0.000458428
0.000433391
0.000412528
0.0004417
0.000497084
0.000857634
0.000504047
0.00233403
0.00631848
0.00381318
0.00524708
0.00562183
0.0056943
0.00571733
0.00579427
0.00595967
0.0061967
0.00647038
0.00674179
0.00694231
0.00703177
0.006971
0.00657926
0.00517485
0.00145208
0.0017005
0.00203983
0.00235633
0.00261213
0.00278995
0.00269309
0.000851791
0.000795288
0.000757522
0.000730191
0.000706278
0.000680645
0.000655277
0.000627262
0.000592814
0.000557609
0.000551056
0.00101582
0.00056546
0.00270636
0.00829146
0.00413097
0.00493564
0.00550996
0.00546563
0.00535001
0.00537136
0.00554356
0.00579111
0.00608695
0.0063988
0.00663002
0.00671886
0.00664398
0.00638967
0.0058491
0.00481682
0.00436966
0.00416925
0.00408083
0.00405374
0.00405515
0.0040094
0.00360717
0.00344584
0.00336922
0.00330265
0.00320602
0.00304349
0.00274997
0.00236144
0.00191099
0.0014457
0.00106146
0.0010168
0.000759718
0.000707099
0.000847132
0.000948483
0.00310019
0.0104549
0.00585869
0.00457788
0.00516607
0.00534632
0.00527871
0.00521362
0.00540204
0.00564059
0.00593281
0.00623674
0.00646853
0.00653791
0.00639574
0.0060686
0.00565832
0.00528405
0.00509047
0.00498731
0.00490419
0.00483355
0.00476868
0.00469452
0.00457967
0.00448623
0.00439656
0.00429104
0.00415911
0.00399337
0.00374132
0.00336972
0.00287803
0.00229487
0.00173758
0.00123102
0.000996507
0.000878817
0.00127177
0.000990397
0.00348073
0.0120794
0.00883676
0.00583815
0.00516202
0.00528607
0.00540281
0.00542562
0.00550602
0.00568631
0.00596083
0.00626366
0.00648897
0.00652577
0.00631297
0.00589611
0.00546118
0.00523126
0.00522264
0.00522556
0.00513565
0.00497537
0.00479316
0.00463478
0.00451744
0.0044326
0.00435139
0.00425864
0.00415216
0.00403762
0.00391751
0.00368457
0.0032899
0.00277615
0.00225927
0.00175268
0.00143496
0.00135578
0.00141568
0.00111907
0.00356749
0.0112503
0.00955726
0.00814745
0.0070997
0.00659801
0.00612399
0.00578596
0.00570507
0.00585331
0.00614178
0.00645017
0.00664547
0.00660456
0.00627376
0.00573681
0.00527635
0.00516194
0.00518087
0.00501488
0.00473505
0.0044483
0.00422253
0.00407561
0.0039887
0.00393028
0.00387712
0.00382348
0.00377553
0.00374637
0.00375191
0.00377174
0.0035449
0.00319086
0.00286876
0.00271437
0.00287599
0.0034048
0.00425612
0.00175868
0.00348536
0.00419097
0.00475642
0.00497167
0.00501774
0.00497932
0.00503269
0.0052559
0.0056248
0.00606727
0.0064923
0.0067941
0.00686765
0.0066165
0.00604038
0.00535486
0.00498646
0.00478862
0.00451072
0.00414348
0.00380643
0.00356312
0.00341184
0.00332353
0.00326774
0.0032218
0.00317278
0.00311515
0.00304634
0.00296407
0.00286647
0.00275482
0.00265923
0.00259049
0.00257505
0.00260341
0.00260105
0.00249936
0.00233427
0.00163983
0.00234049
0.00401168
0.00499461
0.00564326
0.00618923
0.00662913
0.00696881
0.00719547
0.00729234
0.00716221
0.00676035
0.00605161
0.00518153
0.00450364
0.00409879
0.0037006
0.00328715
0.00296042
0.00274965
0.00262936
0.00256514
0.00253126
0.00251167
0.00249729
0.00248379
0.00247011
0.00245744
0.00244917
0.00245108
0.00247575
0.00250742
0.00254567
0.00258334
0.00259038
0.00251704
0.00234503
0.00209482
0.00133597
0.00261239
0.00512605
0.00636342
0.00685165
0.00725107
0.00733089
0.00717395
0.00693602
0.00659289
0.00575682
0.00470361
0.00382633
0.00323537
0.00281626
0.00243521
0.00210709
0.00189251
0.00176699
0.00170742
0.0016921
0.001705
0.00173729
0.00178452
0.00184454
0.00191614
0.00199796
0.00208751
0.00217992
0.00228015
0.00238949
0.00250624
0.00262481
0.00272971
0.00280189
0.00278952
0.00281061
0.00270054
0.00135482
0.00224001
0.00235824
0.00245017
0.00253346
0.00227845
0.00201216
0.00178775
0.00163124
0.00150012
0.0013495
0.00118073
0.00101528
0.000859833
0.000729112
0.000640722
0.000592038
0.000571242
0.000568343
0.00057643
0.000591494
0.000610752
0.000633118
0.000658225
0.000685929
0.000716226
0.000749225
0.000785164
0.000824477
0.000867937
0.000916923
0.000971816
0.00103226
0.00109897
0.00117274
0.00125393
0.00135407
0.00138724
0.00135437
0.00126636
0.00117282
)
;

boundaryField
{
    floor
    {
        type            compressible::alphatWallFunction;
        Prt             0.85;
        value           nonuniform List<scalar> 
29
(
0.000180583
6.76728e-05
8.23828e-05
9.11347e-05
8.8893e-05
8.47473e-05
7.99912e-05
7.46667e-05
6.95016e-05
6.47799e-05
6.05277e-05
5.67105e-05
5.3326e-05
5.02962e-05
4.75522e-05
4.50181e-05
4.25749e-05
4.00518e-05
3.96087e-05
3.64138e-05
3.64132e-05
5.72001e-05
6.9853e-05
7.91795e-05
0.000180581
6.7672e-05
7.36691e-05
0.000148149
0.000204525
)
;
    }
    ceiling
    {
        type            compressible::alphatWallFunction;
        Prt             0.85;
        value           nonuniform List<scalar> 
43
(
0.000308086
0.000323255
0.000334997
0.000345699
0.000313173
0.000278766
0.000249382
0.000228649
0.000211109
0.000190742
0.000167609
0.000144557
0.000122497
0.000103578
9.05545e-05
8.3289e-05
8.01634e-05
7.97269e-05
8.09452e-05
8.32086e-05
8.60918e-05
8.94264e-05
9.31523e-05
9.72436e-05
0.000101695
0.000106517
0.000111741
0.000117422
0.000123665
0.000130657
0.000138441
0.000146952
0.000156279
0.000166518
0.000177701
0.000191383
0.00019589
0.000191425
0.000179408
0.000166534
0.000464768
0.000550618
0.000355504
)
;
    }
    sWall
    {
        type            compressible::alphatWallFunction;
        Prt             0.85;
        value           uniform 0.000306859;
    }
    nWall
    {
        type            compressible::alphatWallFunction;
        Prt             0.85;
        value           nonuniform List<scalar> 6(0.000134808 0.000140727 0.000158729 0.000188583 0.000191147 0.0001662);
    }
    sideWalls
    {
        type            empty;
    }
    glass1
    {
        type            compressible::alphatWallFunction;
        Prt             0.85;
        value           nonuniform List<scalar> 9(0.000159274 0.000218819 0.000267647 0.000314314 0.000361285 0.000410283 0.000457058 0.000467779 0.000457977);
    }
    glass2
    {
        type            compressible::alphatWallFunction;
        Prt             0.85;
        value           nonuniform List<scalar> 2(0.00024372 0.000228095);
    }
    sun
    {
        type            compressible::alphatWallFunction;
        Prt             0.85;
        value           nonuniform List<scalar> 
14
(
0.000163418
0.000176524
0.000178654
0.000186288
0.000193189
0.0001995
0.00020552
0.000211631
0.000216418
0.000218921
0.000218277
0.000213797
0.000205266
0.000193504
)
;
    }
    heatsource1
    {
        type            compressible::alphatWallFunction;
        Prt             0.85;
        value           nonuniform List<scalar> 3(0.000100361 0.000120684 0.000135142);
    }
    heatsource2
    {
        type            compressible::alphatWallFunction;
        Prt             0.85;
        value           nonuniform List<scalar> 4(0.000181415 0.000106689 0.000106688 0.000169697);
    }
    Table_master
    {
        type            compressible::alphatWallFunction;
        Prt             0.85;
        value           nonuniform List<scalar> 9(0.000107686 9.64919e-05 8.71804e-05 7.94389e-05 7.29741e-05 6.75382e-05 6.29414e-05 5.90502e-05 5.57858e-05);
    }
    Table_slave
    {
        type            compressible::alphatWallFunction;
        Prt             0.85;
        value           nonuniform List<scalar> 9(0.000121349 0.000113207 0.000107727 0.00010374 0.000100237 9.64664e-05 9.27174e-05 8.85566e-05 8.3409e-05);
    }
    inlet
    {
        type            fixedValue;
        value           uniform 1.94e-05;
    }
    outlet
    {
        type            zeroGradient;
    }
}


// ************************************************************************* //
