// -*- C++ -*-
// File generated by PyFoam - sorry for the ugliness

FoamFile
{
 version 2.0;
 format ascii;
 class volScalarField;
 location "100";
 object T;
}

dimensions [ 0 0 0 1 0 0 0 ];

internalField nonuniform List<scalar> 459
(
  300.785
  300.364
  300.356
  300.366
  300.375
  300.384
  300.391
  300.397
  300.403
  300.407
  300.408
  300.405
  300.399
  300.39
  300.382
  299.908
  299.882
  299.878
  299.862
  299.806
  299.714
  299.642
  299.582
  299.562
  299.565
  299.572
  299.584
  299.604
  299.632
  299.685
  299.802
  299.855
  299.847
  299.851
  301.08
  300.451
  300.407
  300.422
  300.441
  300.458
  300.473
  300.487
  300.497
  300.504
  300.504
  300.494
  300.475
  300.444
  300.402
  300.352
  300.214
  299.941
  299.926
  299.912
  299.904
  299.864
  299.775
  299.594
  299.485
  299.45
  299.454
  299.472
  299.501
  299.541
  299.632
  299.78
  299.957
  299.915
  299.866
  299.851
  301.352
  300.561
  300.476
  300.495
  300.525
  300.553
  300.579
  300.601
  300.618
  300.628
  300.627
  300.611
  300.58
  300.532
  300.469
  300.398
  300.334
  300.059
  300.057
  300.081
  300.12
  300.133
  300.088
  299.646
  299.508
  299.432
  299.453
  299.513
  299.597
  299.694
  299.802
  299.948
  300.099
  299.96
  299.915
  299.904
  301.601
  300.682
  300.552
  300.572
  300.614
  300.657
  300.697
  300.731
  300.758
  300.775
  300.776
  300.758
  300.718
  300.658
  300.579
  300.487
  300.391
  300.319
  300.269
  300.312
  300.362
  300.401
  300.421
  300.431
  300.439
  300.436
  300.432
  300.428
  300.422
  300.417
  300.408
  300.397
  300.381
  300.338
  300.251
  300.172
  300.16
  301.829
  300.811
  300.634
  300.646
  300.701
  300.759
  300.816
  300.868
  300.91
  300.939
  300.947
  300.933
  300.895
  300.837
  300.765
  300.687
  300.612
  300.553
  300.516
  300.51
  300.525
  300.536
  300.538
  300.533
  300.524
  300.513
  300.501
  300.488
  300.477
  300.469
  300.462
  300.455
  300.443
  300.419
  300.375
  300.312
  300.265
  300.252
  300.236
  300.347
  302.025
  300.951
  300.74
  300.721
  300.78
  300.851
  300.924
  300.995
  301.058
  301.103
  301.123
  301.116
  301.083
  301.029
  300.959
  300.881
  300.807
  300.745
  300.702
  300.678
  300.666
  300.658
  300.648
  300.634
  300.616
  300.595
  300.572
  300.55
  300.534
  300.526
  300.525
  300.527
  300.528
  300.527
  300.525
  300.526
  300.52
  300.452
  300.339
  300.332
  302.187
  301.159
  300.948
  300.859
  300.875
  300.94
  301.02
  301.104
  301.189
  301.25
  301.283
  301.288
  301.267
  301.223
  301.159
  301.084
  301.008
  300.94
  300.886
  300.847
  300.82
  300.799
  300.779
  300.757
  300.73
  300.697
  300.661
  300.626
  300.601
  300.593
  300.602
  300.62
  300.642
  300.665
  300.689
  300.711
  300.724
  300.708
  300.581
  300.4
  302.454
  301.663
  301.469
  301.279
  301.152
  301.124
  301.163
  301.232
  301.319
  301.379
  301.415
  301.431
  301.427
  301.401
  301.354
  301.286
  301.214
  301.144
  301.083
  301.034
  300.995
  300.964
  300.935
  300.906
  300.872
  300.83
  300.78
  300.727
  300.685
  300.667
  300.677
  300.707
  300.745
  300.785
  300.822
  300.855
  300.884
  300.908
  300.928
  300.945
  302.824
  302.492
  302.355
  302.107
  301.857
  301.695
  301.607
  301.57
  301.55
  301.546
  301.551
  301.557
  301.556
  301.543
  301.515
  301.47
  301.413
  301.35
  301.289
  301.234
  301.187
  301.147
  301.112
  301.077
  301.04
  300.996
  300.942
  300.878
  300.814
  300.766
  300.74
  300.732
  300.74
  300.76
  300.787
  300.821
  300.862
  300.905
  300.958
  301.104
  303.046
  302.269
  302.028
  301.894
  301.814
  301.768
  301.743
  301.724
  301.71
  301.698
  301.685
  301.67
  301.648
  301.618
  301.578
  301.53
  301.478
  301.427
  301.38
  301.336
  301.296
  301.258
  301.217
  301.173
  301.121
  301.061
  300.994
  300.93
  300.872
  300.827
  300.797
  300.783
  300.782
  300.787
  300.795
  300.808
  300.831
  300.892
  302.819
  302.311
  302.119
  302.01
  301.943
  301.901
  301.874
  301.854
  301.835
  301.817
  301.799
  301.781
  301.759
  301.735
  301.706
  301.672
  301.634
  301.593
  301.552
  301.511
  301.471
  301.431
  301.39
  301.347
  301.299
  301.245
  301.183
  301.116
  301.047
  300.983
  300.928
  300.885
  300.855
  300.836
  300.825
  300.826
  300.841
  300.902
  302.78
  302.749
  302.76
  302.342
  302.19
  302.103
  302.05
  302.013
  301.987
  301.965
  301.946
  301.927
  301.908
  301.889
  301.869
  301.848
  301.827
  301.803
  301.777
  301.749
  301.719
  301.687
  301.652
  301.616
  301.578
  301.538
  301.495
  301.449
  301.398
  301.342
  301.279
  301.211
  301.144
  301.083
  301.031
  300.99
  300.96
  300.935
  300.916
  300.937
)
;

boundaryField
{
  floor
  {
    type wallHeatTransfer;
    Tinf uniform 305.2;
    alphaWall uniform 0.24;
    value nonuniform List<scalar> 29
(
  300.963
  300.894
  300.795
  300.779
  300.888
  301.163
  301.241
  301.244
  301.212
  301.232
  301.261
  301.262
  301.264
  301.277
  301.244
  301.062
  300.844
  300.704
  300.683
  300.757
  300.757
  300.645
  300.631
  300.673
  300.963
  300.894
  300.782
  300.637
  300.798
)
;
  }
  ceiling
  {
    type wallHeatTransfer;
    Tinf uniform 303.2;
    alphaWall uniform 0.24;
    value nonuniform List<scalar> 43
(
  302.801
  302.769
  302.776
  302.376
  302.236
  302.16
  302.115
  302.086
  302.067
  302.053
  302.04
  302.028
  302.016
  302.004
  301.991
  301.977
  301.961
  301.943
  301.922
  301.897
  301.87
  301.84
  301.808
  301.774
  301.739
  301.701
  301.661
  301.616
  301.566
  301.509
  301.445
  301.376
  301.307
  301.245
  301.194
  301.155
  301.129
  301.109
  301.095
  301.127
  302.839
  302.517
  302.831
)
;
  }
  sWall
  {
    type wallHeatTransfer;
    Tinf uniform 315.2;
    alphaWall uniform 0.36;
    value uniform 303.684;
  }
  nWall
  {
    type wallHeatTransfer;
    Tinf uniform 307.2;
    alphaWall uniform 0.36;
    value nonuniform List<scalar> 6
(
  301.308
  301.154
  301.209
  301.511
  301.563
  301.695
)
;
  }
  sideWalls
  {
    type empty;
  }
  glass1
  {
    type wallHeatTransfer;
    Tinf uniform 315.2;
    alphaWall uniform 4.3;
    value nonuniform List<scalar> 9
(
  311.416
  310.004
  309.196
  308.656
  308.288
  308.019
  307.816
  307.924
  308.235
)
;
  }
  glass2
  {
    type wallHeatTransfer;
    Tinf uniform 307.2;
    alphaWall uniform 4.3;
    value nonuniform List<scalar> 2
(
  304.642
  304.564
)
;
  }
  sun
  {
    type wallHeatTransfer;
    Tinf uniform 305.2;
    alphaWall uniform 0.24;
    value nonuniform List<scalar> 14
(
  301.369
  300.994
  301.057
  301.051
  301.04
  301.03
  301.02
  301.011
  301.001
  300.991
  300.982
  300.973
  300.965
  300.96
)
;
  }
  heatsource1
  {
    type fixedGradient;
    gradient uniform 0;
  }
  heatsource2
  {
    type fixedGradient;
    gradient uniform 0;
  }
  Table_master
  {
    type zeroGradient;
  }
  Table_slave
  {
    type zeroGradient;
  }
  inlet
  {
    type fixedValue;
    value uniform 293.15;
  }
  outlet
  {
    type zeroGradient;
  }
} 	// ************************************************************************* //

