/*--------------------------------*- C++ -*----------------------------------*\
  =========                 |
  \\      /  F ield         | OpenFOAM: The Open Source CFD Toolbox
   \\    /   O peration     | Website:  https://openfoam.org
    \\  /    A nd           | Version:  6
     \\/     M anipulation  |
\*---------------------------------------------------------------------------*/
FoamFile
{
    version     2.0;
    format      ascii;
    class       volScalarField;
    location    "1500";
    object      nut;
}
// * * * * * * * * * * * * * * * * * * * * * * * * * * * * * * * * * * * * * //

dimensions      [0 2 -1 0 0 0 0];

internalField   nonuniform List<scalar> 
459
(
0.00106515
0.00116131
0.00118325
0.00123972
0.00129206
0.00134142
0.00139048
0.00143731
0.0014702
0.00148286
0.0014693
0.00142525
0.00134869
0.00124179
0.00111624
0.000464575
0.000554823
0.000627149
0.000633527
0.000615777
0.00058993
0.000553768
0.000516834
0.000483212
0.000453428
0.000427118
0.000403801
0.000383082
0.00036455
0.000347535
0.000331196
0.000314372
0.000303843
0.000278091
0.00145073
0.00344177
0.00325681
0.00377739
0.00428755
0.00479896
0.00524323
0.0055891
0.00591068
0.00617845
0.00635577
0.00640479
0.00627989
0.00587296
0.004729
0.00113653
0.000706249
0.000484468
0.00102265
0.00143496
0.00174828
0.00193434
0.00194482
0.00153608
0.00131957
0.00116625
0.00104933
0.000956989
0.000882189
0.000818709
0.000759498
0.000701973
0.000650814
0.000605567
0.000717759
0.000369655
0.00177174
0.00467024
0.00397377
0.00494869
0.00539606
0.00572101
0.00597478
0.00619859
0.00645902
0.00674178
0.00701368
0.00722417
0.00732746
0.00724695
0.00675954
0.00518569
0.00117102
0.000910887
0.0013297
0.00173643
0.00213234
0.0024278
0.0023996
0.000787216
0.000696251
0.00062237
0.000562403
0.000513392
0.000472968
0.000439381
0.000411503
0.000388852
0.000420452
0.000485484
0.000809938
0.000431579
0.00208043
0.00597552
0.00392449
0.00516909
0.00550593
0.00558582
0.00565279
0.00577957
0.00599831
0.00629264
0.0066314
0.00694285
0.00717774
0.00726973
0.00716834
0.00660848
0.00443168
0.00137047
0.0016453
0.00210363
0.00260739
0.00305816
0.00337088
0.00321262
0.000891363
0.000815721
0.000761916
0.000721025
0.00068605
0.000653239
0.000621572
0.000588089
0.000549004
0.000515424
0.000520625
0.000940303
0.000480576
0.00239532
0.00767797
0.0042437
0.00493026
0.00539277
0.00534192
0.00529491
0.00539174
0.00559709
0.00589777
0.00627189
0.00661431
0.00685473
0.00694875
0.00689716
0.0066752
0.00611005
0.00517824
0.0048649
0.00481958
0.00487362
0.00493685
0.00495023
0.00479999
0.00408343
0.00373779
0.00353795
0.00338224
0.00321593
0.00297718
0.00264575
0.00223823
0.00178328
0.00133054
0.000980981
0.000963138
0.000653531
0.00059389
0.000716139
0.000804294
0.00272981
0.00954534
0.00583639
0.00476816
0.00521393
0.00535576
0.00521327
0.00530467
0.00547496
0.00575357
0.0061172
0.00647384
0.00671272
0.00676738
0.00665284
0.00645435
0.00626732
0.00615104
0.00616747
0.00620334
0.00618544
0.00610371
0.00596076
0.00574416
0.00541303
0.00511411
0.00484786
0.00459183
0.00433207
0.00405496
0.00370521
0.00326584
0.00273584
0.00214741
0.00161843
0.00118794
0.000908639
0.000776125
0.00110374
0.00084129
0.00304373
0.0108938
0.00836512
0.00605328
0.005651
0.00567967
0.00553898
0.00545935
0.00554103
0.00580566
0.00618877
0.00656313
0.00679079
0.00679567
0.00661301
0.00639718
0.00635157
0.00653758
0.00676573
0.00684582
0.0067497
0.00652562
0.00621678
0.00585378
0.00546841
0.00511408
0.00479475
0.00450119
0.00423204
0.003993
0.00378391
0.00350138
0.00309753
0.0025996
0.0021145
0.00166612
0.00135097
0.0012639
0.00129348
0.000967195
0.00311158
0.00988346
0.00857616
0.00760084
0.0070046
0.0063433
0.00578786
0.00555397
0.00565764
0.00601466
0.00647725
0.0068711
0.00704394
0.00694513
0.0066702
0.006463
0.00655893
0.00686437
0.00699664
0.00686347
0.0065382
0.00609462
0.00559805
0.0051116
0.00468524
0.00433544
0.00404828
0.00381218
0.00362659
0.00349682
0.00342887
0.00339897
0.00320605
0.00289737
0.00262525
0.00249992
0.00263138
0.00305073
0.00371094
0.00149997
0.00303655
0.00362578
0.00409579
0.00424396
0.0042569
0.00435548
0.00464016
0.00513856
0.0058065
0.00651254
0.00709044
0.0073956
0.00733227
0.00696661
0.00657842
0.00651627
0.00659178
0.00659892
0.00639927
0.00599432
0.00545928
0.00488035
0.00433998
0.00389194
0.00354721
0.00328583
0.00308204
0.00291819
0.00278252
0.00266463
0.00255465
0.00245037
0.00236728
0.00230583
0.00228419
0.00229461
0.00227609
0.00217482
0.00202477
0.00140222
0.00182833
0.00326024
0.00451405
0.00555905
0.00641051
0.0071771
0.00777603
0.00808009
0.00804666
0.00769428
0.00707699
0.00638204
0.0059631
0.00581447
0.00564817
0.00533378
0.00487625
0.00434226
0.00380292
0.00332697
0.0029563
0.0026884
0.0025005
0.00236882
0.00227654
0.00221348
0.0021735
0.00215322
0.00215399
0.00217665
0.00220752
0.00224302
0.00227473
0.00227697
0.00220928
0.00206033
0.00184519
0.0011494
0.00212835
0.00456211
0.00625276
0.00704913
0.00758831
0.00796376
0.00793762
0.00744153
0.00668046
0.00586583
0.0051837
0.00469309
0.00436605
0.00407052
0.00371189
0.00330542
0.00290146
0.00254917
0.00227632
0.00208254
0.00194899
0.00186025
0.00180987
0.00179012
0.00179513
0.00182082
0.0018635
0.00191844
0.00199078
0.00207746
0.00217558
0.00227816
0.00236904
0.00242929
0.00241038
0.0024221
0.00239154
0.00116904
0.00183047
0.00192764
0.00199956
0.00206918
0.00187735
0.00172548
0.00165301
0.00157914
0.00147144
0.00133823
0.00118653
0.00103631
0.000903667
0.000798746
0.000722986
0.000669568
0.000631109
0.000603412
0.000584845
0.000574723
0.000572198
0.000576153
0.000585603
0.00060005
0.000618454
0.000640571
0.000666506
0.000696558
0.00073132
0.000771912
0.000817707
0.000868869
0.000926012
0.000989693
0.00105969
0.00114402
0.00117042
0.00114026
0.00106761
0.00099011
)
;

boundaryField
{
    floor
    {
        type            nutkWallFunction;
        Cmu             0.09;
        kappa           0.41;
        E               9.8;
        value           nonuniform List<scalar> 
29
(
0.000134314
5.51617e-05
6.66721e-05
7.57295e-05
7.65219e-05
7.43141e-05
7.10854e-05
6.65389e-05
6.18576e-05
5.75599e-05
5.37217e-05
5.03048e-05
4.72543e-05
4.45248e-05
4.20675e-05
3.9797e-05
3.76032e-05
3.53295e-05
3.38984e-05
3.03699e-05
3.03698e-05
4.27454e-05
5.08853e-05
5.72207e-05
0.000134314
5.51617e-05
5.77209e-05
0.000110182
0.000163504
)
;
    }
    ceiling
    {
        type            nutkWallFunction;
        Cmu             0.09;
        kappa           0.41;
        E               9.8;
        value           nonuniform List<scalar> 
43
(
0.000214726
0.00022537
0.000233213
0.000240868
0.000219982
0.000203267
0.000195236
0.000187004
0.000174922
0.000159839
0.000142454
0.000124988
0.000109323
9.67437e-05
8.75401e-05
8.09819e-05
7.62216e-05
7.27718e-05
7.04485e-05
6.9178e-05
6.88607e-05
6.93576e-05
7.05434e-05
7.23517e-05
7.46475e-05
7.73959e-05
8.06041e-05
8.43029e-05
8.85578e-05
9.3496e-05
9.90308e-05
0.000105171
0.00011198
0.000119511
0.000127725
0.000137541
0.000140596
0.000137104
0.000128652
0.000119561
0.000343935
0.000404841
0.000247075
)
;
    }
    sWall
    {
        type            nutkWallFunction;
        Cmu             0.09;
        kappa           0.41;
        E               9.8;
        value           uniform 0.000214786;
    }
    nWall
    {
        type            nutkWallFunction;
        Cmu             0.09;
        kappa           0.41;
        E               9.8;
        value           nonuniform List<scalar> 6(9.74143e-05 0.000101868 0.000116861 0.000138174 0.000140447 0.000119567);
    }
    sideWalls
    {
        type            empty;
    }
    glass1
    {
        type            nutkWallFunction;
        Cmu             0.09;
        kappa           0.41;
        E               9.8;
        value           nonuniform List<scalar> 9(0.000128462 0.000172806 0.000208704 0.000242555 0.000276532 0.000312109 0.000345087 0.000352176 0.000344363);
    }
    glass2
    {
        type            nutkWallFunction;
        Cmu             0.09;
        kappa           0.41;
        E               9.8;
        value           nonuniform List<scalar> 2(0.000178214 0.000167177);
    }
    sun
    {
        type            nutkWallFunction;
        Cmu             0.09;
        kappa           0.41;
        E               9.8;
        value           nonuniform List<scalar> 
14
(
0.000128365
0.00013954
0.000142075
0.000148576
0.000154572
0.000160203
0.000165775
0.000171075
0.000174784
0.00017621
0.000174683
0.000169711
0.000161029
0.000148812
)
;
    }
    heatsource1
    {
        type            nutkWallFunction;
        Cmu             0.09;
        kappa           0.41;
        E               9.8;
        value           nonuniform List<scalar> 3(7.15829e-05 8.67031e-05 9.74135e-05);
    }
    heatsource2
    {
        type            nutkWallFunction;
        Cmu             0.09;
        kappa           0.41;
        E               9.8;
        value           nonuniform List<scalar> 4(0.000136665 8.5493e-05 8.5493e-05 0.000140658);
    }
    Table_master
    {
        type            nutkWallFunction;
        Cmu             0.09;
        kappa           0.41;
        E               9.8;
        value           nonuniform List<scalar> 9(9.53498e-05 8.42664e-05 7.51374e-05 6.76314e-05 6.1424e-05 5.62492e-05 5.19076e-05 4.82724e-05 4.52958e-05);
    }
    Table_slave
    {
        type            nutkWallFunction;
        Cmu             0.09;
        kappa           0.41;
        E               9.8;
        value           nonuniform List<scalar> 9(0.000107856 9.87911e-05 9.22832e-05 8.73009e-05 8.30128e-05 7.89662e-05 7.50376e-05 7.08571e-05 6.59404e-05);
    }
    inlet
    {
        type            calculated;
        value           uniform 0.000100623;
    }
    outlet
    {
        type            calculated;
        value           nonuniform List<scalar> 2(0.00183047 0.00192764);
    }
}


// ************************************************************************* //
