/*--------------------------------*- C++ -*----------------------------------*\
  =========                 |
  \\      /  F ield         | OpenFOAM: The Open Source CFD Toolbox
   \\    /   O peration     | Website:  https://openfoam.org
    \\  /    A nd           | Version:  6
     \\/     M anipulation  |
\*---------------------------------------------------------------------------*/
FoamFile
{
    version     2.0;
    format      ascii;
    class       volVectorField;
    location    "1500";
    object      U;
}
// * * * * * * * * * * * * * * * * * * * * * * * * * * * * * * * * * * * * * //

dimensions      [0 1 -1 0 0 0 0];

internalField   nonuniform List<vector> 
459
(
(0.0341609 0.0858937 0)
(-0.167099 0.0254953 0)
(-0.191866 0.0178439 0)
(-0.22287 0.012138 0)
(-0.2453 0.00584495 0)
(-0.258058 -0.000850322 0)
(-0.259452 -0.00801695 0)
(-0.248216 -0.0156799 0)
(-0.224944 -0.0231384 0)
(-0.191544 -0.0290595 0)
(-0.151755 -0.032341 0)
(-0.109986 -0.0324446 0)
(-0.070486 -0.0295251 0)
(-0.0384209 -0.0247198 0)
(-0.0276868 -0.019877 0)
(-0.00647458 0.00893874 0)
(-0.0292112 -0.0166601 0)
(-0.00756306 -0.0265777 0)
(0.0161312 -0.0205839 0)
(0.0317359 -0.0141803 0)
(0.0445979 -0.00923304 0)
(0.0527412 -0.00538159 0)
(0.0569944 -0.00335472 0)
(0.0589179 -0.00254235 0)
(0.0598722 -0.00219261 0)
(0.060468 -0.0019751 0)
(0.0608082 -0.00179855 0)
(0.0608335 -0.00158547 0)
(0.0603573 -0.00116858 0)
(0.058853 -0.000181723 0)
(0.0551886 0.00188409 0)
(0.0481249 0.00408615 0)
(0.041637 0.00589031 0)
(-0.01296 0.0204085 0)
(0.208675 0.175987 0)
(-0.156271 0.0674598 0)
(-0.154758 0.0530451 0)
(-0.186914 0.0412021 0)
(-0.209202 0.0277593 0)
(-0.222268 0.0125959 0)
(-0.224377 -0.00460835 0)
(-0.214101 -0.0232553 0)
(-0.192637 -0.0407347 0)
(-0.162309 -0.0539424 0)
(-0.126988 -0.0607563 0)
(-0.0907554 -0.0605485 0)
(-0.057173 -0.0539234 0)
(-0.0296583 -0.0425097 0)
(-0.0121856 -0.0288185 0)
(0.00167012 -0.0108187 0)
(0.000348883 0.0156725 0)
(0.0608173 0.0364796 0)
(0.024595 -0.0180859 0)
(0.0332617 -0.0314604 0)
(0.0444567 -0.0280997 0)
(0.0534758 -0.0203228 0)
(0.0601434 -0.012806 0)
(0.0630605 -0.00547685 0)
(0.063635 -0.00125923 0)
(0.0635892 0.000496981 0)
(0.0636997 0.00126941 0)
(0.0639078 0.00174105 0)
(0.0640608 0.00212925 0)
(0.0641163 0.00260283 0)
(0.0640294 0.00347433 0)
(0.0632952 0.0056085 0)
(0.0596039 0.0115338 0)
(0.0502372 0.0165016 0)
(0.0457079 0.019864 0)
(-0.0491822 0.0442644 0)
(0.368833 0.263381 0)
(-0.173145 0.107478 0)
(-0.116235 0.0858654 0)
(-0.147609 0.0647363 0)
(-0.167506 0.0425887 0)
(-0.179737 0.0179507 0)
(-0.181552 -0.0100301 0)
(-0.170628 -0.0398913 0)
(-0.149437 -0.0669726 0)
(-0.121214 -0.0862231 0)
(-0.0900325 -0.0949563 0)
(-0.0593918 -0.0930976 0)
(-0.0315716 -0.082072 0)
(-0.00864662 -0.0641434 0)
(0.00841515 -0.0406441 0)
(0.0195894 -0.0142267 0)
(0.023812 0.0230097 0)
(0.110187 -0.0266977 0)
(0.074473 -0.037664 0)
(0.0690668 -0.0384128 0)
(0.070606 -0.0330678 0)
(0.072003 -0.0251583 0)
(0.0733718 -0.0182106 0)
(0.072149 -0.0145505 0)
(0.0674501 -0.0102578 0)
(0.0640222 -0.00791086 0)
(0.0624715 -0.00656589 0)
(0.0618079 -0.00570097 0)
(0.061466 -0.00510117 0)
(0.0614318 -0.00457411 0)
(0.0621462 -0.00374863 0)
(0.0647234 -0.000675015 0)
(0.0627203 0.0161231 0)
(0.0497206 0.0278238 0)
(0.0519526 0.0357602 0)
(-0.0811947 0.0690766 0)
(0.513421 0.333691 0)
(-0.207906 0.142969 0)
(-0.0753179 0.113841 0)
(-0.10538 0.0848289 0)
(-0.119859 0.0564325 0)
(-0.128922 0.0240982 0)
(-0.127793 -0.014514 0)
(-0.113822 -0.0561828 0)
(-0.0922593 -0.0921123 0)
(-0.0671081 -0.115747 0)
(-0.0418704 -0.124879 0)
(-0.0189097 -0.120798 0)
(0.0015433 -0.105631 0)
(0.0183848 -0.0828847 0)
(0.0326811 -0.0560635 0)
(0.0479687 -0.0270164 0)
(0.0695615 0.00482579 0)
(0.100332 0.0162246 0)
(0.105474 -0.0227745 0)
(0.0918355 -0.0335137 0)
(0.0828683 -0.032852 0)
(0.0777835 -0.0287665 0)
(0.0739694 -0.0227196 0)
(0.0713981 -0.0150227 0)
(0.0726182 -0.00909124 0)
(0.0775705 -0.00679919 0)
(0.0817748 -0.00552795 0)
(0.0845451 -0.00462747 0)
(0.0862259 -0.00362367 0)
(0.0863777 -0.00222092 0)
(0.0838938 -0.000164235 0)
(0.0775207 0.00285307 0)
(0.0647435 0.00736294 0)
(0.0525374 0.0266581 0)
(0.0404708 0.04296 0)
(0.0560111 0.0558863 0)
(-0.114631 0.0913029 0)
(0.638614 0.388155 0)
(-0.250461 0.171951 0)
(-0.0345787 0.130016 0)
(-0.0611607 0.0963557 0)
(-0.067623 0.0644976 0)
(-0.070697 0.0270604 0)
(-0.0608066 -0.021254 0)
(-0.0416299 -0.0738021 0)
(-0.0210777 -0.114982 0)
(-0.00182215 -0.139203 0)
(0.0144206 -0.145737 0)
(0.0268383 -0.13801 0)
(0.0365804 -0.120189 0)
(0.0444444 -0.0958233 0)
(0.0517304 -0.0684238 0)
(0.0604154 -0.0417779 0)
(0.0732331 -0.022173 0)
(0.0839416 -0.0212813 0)
(0.085075 -0.0290236 0)
(0.0786992 -0.0298596 0)
(0.0704899 -0.026964 0)
(0.0637177 -0.0230938 0)
(0.0585892 -0.0185054 0)
(0.0554594 -0.0131024 0)
(0.0552083 -0.00730929 0)
(0.0575201 -0.00449123 0)
(0.0602076 -0.00347004 0)
(0.0627646 -0.00268047 0)
(0.0651004 -0.00109149 0)
(0.0668671 0.00189248 0)
(0.0668517 0.00638312 0)
(0.0644518 0.0125444 0)
(0.0590722 0.0210214 0)
(0.0522374 0.0361759 0)
(0.0421916 0.054173 0)
(0.0643851 0.0742881 0)
(-0.0215211 0.103413 0)
(0.0464702 0.0323973 0)
(-0.0619344 -0.0344062 0)
(-0.272496 -0.0570681 0)
(0.729697 0.433565 0)
(-0.292019 0.191462 0)
(-0.00337405 0.1266 0)
(-0.0160164 0.0976145 0)
(-0.0119222 0.0669298 0)
(-0.00632054 0.024055 0)
(0.0222976 -0.0384012 0)
(0.0441154 -0.0941328 0)
(0.0596383 -0.132336 0)
(0.0690395 -0.151736 0)
(0.0729826 -0.154282 0)
(0.0728704 -0.143545 0)
(0.0702086 -0.123553 0)
(0.0665026 -0.0982914 0)
(0.0632405 -0.071426 0)
(0.0618339 -0.0466231 0)
(0.0631361 -0.0281567 0)
(0.064 -0.0208493 0)
(0.0607468 -0.0204883 0)
(0.0537663 -0.0205956 0)
(0.045863 -0.0191675 0)
(0.0392382 -0.0169039 0)
(0.0344279 -0.0141608 0)
(0.0317237 -0.0110024 0)
(0.0313831 -0.00804856 0)
(0.0330475 -0.00689248 0)
(0.0356639 -0.00674297 0)
(0.0387756 -0.00635923 0)
(0.0421955 -0.00473029 0)
(0.0456686 -0.000975342 0)
(0.0488029 0.00522446 0)
(0.0504427 0.0135244 0)
(0.0508568 0.0240965 0)
(0.0514016 0.038473 0)
(0.0502735 0.0561821 0)
(0.0728258 0.0789312 0)
(0.0525086 0.0968529 0)
(0.0933259 0.0677867 0)
(0.116211 0.0446462 0)
(-0.128815 -0.00692425 0)
(0.781748 0.474839 0)
(-0.31294 0.176933 0)
(0.0234775 0.0771442 0)
(0.0426328 0.0738516 0)
(0.0577713 0.0523411 0)
(0.0843555 0.00127152 0)
(0.118501 -0.0627892 0)
(0.137785 -0.111585 0)
(0.144194 -0.141093 0)
(0.140414 -0.152735 0)
(0.129187 -0.149469 0)
(0.113429 -0.135037 0)
(0.0957144 -0.113306 0)
(0.0782834 -0.0881718 0)
(0.0628217 -0.0628454 0)
(0.0505768 -0.0404395 0)
(0.0419893 -0.0240676 0)
(0.0355234 -0.015837 0)
(0.0290069 -0.0135212 0)
(0.0219447 -0.0131732 0)
(0.0152653 -0.0126347 0)
(0.00989179 -0.0117896 0)
(0.00613695 -0.0107816 0)
(0.00417389 -0.00968406 0)
(0.00408056 -0.00891523 0)
(0.00549319 -0.00910244 0)
(0.00776684 -0.00974255 0)
(0.0106242 -0.00997313 0)
(0.0140955 -0.00891792 0)
(0.0183043 -0.00556384 0)
(0.0241724 0.00109734 0)
(0.0301151 0.0102014 0)
(0.0357303 0.0208929 0)
(0.0428596 0.0336951 0)
(0.0506356 0.0483039 0)
(0.0727346 0.0666838 0)
(0.0860274 0.0743266 0)
(0.118409 0.0517643 0)
(0.158063 0.0439857 0)
(-0.0349207 0.0940437 0)
(0.886431 0.477504 0)
(-0.0705472 0.156562 0)
(0.106078 0.003872 0)
(0.169238 -0.0165054 0)
(0.182253 -0.0353058 0)
(0.217793 -0.0693351 0)
(0.239597 -0.102052 0)
(0.24212 -0.125427 0)
(0.228144 -0.136955 0)
(0.202605 -0.136855 0)
(0.170367 -0.126888 0)
(0.135655 -0.109682 0)
(0.101509 -0.0879156 0)
(0.0704225 -0.0648459 0)
(0.0438561 -0.0428939 0)
(0.0231836 -0.0246545 0)
(0.00885662 -0.0126508 0)
(-0.000470893 -0.00732632 0)
(-0.0070675 -0.00641957 0)
(-0.0125932 -0.0069587 0)
(-0.0173211 -0.00756693 0)
(-0.0210795 -0.00805933 0)
(-0.0237904 -0.00849328 0)
(-0.0254047 -0.00896448 0)
(-0.0259686 -0.00968247 0)
(-0.0257875 -0.0107964 0)
(-0.0252441 -0.0120369 0)
(-0.0244692 -0.0129584 0)
(-0.0233165 -0.0130645 0)
(-0.0214001 -0.011769 0)
(-0.0177571 -0.00832402 0)
(-0.00900349 -0.00199845 0)
(-0.000301391 0.00629768 0)
(0.0102826 0.0145835 0)
(0.0219287 0.0216478 0)
(0.041625 0.0289229 0)
(0.0601014 0.0218967 0)
(0.0795037 -0.0054129 0)
(0.138335 0.040467 0)
(-0.413527 0.206882 0)
(1.03157 0.429899 0)
(0.496714 0.285029 0)
(0.502981 0.191374 0)
(0.511503 0.119953 0)
(0.48682 0.0684963 0)
(0.444063 0.0151734 0)
(0.394109 -0.0330401 0)
(0.340641 -0.0671807 0)
(0.283374 -0.0847635 0)
(0.224728 -0.0878221 0)
(0.168003 -0.0803871 0)
(0.115965 -0.0664647 0)
(0.0696322 -0.0487938 0)
(0.0309064 -0.030796 0)
(-0.00063637 -0.0146922 0)
(-0.0213968 -0.00474455 0)
(-0.0324831 -0.00102653 0)
(-0.0386218 -0.000547743 0)
(-0.042632 -0.00153434 0)
(-0.0461254 -0.00288845 0)
(-0.0493143 -0.00420458 0)
(-0.0522123 -0.00542517 0)
(-0.054803 -0.006587 0)
(-0.0571099 -0.00774449 0)
(-0.0592548 -0.00896341 0)
(-0.0615091 -0.0102234 0)
(-0.0642062 -0.0113081 0)
(-0.0676477 -0.0118455 0)
(-0.0721605 -0.0113118 0)
(-0.0782034 -0.0090134 0)
(-0.0863764 -0.00413099 0)
(-0.0966975 0.00394198 0)
(-0.107221 0.0147315 0)
(-0.122527 0.0284256 0)
(-0.146624 0.0450789 0)
(-0.182043 0.0634852 0)
(-0.232069 0.0795858 0)
(-0.289006 0.0907742 0)
(-0.357635 0.0970567 0)
(-0.619789 0.0991428 0)
(-0.148235 0.0828369 0)
(0.134771 0.0618171 0)
(0.21806 0.00611433 0)
(0.201573 -0.0287249 0)
(0.18585 -0.0430565 0)
(0.163327 -0.0477185 0)
(0.130842 -0.0460728 0)
(0.0922899 -0.0396603 0)
(0.052426 -0.0299089 0)
(0.0144815 -0.0176808 0)
(-0.0227989 -0.00394065 0)
(-0.0465261 0.00369658 0)
(-0.0610112 0.00708452 0)
(-0.0680846 0.00748304 0)
(-0.071537 0.00667035 0)
(-0.0738103 0.00565015 0)
(-0.0757597 0.00464717 0)
(-0.077713 0.00372232 0)
(-0.0799755 0.00281327 0)
(-0.0825694 0.00180573 0)
(-0.0854266 0.000734983 0)
(-0.0885721 -0.000341434 0)
(-0.0920752 -0.00134093 0)
(-0.0960264 -0.00210471 0)
(-0.100501 -0.00238627 0)
(-0.105503 -0.00187464 0)
(-0.110943 -0.000218736 0)
(-0.116612 0.00293877 0)
(-0.121907 0.00804306 0)
(-0.126079 0.0158505 0)
(-0.129548 0.0274737 0)
(-0.132568 0.0433012 0)
(-0.135937 0.0624476 0)
(-0.140159 0.0812524 0)
(-0.14204 0.0898387 0)
(-0.124754 0.0674065 0)
(-0.0810604 -0.0256435 0)
(-0.278716 -0.203441 0)
(-0.0234695 0.23096 0)
(0.063605 0.0995408 0)
(0.0376124 0.0190175 0)
(0.0254439 -0.00438373 0)
(0.0161397 -0.00974619 0)
(-0.00246539 -0.0111316 0)
(-0.0274089 -0.00865259 0)
(-0.0530963 -0.00405853 0)
(-0.0748585 0.000457412 0)
(-0.0898545 0.00347321 0)
(-0.0970903 0.00373838 0)
(-0.0996528 0.00149431 0)
(-0.100034 -0.00150291 0)
(-0.0994668 -0.00490161 0)
(-0.0990402 -0.00837487 0)
(-0.09916 -0.0116758 0)
(-0.0998542 -0.0146747 0)
(-0.10102 -0.0171577 0)
(-0.102507 -0.0189575 0)
(-0.104232 -0.0200521 0)
(-0.10622 -0.0205272 0)
(-0.108438 -0.0203991 0)
(-0.110886 -0.0199237 0)
(-0.113542 -0.0191402 0)
(-0.116301 -0.0179417 0)
(-0.118941 -0.0160993 0)
(-0.121103 -0.0132377 0)
(-0.122285 -0.0087843 0)
(-0.121962 -0.0025504 0)
(-0.11916 0.0060057 0)
(-0.112439 0.0177523 0)
(-0.100521 0.0334493 0)
(-0.0831148 0.0526628 0)
(-0.0610961 0.0712952 0)
(-0.0373173 0.082218 0)
(0.00272496 0.0665855 0)
(0.143115 -0.00455743 0)
(-0.207331 -0.114209 0)
(-0.103504 -0.348702 0)
(-0.439232 -0.120285 0)
(-0.310729 0.0957188 0)
(-0.22643 -0.0201949 0)
(-0.179991 -0.0413562 0)
(-0.165532 -0.0292133 0)
(-0.163101 -0.0162688 0)
(-0.164389 -0.00595806 0)
(-0.164926 0.00265693 0)
(-0.16266 0.0101867 0)
(-0.157952 0.0170892 0)
(-0.15092 0.0233611 0)
(-0.142498 0.0287405 0)
(-0.134119 0.0332402 0)
(-0.126642 0.0374365 0)
(-0.120396 0.041554 0)
(-0.11539 0.0456816 0)
(-0.111453 0.049629 0)
(-0.108436 0.053024 0)
(-0.106244 0.0555048 0)
(-0.104794 0.0568451 0)
(-0.104012 0.0570105 0)
(-0.103842 0.0561111 0)
(-0.104222 0.0542682 0)
(-0.105072 0.0519501 0)
(-0.106291 0.0493707 0)
(-0.107715 0.0466566 0)
(-0.10908 0.0439085 0)
(-0.109963 0.0412002 0)
(-0.109688 0.0386001 0)
(-0.107009 0.0369729 0)
(-0.100056 0.0369888 0)
(-0.0863725 0.039407 0)
(-0.0641022 0.0451249 0)
(-0.0338488 0.0546471 0)
(0.0144801 0.0676194 0)
(0.0590919 0.0688788 0)
(0.101614 0.0542487 0)
(0.163797 0.0252184 0)
(-0.219079 -0.0296167 0)
)
;

boundaryField
{
    floor
    {
        type            noSlip;
    }
    ceiling
    {
        type            noSlip;
    }
    sWall
    {
        type            noSlip;
    }
    nWall
    {
        type            noSlip;
    }
    sideWalls
    {
        type            empty;
    }
    glass1
    {
        type            noSlip;
    }
    glass2
    {
        type            noSlip;
    }
    sun
    {
        type            noSlip;
    }
    heatsource1
    {
        type            noSlip;
    }
    heatsource2
    {
        type            noSlip;
    }
    Table_master
    {
        type            noSlip;
    }
    Table_slave
    {
        type            noSlip;
    }
    inlet
    {
        type            fixedValue;
        value           uniform (0.3 0 0);
    }
    outlet
    {
        type            zeroGradient;
    }
}


// ************************************************************************* //
