/*--------------------------------*- C++ -*----------------------------------*\
  =========                 |
  \\      /  F ield         | OpenFOAM: The Open Source CFD Toolbox
   \\    /   O peration     | Website:  https://openfoam.org
    \\  /    A nd           | Version:  6
     \\/     M anipulation  |
\*---------------------------------------------------------------------------*/
FoamFile
{
    version     2.0;
    format      ascii;
    class       volScalarField;
    location    "300";
    object      epsilon;
}
// * * * * * * * * * * * * * * * * * * * * * * * * * * * * * * * * * * * * * //

dimensions      [0 2 -3 0 0 0 0];

internalField   nonuniform List<scalar> 
459
(
0.000122268
0.000130561
7.97654e-05
8.57173e-05
9.55812e-05
0.000106639
0.000118822
0.000132416
0.000147851
0.00016305
0.000176637
0.000186616
0.000190438
0.000185165
0.000166367
6.1731e-06
5.89112e-06
4.61875e-06
4.49888e-06
4.52482e-06
4.60433e-06
4.88379e-06
5.60769e-06
6.84239e-06
8.76444e-06
1.16868e-05
1.60277e-05
2.18137e-05
2.98101e-05
4.06555e-05
5.25693e-05
5.42308e-05
4.29472e-05
2.68156e-05
0.000738913
0.00169953
0.000156259
6.67987e-05
6.61385e-05
7.218e-05
7.9643e-05
8.83206e-05
9.85858e-05
0.000109962
0.000122196
0.000134588
0.000145306
0.000150992
0.000152681
0.00019703
6.64691e-05
1.60491e-05
2.67705e-05
6.45477e-06
5.07448e-06
5.61269e-06
5.09736e-06
3.90265e-06
5.10613e-06
7.1385e-06
1.01329e-05
1.45306e-05
2.10283e-05
3.05722e-05
4.41811e-05
6.06332e-05
6.63934e-05
6.5443e-05
6.76621e-05
5.70936e-05
0.00202309
0.00590723
0.000526288
0.000100881
7.51636e-05
7.89375e-05
8.71066e-05
9.70496e-05
0.000108564
0.00012149
0.000135254
0.000148996
0.000160844
0.000167611
0.000167458
0.000168823
0.000202277
4.73321e-05
7.78104e-05
3.05855e-05
2.78983e-05
3.0939e-05
3.14996e-05
5.89332e-06
8.27109e-06
1.2744e-05
1.90364e-05
2.79928e-05
4.15469e-05
6.32144e-05
9.8965e-05
0.000160436
0.000116354
0.000124072
0.000144946
0.000204454
0.00409442
0.012878
0.00148107
0.000198442
0.000100647
9.66225e-05
0.000105024
0.000116816
0.000130487
0.000145788
0.000161594
0.000176888
0.000189649
0.000196633
0.000195549
0.000190874
0.000200721
0.000256172
0.000123554
8.45898e-05
8.22033e-05
9.33586e-05
0.000109894
0.00013786
0.000189267
0.000191103
0.000191281
0.000190254
0.000190151
0.000194314
0.000208012
0.00024015
0.000308153
0.000180449
0.000209682
0.000263137
0.00044485
0.00689784
0.0214082
0.00342908
0.000496257
0.000177209
0.000138477
0.000140197
0.000151905
0.000167807
0.000186471
0.000206139
0.000226353
0.000245226
0.000258224
0.000258925
0.000242803
0.000212743
0.000174502
0.000123017
0.000101296
0.000100528
0.000107551
0.000117383
0.000127395
0.000134854
0.000137932
0.000140214
0.000142789
0.000146974
0.000154634
0.000168149
0.000189868
0.00022046
0.00025491
0.000312162
0.000384568
0.00046453
0.000677033
0.00048637
0.000319418
0.0103831
0.0283948
0.00686043
0.00153057
0.000528247
0.000296327
0.000242378
0.000233124
0.000239654
0.00025293
0.00026978
0.000291621
0.000318066
0.000344649
0.00036258
0.000360993
0.000332246
0.000279485
0.000219304
0.000180046
0.00016491
0.000164797
0.00017147
0.000178856
0.000184594
0.000188127
0.000190544
0.000192578
0.000195217
0.000200276
0.000210896
0.000231821
0.000268888
0.00032742
0.000411446
0.000516251
0.000616111
0.000677563
0.000557193
0.000340819
0.0140651
0.030647
0.0125296
0.00495406
0.0022671
0.00108312
0.000673555
0.000508678
0.000432434
0.000392301
0.000372609
0.00037198
0.000389494
0.000420332
0.000454111
0.000475342
0.000468408
0.000428997
0.000369658
0.000314025
0.000279468
0.000264362
0.000260237
0.00026172
0.000265103
0.000268562
0.000271741
0.000274558
0.000277253
0.000280937
0.000288565
0.00030623
0.000343689
0.000411964
0.000517905
0.000657629
0.000807706
0.000923414
0.000913787
0.00037596
0.0142202
0.0325297
0.0209665
0.0150852
0.00869985
0.00461951
0.00255423
0.00154549
0.00102182
0.000745599
0.000593149
0.000510815
0.000478376
0.000484307
0.000516311
0.000556248
0.000576419
0.000564237
0.000523447
0.000472793
0.000429724
0.000400301
0.00038321
0.00037519
0.000372669
0.000373185
0.000375438
0.000378619
0.000382303
0.000386835
0.000394289
0.000410169
0.000445863
0.000520449
0.000655036
0.000855808
0.00111828
0.00146233
0.00189527
0.00148691
0.0123193
0.0189989
0.0578774
0.0417883
0.0226065
0.0118097
0.00633133
0.00358854
0.00218414
0.00142428
0.000997924
0.000761419
0.000638854
0.000590488
0.000592209
0.000622783
0.00065723
0.000674918
0.000667224
0.000640895
0.000608486
0.000578688
0.000555095
0.000538303
0.000527279
0.000520601
0.000517123
0.000515874
0.000516004
0.000517021
0.000519436
0.000525782
0.0005416
0.000575831
0.000641126
0.000750061
0.000901601
0.00113254
0.00274444
0.00177765
0.176916
0.151623
0.0287039
0.0119914
0.00639719
0.00381314
0.00247369
0.00173279
0.00130512
0.00105121
0.000903435
0.000826211
0.000798122
0.000805022
0.00083279
0.000865376
0.000888518
0.000895614
0.000888318
0.000871895
0.00085144
0.000830608
0.000811274
0.000794042
0.000779273
0.000766935
0.000756523
0.000747159
0.000737868
0.000728015
0.000717651
0.000707698
0.000700456
0.000700631
0.000716547
0.00080499
0.00137272
0.00154189
0.115295
0.079331
0.0265511
0.0117217
0.00639158
0.00403479
0.0028505
0.002211
0.00185688
0.00166721
0.00157749
0.00154925
0.00155868
0.00158871
0.00162448
0.00165237
0.00166315
0.00165488
0.00163129
0.0015981
0.00156054
0.00152252
0.00148563
0.00144988
0.00141543
0.001382
0.00134847
0.00131291
0.00127304
0.00122699
0.00117432
0.00111739
0.0010625
0.00101892
0.000997037
0.00102427
0.00196866
0.0013021
0.00148759
0.00426678
0.0405509
0.0303737
0.0175993
0.0104018
0.00658224
0.0044589
0.0032058
0.00242908
0.0019321
0.00161034
0.00140446
0.0012783
0.00120806
0.00117737
0.00117369
0.00118595
0.00120383
0.00121873
0.00122533
0.00122182
0.00120902
0.00118909
0.00116621
0.00114272
0.00111915
0.00109607
0.00107378
0.00105209
0.0010301
0.0010062
0.000978133
0.000943361
0.000899607
0.000845272
0.000779301
0.000703754
0.000709507
0.000505763
)
;

boundaryField
{
    floor
    {
        Cmu             0.09;
        kappa           0.41;
        E               9.8;
        type            epsilonWallFunction;
        value           nonuniform List<scalar> 
29
(
0.000166367
6.1731e-06
5.89112e-06
4.61875e-06
4.49888e-06
4.52482e-06
4.60433e-06
4.88379e-06
5.60769e-06
6.84239e-06
8.76444e-06
1.16868e-05
1.60277e-05
2.18137e-05
2.98101e-05
4.06555e-05
5.25693e-05
5.42308e-05
4.29472e-05
2.68156e-05
2.68156e-05
5.70936e-05
0.000204454
0.00044485
0.000166367
6.1731e-06
1.60491e-05
4.73321e-05
0.000256172
)
;
    }
    ceiling
    {
        Cmu             0.09;
        kappa           0.41;
        E               9.8;
        type            epsilonWallFunction;
        value           nonuniform List<scalar> 
43
(
0.00148759
0.00426678
0.0405509
0.0303737
0.0175993
0.0104018
0.00658224
0.0044589
0.0032058
0.00242908
0.0019321
0.00161034
0.00140446
0.0012783
0.00120806
0.00117737
0.00117369
0.00118595
0.00120383
0.00121873
0.00122533
0.00122182
0.00120902
0.00118909
0.00116621
0.00114272
0.00111915
0.00109607
0.00107378
0.00105209
0.0010301
0.0010062
0.000978133
0.000943361
0.000899607
0.000845272
0.000779301
0.000703754
0.000709507
0.000505763
0.0123193
0.0189989
0.115295
)
;
    }
    sWall
    {
        Cmu             0.09;
        kappa           0.41;
        E               9.8;
        type            epsilonWallFunction;
        value           uniform 0.00148759;
    }
    nWall
    {
        Cmu             0.09;
        kappa           0.41;
        E               9.8;
        type            epsilonWallFunction;
        value           nonuniform List<scalar> 6(0.000319418 0.000340819 0.00037596 0.00154189 0.0013021 0.000505763);
    }
    sideWalls
    {
        type            empty;
    }
    glass1
    {
        Cmu             0.09;
        kappa           0.41;
        E               9.8;
        type            epsilonWallFunction;
        value           nonuniform List<scalar> 9(0.000122268 0.000738913 0.00202309 0.00409442 0.00689784 0.0103831 0.0140651 0.0142202 0.0123193);
    }
    glass2
    {
        Cmu             0.09;
        kappa           0.41;
        E               9.8;
        type            epsilonWallFunction;
        value           nonuniform List<scalar> 2(0.00148691 0.00177765);
    }
    sun
    {
        Cmu             0.09;
        kappa           0.41;
        E               9.8;
        type            epsilonWallFunction;
        value           nonuniform List<scalar> 
14
(
0.000122268
0.000130561
7.97654e-05
8.57173e-05
9.55812e-05
0.000106639
0.000118822
0.000132416
0.000147851
0.00016305
0.000176637
0.000186616
0.000190438
0.000185165
)
;
    }
    heatsource1
    {
        Cmu             0.09;
        kappa           0.41;
        E               9.8;
        type            epsilonWallFunction;
        value           nonuniform List<scalar> 3(0.000677033 0.00048637 0.000319418);
    }
    heatsource2
    {
        Cmu             0.09;
        kappa           0.41;
        E               9.8;
        type            epsilonWallFunction;
        value           nonuniform List<scalar> 4(0.00019703 6.64691e-05 6.64691e-05 0.000202277);
    }
    Table_master
    {
        Cmu             0.09;
        kappa           0.41;
        E               9.8;
        type            epsilonWallFunction;
        value           nonuniform List<scalar> 9(5.89332e-06 8.27109e-06 1.2744e-05 1.90364e-05 2.79928e-05 4.15469e-05 6.32144e-05 9.8965e-05 0.000160436);
    }
    Table_slave
    {
        Cmu             0.09;
        kappa           0.41;
        E               9.8;
        type            epsilonWallFunction;
        value           nonuniform List<scalar> 9(0.000189267 0.000191103 0.000191281 0.000190254 0.000190151 0.000194314 0.000208012 0.00024015 0.000308153);
    }
    inlet
    {
        type            turbulentMixingLengthDissipationRateInlet;
        mixingLength    0.01;
        phi             phi;
        k               k;
        value           uniform 0.176916;
    }
    outlet
    {
        type            zeroGradient;
    }
}


// ************************************************************************* //
