// -*- C++ -*-
// File generated by PyFoam - sorry for the ugliness

FoamFile
{
 version 2.0;
 format ascii;
 class volVectorField;
 location "500";
 object U;
}

dimensions [ 0 1 -1 0 0 0 0 ];

internalField nonuniform List<vector> 459
(
  (0.0292267 0.087468 0)
  (-0.170924 0.0267034 0)
  (-0.198091 0.0172736 0)
  (-0.228707 0.0102257 0)
  (-0.248579 0.00251905 0)
  (-0.256102 -0.00568377 0)
  (-0.2491 -0.0143487 0)
  (-0.228028 -0.0232213 0)
  (-0.194538 -0.0307661 0)
  (-0.152641 -0.0355315 0)
  (-0.107561 -0.0367314 0)
  (-0.0646386 -0.0339803 0)
  (-0.0283573 -0.0266538 0)
  (2.99268e-05 -0.0112162 0)
  (-0.0157283 0.00705004 0)
  (-0.0122773 0.0107861 0)
  (-0.0351112 -0.0151001 0)
  (-0.0140253 -0.0262194 0)
  (0.0105076 -0.0230403 0)
  (0.0284463 -0.0167049 0)
  (0.0435683 -0.0113249 0)
  (0.0535953 -0.00653781 0)
  (0.0591067 -0.00395123 0)
  (0.061628 -0.00293645 0)
  (0.0628368 -0.0025163 0)
  (0.0635963 -0.00225495 0)
  (0.0640845 -0.002043 0)
  (0.0642412 -0.00180695 0)
  (0.0638658 -0.00136546 0)
  (0.0624178 -0.000349297 0)
  (0.05872 0.0017632 0)
  (0.0514871 0.00412697 0)
  (0.0436164 0.00662412 0)
  (-0.00786758 0.0216143 0)
  (0.200966 0.17931 0)
  (-0.157748 0.0716357 0)
  (-0.159696 0.054091 0)
  (-0.1916 0.039424 0)
  (-0.211742 0.0225937 0)
  (-0.219962 0.00348937 0)
  (-0.213878 -0.0177151 0)
  (-0.194443 -0.0385927 0)
  (-0.164072 -0.0552955 0)
  (-0.127151 -0.0648794 0)
  (-0.0885176 -0.066447 0)
  (-0.0524745 -0.0602381 0)
  (-0.0222092 -0.0466997 0)
  (0.0019258 -0.024944 0)
  (0.0141389 -0.00385402 0)
  (0.0242442 0.00576213 0)
  (0.0194942 0.0207784 0)
  (0.0540811 0.0411089 0)
  (0.014927 -0.0196007 0)
  (0.0281704 -0.0343018 0)
  (0.0403664 -0.0319124 0)
  (0.0507579 -0.024484 0)
  (0.0590386 -0.0165213 0)
  (0.0629366 -0.00735951 0)
  (0.0638677 -0.00192876 0)
  (0.0638726 0.000254747 0)
  (0.0640128 0.00114616 0)
  (0.0642701 0.00165813 0)
  (0.064461 0.00205441 0)
  (0.0645445 0.00253973 0)
  (0.064467 0.00342951 0)
  (0.0637333 0.00559739 0)
  (0.0600104 0.0115556 0)
  (0.0506441 0.0167029 0)
  (0.0451015 0.0209665 0)
  (-0.0451541 0.0461173 0)
  (0.358773 0.268152 0)
  (-0.171532 0.113297 0)
  (-0.12027 0.0872277 0)
  (-0.151439 0.0617107 0)
  (-0.169901 0.0339523 0)
  (-0.177522 0.00267777 0)
  (-0.170243 -0.0314806 0)
  (-0.150367 -0.0641115 0)
  (-0.121674 -0.0886331 0)
  (-0.0891538 -0.101016 0)
  (-0.056925 -0.101092 0)
  (-0.0277853 -0.0901539 0)
  (-0.00344646 -0.0699916 0)
  (0.0164794 -0.0425081 0)
  (0.0303477 -0.015718 0)
  (0.037573 0.00808034 0)
  (0.0380081 0.0427174 0)
  (0.109521 -0.013042 0)
  (0.0741461 -0.0331335 0)
  (0.0684369 -0.039549 0)
  (0.0697707 -0.0369522 0)
  (0.0714289 -0.0300415 0)
  (0.0735803 -0.0233504 0)
  (0.0727933 -0.0182177 0)
  (0.0668007 -0.0123533 0)
  (0.0623064 -0.00917333 0)
  (0.0603065 -0.0073791 0)
  (0.05946 -0.00623455 0)
  (0.0589734 -0.00545412 0)
  (0.0587824 -0.00481956 0)
  (0.0593721 -0.00389329 0)
  (0.0618859 -0.000658225 0)
  (0.0597743 0.016292 0)
  (0.0468591 0.0278731 0)
  (0.0492286 0.0361675 0)
  (-0.0800097 0.0706768 0)
  (0.502203 0.339565 0)
  (-0.203272 0.149851 0)
  (-0.0784263 0.115866 0)
  (-0.107985 0.0813486 0)
  (-0.12199 0.0450212 0)
  (-0.126135 0.00233128 0)
  (-0.113492 -0.0454759 0)
  (-0.0916456 -0.0891337 0)
  (-0.0652307 -0.119378 0)
  (-0.0389278 -0.132407 0)
  (-0.0151082 -0.130017 0)
  (0.0058039 -0.114263 0)
  (0.0224268 -0.0896429 0)
  (0.0368752 -0.0596819 0)
  (0.0503276 -0.0290282 0)
  (0.0648989 8.76387e-05 0)
  (0.084194 0.0322737 0)
  (0.114093 0.0374278 0)
  (0.114137 -0.00930464 0)
  (0.099534 -0.0283451 0)
  (0.0893021 -0.0333224 0)
  (0.0823023 -0.0320973 0)
  (0.0766187 -0.0271572 0)
  (0.0722214 -0.0196698 0)
  (0.072485 -0.0117031 0)
  (0.0779782 -0.00814961 0)
  (0.0823435 -0.00618025 0)
  (0.0846108 -0.0048725 0)
  (0.085507 -0.00360079 0)
  (0.0846394 -0.00198225 0)
  (0.0811881 0.00021367 0)
  (0.073874 0.00334238 0)
  (0.0599133 0.00803885 0)
  (0.0472236 0.0272822 0)
  (0.0353176 0.0427203 0)
  (0.0525033 0.0547314 0)
  (-0.11855 0.0911951 0)
  (0.627578 0.394592 0)
  (-0.243836 0.179046 0)
  (-0.0366168 0.132673 0)
  (-0.0615999 0.0929761 0)
  (-0.0681946 0.0515824 0)
  (-0.0622971 -0.0008302 0)
  (-0.0402213 -0.062568 0)
  (-0.0172632 -0.113193 0)
  (0.00394468 -0.144373 0)
  (0.0206615 -0.154079 0)
  (0.0331938 -0.147398 0)
  (0.0424526 -0.128701 0)
  (0.0495006 -0.101997 0)
  (0.0558277 -0.0712051 0)
  (0.0628337 -0.040814 0)
  (0.0721158 -0.0149716 0)
  (0.08575 0.0011025 0)
  (0.0954459 -0.00794928 0)
  (0.0947309 -0.0205838 0)
  (0.0874903 -0.0255578 0)
  (0.0781059 -0.0261415 0)
  (0.0694572 -0.0244974 0)
  (0.0621961 -0.0208643 0)
  (0.056926 -0.0152575 0)
  (0.0550343 -0.00782596 0)
  (0.0563146 -0.00390049 0)
  (0.058061 -0.00235262 0)
  (0.0596087 -0.00131497 0)
  (0.0610053 0.000428877 0)
  (0.0619243 0.00339266 0)
  (0.0613124 0.00776411 0)
  (0.0585669 0.0137892 0)
  (0.0529895 0.0220974 0)
  (0.046171 0.0367292 0)
  (0.0362033 0.0534504 0)
  (0.0606227 0.0719286 0)
  (-0.0277427 0.101156 0)
  (0.0461552 0.0287237 0)
  (-0.0609972 -0.0333 0)
  (-0.271008 -0.0560252 0)
  (0.720341 0.439894 0)
  (-0.284792 0.197781 0)
  (-0.0040081 0.12911 0)
  (-0.0130067 0.0936027 0)
  (-0.0088963 0.0500076 0)
  (0.0203846 -0.018244 0)
  (0.0487556 -0.0859323 0)
  (0.0682007 -0.132951 0)
  (0.0794177 -0.157727 0)
  (0.0836435 -0.162765 0)
  (0.0827747 -0.15232 0)
  (0.0786414 -0.130995 0)
  (0.0731973 -0.103221 0)
  (0.0682062 -0.0728714 0)
  (0.0651557 -0.0440964 0)
  (0.0650867 -0.0208132 0)
  (0.0682277 -0.0067851 0)
  (0.0700954 -0.00588974 0)
  (0.0670486 -0.010474 0)
  (0.0599678 -0.0146807 0)
  (0.0514166 -0.0165484 0)
  (0.0434176 -0.0163507 0)
  (0.0367245 -0.0144361 0)
  (0.0319181 -0.0110831 0)
  (0.0296723 -0.00712342 0)
  (0.0298841 -0.00516153 0)
  (0.0313696 -0.00465561 0)
  (0.0335954 -0.0042046 0)
  (0.0363836 -0.00262959 0)
  (0.039702 0.000988044 0)
  (0.0425256 0.00684695 0)
  (0.0442806 0.0147999 0)
  (0.0450967 0.02503 0)
  (0.0461711 0.0386775 0)
  (0.0453354 0.0549216 0)
  (0.0695094 0.0759741 0)
  (0.048311 0.0929802 0)
  (0.0919773 0.0641198 0)
  (0.115173 0.0430455 0)
  (-0.127623 -0.00625227 0)
  (0.778079 0.480901 0)
  (-0.305562 0.181774 0)
  (0.0263944 0.0768181 0)
  (0.0506142 0.0630422 0)
  (0.073073 0.0232355 0)
  (0.120455 -0.0510564 0)
  (0.148127 -0.109641 0)
  (0.159208 -0.145263 0)
  (0.156968 -0.159943 0)
  (0.145014 -0.157464 0)
  (0.127021 -0.142124 0)
  (0.106313 -0.118535 0)
  (0.0858428 -0.0909047 0)
  (0.0676523 -0.0623346 0)
  (0.0533498 -0.036401 0)
  (0.0437069 -0.0164583 0)
  (0.0384555 -0.00473855 0)
  (0.0350053 -0.0021141 0)
  (0.0306351 -0.00443453 0)
  (0.024652 -0.00754008 0)
  (0.0179806 -0.00940807 0)
  (0.0116553 -0.00987908 0)
  (0.00630405 -0.00923757 0)
  (0.00250402 -0.00783383 0)
  (0.000772239 -0.00640163 0)
  (0.00100783 -0.00614981 0)
  (0.00252026 -0.00675478 0)
  (0.0049452 -0.00723474 0)
  (0.00826239 -0.00656575 0)
  (0.0126057 -0.0036224 0)
  (0.0190237 0.00261647 0)
  (0.0252297 0.011089 0)
  (0.0315857 0.021172 0)
  (0.039601 0.0331297 0)
  (0.0479767 0.0462911 0)
  (0.0708655 0.0630884 0)
  (0.0843898 0.0693571 0)
  (0.117796 0.0466448 0)
  (0.157298 0.0410347 0)
  (-0.0315838 0.0921971 0)
  (0.884843 0.480575 0)
  (-0.0594089 0.159987 0)
  (0.114068 -0.00220625 0)
  (0.183115 -0.0451574 0)
  (0.231404 -0.0761538 0)
  (0.258455 -0.108265 0)
  (0.265225 -0.1329 0)
  (0.253193 -0.144926 0)
  (0.226542 -0.144212 0)
  (0.190891 -0.132799 0)
  (0.151329 -0.113329 0)
  (0.111981 -0.0892722 0)
  (0.0762287 -0.0639821 0)
  (0.0456449 -0.0393694 0)
  (0.0224208 -0.0185418 0)
  (0.00689328 -0.00440724 0)
  (-0.00182821 0.00221169 0)
  (-0.00583742 0.00259397 0)
  (-0.00913028 0.000252072 0)
  (-0.0129723 -0.00231752 0)
  (-0.0174367 -0.00407671 0)
  (-0.0218081 -0.00503106 0)
  (-0.0255952 -0.00542934 0)
  (-0.0283465 -0.00561646 0)
  (-0.0297853 -0.00606434 0)
  (-0.0300846 -0.00718136 0)
  (-0.0297012 -0.00873714 0)
  (-0.0288759 -0.0101901 0)
  (-0.0275277 -0.0109382 0)
  (-0.0252673 -0.0103091 0)
  (-0.0210788 -0.00751508 0)
  (-0.0120137 -0.00195662 0)
  (-0.00279378 0.00526447 0)
  (0.00875004 0.0127398 0)
  (0.0206062 0.0186575 0)
  (0.0398195 0.0250056 0)
  (0.0569741 0.0176838 0)
  (0.0743945 -0.00774967 0)
  (0.131866 0.0416875 0)
  (-0.419238 0.207529 0)
  (1.03357 0.429179 0)
  (0.497212 0.283658 0)
  (0.505324 0.182782 0)
  (0.526034 0.100791 0)
  (0.497253 0.0356971 0)
  (0.441468 -0.0215142 0)
  (0.381302 -0.0623551 0)
  (0.317996 -0.0836123 0)
  (0.25213 -0.0877623 0)
  (0.187483 -0.0797568 0)
  (0.12716 -0.0638917 0)
  (0.0738932 -0.0444024 0)
  (0.0296884 -0.0246446 0)
  (-0.00730335 -0.00649143 0)
  (-0.0284411 0.00316919 0)
  (-0.0383661 0.00668748 0)
  (-0.0423878 0.0069887 0)
  (-0.0444923 0.00540085 0)
  (-0.0465099 0.0031061 0)
  (-0.0489171 0.000971488 0)
  (-0.0515815 -0.000691786 0)
  (-0.0544628 -0.00194292 0)
  (-0.0572968 -0.00298766 0)
  (-0.0598186 -0.00406126 0)
  (-0.0619963 -0.00534029 0)
  (-0.0640907 -0.00686237 0)
  (-0.0665544 -0.00837838 0)
  (-0.0698178 -0.00945197 0)
  (-0.0742771 -0.00950279 0)
  (-0.0803829 -0.00779193 0)
  (-0.0886796 -0.00346178 0)
  (-0.0990246 0.00402667 0)
  (-0.110259 0.0143373 0)
  (-0.126362 0.0275552 0)
  (-0.151461 0.0435309 0)
  (-0.187854 0.0608644 0)
  (-0.238445 0.0753883 0)
  (-0.294879 0.0842038 0)
  (-0.360855 0.0877087 0)
  (-0.615449 0.087432 0)
  (-0.120084 0.0669381 0)
  (0.12 0.0242152 0)
  (0.18653 -0.0410714 0)
  (0.171245 -0.0588087 0)
  (0.149043 -0.056488 0)
  (0.118507 -0.0479479 0)
  (0.0801444 -0.0363112 0)
  (0.0394695 -0.0224929 0)
  (-0.00410248 -0.0064673 0)
  (-0.0389196 0.0052589 0)
  (-0.0602598 0.0113047 0)
  (-0.0710931 0.0132794 0)
  (-0.0755731 0.0127659 0)
  (-0.0772933 0.0116437 0)
  (-0.0778723 0.0104455 0)
  (-0.0783935 0.00917376 0)
  (-0.0794152 0.00801508 0)
  (-0.0810244 0.00719592 0)
  (-0.0830321 0.00675726 0)
  (-0.0852005 0.00650735 0)
  (-0.0874046 0.00616647 0)
  (-0.0897157 0.00552818 0)
  (-0.0922828 0.00447969 0)
  (-0.0952609 0.00324801 0)
  (-0.0987937 0.00223506 0)
  (-0.102942 0.00187119 0)
  (-0.107645 0.00258505 0)
  (-0.112681 0.00476951 0)
  (-0.117435 0.009051 0)
  (-0.121471 0.0162239 0)
  (-0.124919 0.0272958 0)
  (-0.128031 0.0425914 0)
  (-0.131551 0.0610395 0)
  (-0.135813 0.0788735 0)
  (-0.137402 0.0867688 0)
  (-0.117499 0.0651714 0)
  (-0.0591415 -0.0258905 0)
  (-0.276135 -0.204704 0)
  (0.0115924 0.217851 0)
  (0.0542442 0.0752572 0)
  (0.0203574 -0.00169746 0)
  (-0.00407588 -0.018024 0)
  (-0.0313856 -0.0117304 0)
  (-0.0591675 -0.00576289 0)
  (-0.0839945 -0.000170279 0)
  (-0.102217 0.00486201 0)
  (-0.111531 0.00740133 0)
  (-0.114809 0.00682426 0)
  (-0.114621 0.00462516 0)
  (-0.11227 0.00198106 0)
  (-0.10919 -0.00105918 0)
  (-0.106332 -0.00417961 0)
  (-0.10406 -0.00732346 0)
  (-0.102577 -0.0106645 0)
  (-0.101961 -0.0142516 0)
  (-0.102124 -0.0179071 0)
  (-0.102849 -0.0213221 0)
  (-0.103903 -0.0241872 0)
  (-0.105131 -0.0262741 0)
  (-0.106478 -0.0274531 0)
  (-0.107955 -0.0276523 0)
  (-0.109619 -0.0269409 0)
  (-0.111386 -0.0252958 0)
  (-0.113043 -0.0226314 0)
  (-0.114301 -0.0188065 0)
  (-0.114759 -0.0134133 0)
  (-0.113882 -0.00629278 0)
  (-0.11062 0.0030472 0)
  (-0.103592 0.0153867 0)
  (-0.0916815 0.031418 0)
  (-0.0747611 0.0504124 0)
  (-0.0534958 0.0673952 0)
  (-0.0315508 0.0758242 0)
  (0.0116687 0.0562394 0)
  (0.14085 -0.0114653 0)
  (-0.205218 -0.112439 0)
  (-0.0943244 -0.345322 0)
  (-0.437986 -0.123674 0)
  (-0.310383 0.0853169 0)
  (-0.248918 -0.0153651 0)
  (-0.2077 -0.022635 0)
  (-0.200055 -0.00833365 0)
  (-0.199709 0.00262048 0)
  (-0.197892 0.0105565 0)
  (-0.193579 0.0177057 0)
  (-0.186095 0.0244249 0)
  (-0.176043 0.0303084 0)
  (-0.164952 0.0350441 0)
  (-0.154182 0.0391216 0)
  (-0.144456 0.0430579 0)
  (-0.136014 0.0471354 0)
  (-0.128722 0.0516273 0)
  (-0.122324 0.0566359 0)
  (-0.116661 0.0620763 0)
  (-0.11168 0.067679 0)
  (-0.10737 0.0729973 0)
  (-0.103729 0.0774985 0)
  (-0.100759 0.080721 0)
  (-0.098465 0.0823798 0)
  (-0.0968509 0.0823652 0)
  (-0.0959085 0.0806913 0)
  (-0.0956063 0.0775297 0)
  (-0.0958534 0.0731133 0)
  (-0.0964153 0.0678298 0)
  (-0.096834 0.0622352 0)
  (-0.0963499 0.0567822 0)
  (-0.0936573 0.0523508 0)
  (-0.0867838 0.049739 0)
  (-0.0732842 0.0498221 0)
  (-0.051788 0.0535665 0)
  (-0.0243757 0.0613337 0)
  (0.0259403 0.0716319 0)
  (0.0647487 0.0702385 0)
  (0.104424 0.0567051 0)
  (0.162228 0.0306713 0)
  (-0.219537 -0.02034 0)
)
;

boundaryField
{
  floor
  {
    type noSlip;
  }
  ceiling
  {
    type noSlip;
  }
  sWall
  {
    type noSlip;
  }
  nWall
  {
    type noSlip;
  }
  sideWalls
  {
    type empty;
  }
  glass1
  {
    type noSlip;
  }
  glass2
  {
    type noSlip;
  }
  sun
  {
    type noSlip;
  }
  heatsource1
  {
    type noSlip;
  }
  heatsource2
  {
    type noSlip;
  }
  Table_master
  {
    type noSlip;
  }
  Table_slave
  {
    type noSlip;
  }
  inlet
  {
    type fixedValue;
    value uniform (0.3 0 0);
  }
  outlet
  {
    type zeroGradient;
  }
} 	// ************************************************************************* //

