// -*- C++ -*-
// File generated by PyFoam - sorry for the ugliness

FoamFile
{
 version 2.0;
 format ascii;
 class volScalarField;
 location "1000";
 object T;
}

dimensions [ 0 0 0 1 0 0 0 ];

internalField nonuniform List<scalar> 459
(
  303.321
  303.057
  303.044
  303.041
  303.037
  303.034
  303.029
  303.023
  303.014
  303.003
  302.991
  302.981
  302.976
  302.976
  302.984
  303.069
  303.05
  303.044
  303.047
  303.051
  303.056
  303.06
  303.063
  303.067
  303.071
  303.074
  303.078
  303.082
  303.085
  303.088
  303.092
  303.096
  303.101
  303.121
  303.499
  303.098
  303.076
  303.079
  303.082
  303.083
  303.081
  303.073
  303.056
  303.03
  303.004
  302.982
  302.968
  302.963
  302.963
  302.958
  302.951
  303.071
  303.035
  303.031
  303.034
  303.04
  303.045
  303.047
  303.048
  303.049
  303.05
  303.051
  303.052
  303.053
  303.054
  303.056
  303.059
  303.065
  303.073
  303.105
  303.685
  303.149
  303.112
  303.124
  303.139
  303.15
  303.155
  303.146
  303.117
  303.071
  303.024
  302.988
  302.966
  302.958
  302.959
  302.959
  302.957
  303.028
  303.021
  303.025
  303.035
  303.046
  303.055
  303.055
  303.054
  303.053
  303.053
  303.052
  303.052
  303.052
  303.051
  303.052
  303.054
  303.058
  303.065
  303.098
  303.874
  303.211
  303.149
  303.169
  303.2
  303.229
  303.247
  303.237
  303.19
  303.117
  303.044
  302.991
  302.961
  302.954
  302.957
  302.962
  302.965
  302.976
  302.989
  303.008
  303.029
  303.049
  303.068
  303.083
  303.096
  303.106
  303.116
  303.125
  303.132
  303.138
  303.143
  303.146
  303.148
  303.118
  303.092
  303.077
  303.099
  304.058
  303.289
  303.189
  303.206
  303.25
  303.3
  303.339
  303.326
  303.254
  303.149
  303.052
  302.987
  302.954
  302.948
  302.956
  302.97
  302.983
  302.998
  303.017
  303.04
  303.065
  303.089
  303.11
  303.129
  303.145
  303.159
  303.171
  303.18
  303.186
  303.189
  303.189
  303.185
  303.178
  303.156
  303.124
  303.096
  303.099
  303.181
  303.227
  303.234
  304.224
  303.39
  303.254
  303.248
  303.291
  303.356
  303.414
  303.379
  303.279
  303.154
  303.044
  302.971
  302.939
  302.939
  302.959
  302.984
  303.008
  303.033
  303.059
  303.087
  303.115
  303.14
  303.162
  303.18
  303.196
  303.208
  303.219
  303.226
  303.23
  303.23
  303.225
  303.216
  303.204
  303.183
  303.152
  303.119
  303.108
  303.139
  303.157
  303.193
  304.374
  303.551
  303.408
  303.376
  303.399
  303.462
  303.474
  303.395
  303.256
  303.109
  302.993
  302.927
  302.911
  302.931
  302.97
  303.013
  303.051
  303.086
  303.117
  303.147
  303.173
  303.196
  303.216
  303.231
  303.244
  303.254
  303.261
  303.265
  303.266
  303.263
  303.255
  303.242
  303.226
  303.206
  303.179
  303.148
  303.13
  303.137
  303.147
  303.176
  304.593
  303.976
  303.813
  303.714
  303.674
  303.644
  303.525
  303.338
  303.138
  302.978
  302.883
  302.856
  302.881
  302.937
  303.005
  303.068
  303.118
  303.156
  303.186
  303.211
  303.232
  303.25
  303.265
  303.276
  303.284
  303.29
  303.293
  303.294
  303.292
  303.287
  303.279
  303.266
  303.251
  303.232
  303.212
  303.191
  303.181
  303.194
  303.212
  303.337
  304.906
  304.617
  304.352
  304.123
  303.929
  303.666
  303.317
  303.004
  302.796
  302.707
  302.714
  302.786
  302.888
  302.991
  303.09
  303.159
  303.2
  303.228
  303.249
  303.267
  303.282
  303.295
  303.304
  303.31
  303.314
  303.316
  303.316
  303.314
  303.311
  303.308
  303.305
  303.304
  303.305
  303.31
  303.323
  303.345
  303.377
  303.409
  303.43
  303.485
  296.966
  299.005
  300.063
  300.575
  301.074
  301.56
  301.993
  302.351
  302.633
  302.866
  303.044
  303.144
  303.205
  303.243
  303.268
  303.286
  303.301
  303.312
  303.321
  303.328
  303.332
  303.335
  303.336
  303.337
  303.337
  303.337
  303.336
  303.337
  303.337
  303.339
  303.343
  303.35
  303.363
  303.382
  303.405
  303.429
  303.448
  303.471
  297.402
  299.224
  300.192
  300.942
  301.591
  302.153
  302.538
  302.809
  302.995
  303.121
  303.199
  303.248
  303.28
  303.301
  303.316
  303.328
  303.337
  303.343
  303.348
  303.35
  303.352
  303.353
  303.354
  303.354
  303.354
  303.355
  303.355
  303.356
  303.357
  303.358
  303.361
  303.367
  303.376
  303.389
  303.404
  303.423
  303.422
  303.453
  299.522
  299.452
  299.447
  301.244
  302.121
  302.558
  302.797
  302.969
  303.088
  303.173
  303.233
  303.273
  303.3
  303.318
  303.33
  303.339
  303.345
  303.349
  303.352
  303.355
  303.356
  303.357
  303.358
  303.359
  303.36
  303.361
  303.362
  303.363
  303.363
  303.364
  303.365
  303.367
  303.369
  303.372
  303.376
  303.387
  303.395
  303.401
  303.404
  303.443
)
;

boundaryField
{
  floor
  {
    type wallHeatTransfer;
    Tinf uniform 305.2;
    alphaWall uniform 0.24;
    value nonuniform List<scalar> 29
(
  303.216
  303.475
  303.415
  303.38
  303.379
  303.388
  303.401
  303.42
  303.441
  303.461
  303.481
  303.501
  303.519
  303.537
  303.555
  303.571
  303.589
  303.608
  303.622
  303.664
  303.664
  303.566
  303.517
  303.49
  303.216
  303.475
  303.468
  303.291
  303.172
)
;
  }
  ceiling
  {
    type wallHeatTransfer;
    Tinf uniform 303.2;
    alphaWall uniform 0.24;
    value nonuniform List<scalar> 43
(
  299.777
  299.701
  299.689
  301.367
  302.194
  302.605
  302.828
  302.987
  303.097
  303.175
  303.229
  303.265
  303.288
  303.303
  303.312
  303.318
  303.322
  303.325
  303.327
  303.329
  303.33
  303.331
  303.332
  303.333
  303.335
  303.336
  303.337
  303.339
  303.34
  303.342
  303.344
  303.346
  303.349
  303.353
  303.358
  303.368
  303.376
  303.381
  303.383
  303.416
  304.827
  304.56
  297.756
)
;
  }
  sWall
  {
    type wallHeatTransfer;
    Tinf uniform 315.2;
    alphaWall uniform 0.36;
    value uniform 301.102;
  }
  nWall
  {
    type wallHeatTransfer;
    Tinf uniform 307.2;
    alphaWall uniform 0.36;
    value nonuniform List<scalar> 6
(
  303.962
  303.906
  303.822
  304.005
  303.983
  304.041
)
;
  }
  sideWalls
  {
    type empty;
  }
  glass1
  {
    type wallHeatTransfer;
    Tinf uniform 315.2;
    alphaWall uniform 4.3;
    value nonuniform List<scalar> 9
(
  311.449
  310.81
  310.409
  310.103
  309.848
  309.617
  309.439
  309.506
  309.73
)
;
  }
  glass2
  {
    type wallHeatTransfer;
    Tinf uniform 307.2;
    alphaWall uniform 4.3;
    value nonuniform List<scalar> 2
(
  305.71
  305.821
)
;
  }
  sun
  {
    type wallHeatTransfer;
    Tinf uniform 305.2;
    alphaWall uniform 0.24;
    value nonuniform List<scalar> 14
(
  303.519
  303.269
  303.254
  303.244
  303.234
  303.225
  303.216
  303.206
  303.194
  303.183
  303.174
  303.17
  303.174
  303.188
)
;
  }
  heatsource1
  {
    type fixedGradient;
    gradient uniform 0;
  }
  heatsource2
  {
    type fixedGradient;
    gradient uniform 0;
  }
  Table_master
  {
    type zeroGradient;
  }
  Table_slave
  {
    type zeroGradient;
  }
  inlet
  {
    type fixedValue;
    value uniform 293.15;
  }
  outlet
  {
    type zeroGradient;
  }
} 	// ************************************************************************* //

