// -*- C++ -*-
// File generated by PyFoam - sorry for the ugliness

FoamFile
{
 version 2.0;
 format ascii;
 class volScalarField;
 location "900";
 object T;
}

dimensions [ 0 0 0 1 0 0 0 ];

internalField nonuniform List<scalar> 459
(
  303.374
  303.111
  303.098
  303.094
  303.091
  303.087
  303.082
  303.077
  303.068
  303.056
  303.044
  303.033
  303.027
  303.026
  303.032
  303.118
  303.098
  303.091
  303.093
  303.096
  303.1
  303.104
  303.108
  303.112
  303.116
  303.12
  303.123
  303.127
  303.131
  303.134
  303.138
  303.143
  303.148
  303.167
  303.553
  303.153
  303.13
  303.133
  303.136
  303.137
  303.135
  303.127
  303.111
  303.086
  303.059
  303.035
  303.02
  303.012
  303.011
  303.008
  303.004
  303.12
  303.083
  303.077
  303.078
  303.083
  303.087
  303.089
  303.09
  303.091
  303.092
  303.093
  303.094
  303.095
  303.097
  303.099
  303.103
  303.109
  303.118
  303.15
  303.74
  303.203
  303.166
  303.178
  303.193
  303.204
  303.209
  303.202
  303.175
  303.131
  303.082
  303.043
  303.017
  303.007
  303.006
  303.007
  303.007
  303.073
  303.066
  303.069
  303.076
  303.086
  303.093
  303.093
  303.093
  303.093
  303.093
  303.093
  303.092
  303.092
  303.093
  303.093
  303.096
  303.1
  303.108
  303.143
  303.929
  303.265
  303.203
  303.222
  303.252
  303.281
  303.3
  303.295
  303.252
  303.181
  303.105
  303.048
  303.013
  303.002
  303.003
  303.008
  303.012
  303.022
  303.034
  303.051
  303.069
  303.087
  303.103
  303.116
  303.126
  303.135
  303.143
  303.15
  303.156
  303.161
  303.165
  303.168
  303.169
  303.146
  303.126
  303.116
  303.143
  304.112
  303.343
  303.242
  303.258
  303.301
  303.35
  303.391
  303.385
  303.32
  303.219
  303.117
  303.045
  303.005
  302.994
  303
  303.012
  303.025
  303.04
  303.057
  303.078
  303.1
  303.121
  303.14
  303.156
  303.17
  303.181
  303.191
  303.199
  303.205
  303.207
  303.207
  303.203
  303.196
  303.178
  303.152
  303.131
  303.14
  303.216
  303.261
  303.268
  304.278
  303.443
  303.307
  303.299
  303.34
  303.401
  303.464
  303.441
  303.349
  303.225
  303.11
  303.028
  302.988
  302.983
  302.998
  303.022
  303.046
  303.069
  303.094
  303.12
  303.145
  303.167
  303.186
  303.202
  303.215
  303.227
  303.236
  303.242
  303.246
  303.246
  303.241
  303.233
  303.221
  303.202
  303.176
  303.15
  303.144
  303.175
  303.192
  303.227
  304.427
  303.604
  303.46
  303.425
  303.443
  303.5
  303.527
  303.461
  303.33
  303.182
  303.058
  302.982
  302.957
  302.969
  303.004
  303.045
  303.083
  303.116
  303.147
  303.174
  303.198
  303.219
  303.236
  303.25
  303.261
  303.27
  303.276
  303.28
  303.282
  303.279
  303.271
  303.259
  303.244
  303.224
  303.201
  303.175
  303.162
  303.169
  303.179
  303.208
  304.645
  304.028
  303.864
  303.761
  303.713
  303.695
  303.594
  303.419
  303.22
  303.051
  302.943
  302.903
  302.918
  302.967
  303.031
  303.093
  303.143
  303.181
  303.21
  303.234
  303.253
  303.269
  303.282
  303.293
  303.3
  303.306
  303.31
  303.311
  303.31
  303.306
  303.299
  303.287
  303.271
  303.253
  303.235
  303.217
  303.209
  303.22
  303.238
  303.371
  304.955
  304.667
  304.402
  304.171
  303.983
  303.757
  303.422
  303.104
  302.879
  302.769
  302.757
  302.815
  302.911
  303.01
  303.106
  303.178
  303.221
  303.249
  303.27
  303.287
  303.301
  303.313
  303.321
  303.328
  303.333
  303.335
  303.336
  303.336
  303.334
  303.332
  303.33
  303.33
  303.332
  303.338
  303.351
  303.373
  303.404
  303.436
  303.461
  303.523
  297.022
  299.136
  300.244
  300.704
  301.151
  301.595
  302.005
  302.353
  302.633
  302.859
  303.051
  303.157
  303.222
  303.262
  303.288
  303.306
  303.32
  303.331
  303.34
  303.347
  303.352
  303.356
  303.358
  303.36
  303.361
  303.362
  303.363
  303.364
  303.365
  303.367
  303.371
  303.379
  303.391
  303.408
  303.43
  303.452
  303.472
  303.512
  297.458
  299.325
  300.266
  300.97
  301.572
  302.106
  302.512
  302.795
  302.992
  303.126
  303.212
  303.265
  303.298
  303.32
  303.335
  303.347
  303.356
  303.363
  303.368
  303.371
  303.374
  303.376
  303.378
  303.379
  303.38
  303.382
  303.383
  303.384
  303.385
  303.387
  303.391
  303.396
  303.404
  303.415
  303.429
  303.446
  303.465
  303.49
  299.528
  299.457
  299.453
  301.231
  302.095
  302.538
  302.788
  302.964
  303.092
  303.18
  303.243
  303.286
  303.315
  303.334
  303.346
  303.355
  303.362
  303.366
  303.37
  303.373
  303.375
  303.377
  303.379
  303.381
  303.383
  303.385
  303.386
  303.388
  303.389
  303.391
  303.393
  303.395
  303.397
  303.4
  303.405
  303.412
  303.421
  303.427
  303.482
  303.571
)
;

boundaryField
{
  floor
  {
    type wallHeatTransfer;
    Tinf uniform 305.2;
    alphaWall uniform 0.24;
    value nonuniform List<scalar> 29
(
  303.256
  303.52
  303.459
  303.424
  303.424
  303.434
  303.447
  303.466
  303.487
  303.507
  303.528
  303.547
  303.566
  303.584
  303.601
  303.618
  303.635
  303.654
  303.667
  303.708
  303.708
  303.608
  303.558
  303.529
  303.256
  303.52
  303.511
  303.331
  303.214
)
;
  }
  ceiling
  {
    type wallHeatTransfer;
    Tinf uniform 303.2;
    alphaWall uniform 0.24;
    value nonuniform List<scalar> 43
(
  299.782
  299.706
  299.695
  301.355
  302.171
  302.586
  302.819
  302.983
  303.101
  303.182
  303.239
  303.277
  303.301
  303.316
  303.326
  303.332
  303.336
  303.339
  303.342
  303.344
  303.346
  303.347
  303.349
  303.351
  303.353
  303.355
  303.358
  303.36
  303.362
  303.365
  303.367
  303.37
  303.373
  303.377
  303.382
  303.39
  303.398
  303.401
  303.449
  303.533
  304.874
  304.609
  297.808
)
;
  }
  sWall
  {
    type wallHeatTransfer;
    Tinf uniform 315.2;
    alphaWall uniform 0.36;
    value uniform 301.106;
  }
  nWall
  {
    type wallHeatTransfer;
    Tinf uniform 307.2;
    alphaWall uniform 0.36;
    value nonuniform List<scalar> 6
(
  303.994
  303.939
  303.864
  304.068
  304.04
  304.109
)
;
  }
  sideWalls
  {
    type empty;
  }
  glass1
  {
    type wallHeatTransfer;
    Tinf uniform 315.2;
    alphaWall uniform 4.3;
    value nonuniform List<scalar> 9
(
  311.49
  310.854
  310.452
  310.145
  309.889
  309.656
  309.474
  309.54
  309.763
)
;
  }
  glass2
  {
    type wallHeatTransfer;
    Tinf uniform 307.2;
    alphaWall uniform 4.3;
    value nonuniform List<scalar> 2
(
  305.756
  305.868
)
;
  }
  sun
  {
    type wallHeatTransfer;
    Tinf uniform 305.2;
    alphaWall uniform 0.24;
    value nonuniform List<scalar> 14
(
  303.569
  303.319
  303.305
  303.294
  303.285
  303.276
  303.266
  303.256
  303.245
  303.233
  303.223
  303.218
  303.221
  303.232
)
;
  }
  heatsource1
  {
    type fixedGradient;
    gradient uniform 0;
  }
  heatsource2
  {
    type fixedGradient;
    gradient uniform 0;
  }
  Table_master
  {
    type zeroGradient;
  }
  Table_slave
  {
    type zeroGradient;
  }
  inlet
  {
    type fixedValue;
    value uniform 293.15;
  }
  outlet
  {
    type zeroGradient;
  }
} 	// ************************************************************************* //

