/*--------------------------------*- C++ -*----------------------------------*\
  =========                 |
  \\      /  F ield         | OpenFOAM: The Open Source CFD Toolbox
   \\    /   O peration     | Website:  https://openfoam.org
    \\  /    A nd           | Version:  6
     \\/     M anipulation  |
\*---------------------------------------------------------------------------*/
FoamFile
{
    version     2.0;
    format      ascii;
    class       volScalarField;
    location    "300";
    object      nut;
}
// * * * * * * * * * * * * * * * * * * * * * * * * * * * * * * * * * * * * * //

dimensions      [0 2 -1 0 0 0 0];

internalField   nonuniform List<scalar> 
459
(
0.000902297
0.000965815
0.000973444
0.00101334
0.00104884
0.00108092
0.00111119
0.00114159
0.00116743
0.00118273
0.00118183
0.00115942
0.00111263
0.00104328
0.0009622
0.000350162
0.000398586
0.000419302
0.00041873
0.000403411
0.000389986
0.000381805
0.000373456
0.000361298
0.000343216
0.000319064
0.000290231
0.000260195
0.000237599
0.000236047
0.000266628
0.000387918
0.000615456
0.000487935
0.00127431
0.00250317
0.00223943
0.00257285
0.00285523
0.0031522
0.00343342
0.00364989
0.00383801
0.00400909
0.00413214
0.00417906
0.00412044
0.00387529
0.00310568
0.000944479
0.000535267
0.000411384
0.00112548
0.00115402
0.00128573
0.00142014
0.00150972
0.0014913
0.00147015
0.00143404
0.00136195
0.00124083
0.00106939
0.000859604
0.000644
0.000496238
0.00053421
0.000813063
0.00161443
0.000640106
0.0015939
0.00340291
0.00253169
0.00328126
0.00350239
0.00365064
0.00376206
0.00385857
0.00397442
0.00410468
0.00422044
0.00430952
0.00438242
0.00443639
0.00436315
0.00361162
0.000884005
0.000661524
0.00084138
0.000903986
0.00096831
0.00103835
0.00108442
0.00054737
0.000514505
0.000487537
0.000463735
0.000440541
0.000416223
0.000390202
0.000363195
0.000338532
0.000453374
0.000811067
0.00216754
0.00074267
0.00191322
0.00460713
0.00237937
0.00339458
0.00355119
0.0035433
0.00352677
0.00356364
0.00366383
0.00378932
0.00389375
0.00397129
0.00406584
0.00421767
0.00437505
0.00426497
0.00325253
0.00105005
0.00120462
0.00130029
0.00138054
0.00145832
0.00155226
0.00158901
0.000620402
0.000602967
0.0006064
0.000624622
0.000650459
0.000674602
0.000684986
0.00066887
0.000645609
0.000721405
0.000983439
0.00199935
0.000829356
0.00224327
0.00626989
0.00257121
0.00315966
0.00343949
0.00335001
0.00326814
0.00331227
0.00345768
0.00361677
0.00371543
0.00375804
0.00381755
0.0039425
0.00405938
0.00405854
0.00380016
0.00325211
0.00294116
0.00283003
0.00281331
0.00288193
0.00304016
0.00323154
0.0032274
0.00334546
0.00348928
0.00360928
0.00368492
0.00370143
0.00363706
0.0034586
0.00299977
0.00248361
0.00198219
0.00168871
0.00199643
0.00104119
0.000950625
0.00091926
0.0025923
0.00812756
0.00385659
0.00279695
0.00321391
0.00321743
0.0031265
0.00318109
0.00340575
0.00359455
0.00367696
0.00367903
0.00369842
0.00378482
0.00386755
0.0038475
0.00374681
0.00367493
0.00372385
0.00384393
0.00399602
0.00418702
0.00439778
0.00458036
0.00468294
0.00473729
0.00475106
0.00474365
0.00473086
0.00470202
0.00463259
0.00449538
0.00423341
0.00380449
0.00330102
0.00276819
0.00261774
0.00242082
0.00251258
0.0011852
0.00294889
0.00961939
0.00646235
0.00359499
0.0029054
0.0029052
0.00317329
0.00331703
0.00353571
0.00367548
0.00370846
0.00365747
0.00364527
0.0037328
0.0038291
0.0038223
0.00381296
0.00401041
0.00436213
0.00467451
0.00489166
0.00503404
0.00511357
0.00513871
0.00510758
0.00504584
0.00499027
0.00497329
0.00499358
0.00501781
0.00502261
0.0050047
0.00497024
0.00484447
0.00456823
0.00429638
0.00410055
0.00381312
0.00344621
0.00141416
0.00304347
0.00939235
0.00767715
0.00603716
0.00473353
0.00403408
0.00393759
0.0038471
0.00384085
0.00384688
0.00377079
0.00362959
0.0035997
0.00373922
0.00390024
0.00395264
0.00411392
0.00459822
0.00495765
0.00512821
0.00516208
0.00511318
0.00501591
0.00489748
0.00479225
0.00472788
0.00472344
0.00477406
0.00484836
0.0049177
0.00497664
0.00505306
0.0052001
0.00546274
0.00576364
0.00595397
0.00600488
0.00539676
0.00514268
0.0015569
0.00299122
0.0036342
0.00410813
0.00425231
0.00417223
0.00401107
0.00392105
0.00392084
0.00399148
0.00395501
0.00375155
0.00349789
0.00351426
0.00379677
0.0040693
0.00426057
0.0045629
0.00483963
0.00493282
0.00489285
0.00477904
0.00462455
0.00445787
0.00431432
0.00423103
0.00422704
0.00428491
0.00436184
0.00442374
0.00444364
0.00440406
0.00429813
0.00413261
0.00392888
0.00369205
0.00342505
0.00304662
0.00263419
0.00236338
0.00147191
0.00213844
0.00349723
0.00402473
0.00422922
0.00437624
0.00448358
0.00442948
0.00401477
0.00350521
0.00311584
0.00337082
0.00390718
0.00437459
0.00446922
0.00448874
0.00440997
0.00429725
0.00418001
0.0040662
0.00396109
0.00387415
0.00381946
0.00380988
0.00384868
0.00392682
0.00403039
0.00413794
0.00423295
0.00430741
0.00434574
0.00432903
0.00422594
0.00402257
0.00370679
0.00327974
0.00280061
0.00231456
0.00129663
0.00229169
0.0041455
0.00461168
0.00461451
0.00453266
0.00444672
0.00402414
0.00311967
0.00252411
0.00220253
0.00306774
0.00345746
0.00365525
0.00365777
0.00356132
0.00345453
0.00337107
0.00331051
0.00326825
0.00324203
0.00323184
0.00323856
0.00326226
0.0033017
0.00335572
0.00342627
0.00351946
0.00364396
0.00379746
0.00397145
0.0041381
0.00426244
0.00431209
0.00424203
0.00399847
0.00366086
0.00301088
0.00132636
0.00200898
0.00210892
0.00219305
0.00231543
0.0021572
0.00197567
0.00175085
0.00154303
0.00135473
0.00110254
0.000786933
0.000736498
0.000744876
0.000749125
0.00073066
0.000710144
0.000696188
0.000689115
0.00068686
0.000688208
0.000692567
0.000699685
0.000709467
0.000721834
0.000736659
0.000753845
0.000773656
0.000797364
0.000828148
0.000871396
0.000933181
0.00101636
0.00111892
0.00123883
0.0013582
0.0014397
0.00146657
0.00140953
0.00130772
0.00119046
)
;

boundaryField
{
    floor
    {
        type            nutkWallFunction;
        Cmu             0.09;
        kappa           0.41;
        E               9.8;
        value           nonuniform List<scalar> 
29
(
0.000116268
4.0163e-05
4.6578e-05
4.92911e-05
4.92165e-05
4.72138e-05
4.54518e-05
4.43754e-05
4.32717e-05
4.16557e-05
3.92384e-05
3.59839e-05
3.20568e-05
2.79125e-05
2.4757e-05
2.45446e-05
2.88202e-05
4.51907e-05
7.42701e-05
5.81714e-05
5.81713e-05
7.73384e-05
8.99443e-05
0.000100426
0.000116268
4.01629e-05
4.82481e-05
7.99927e-05
0.000126599
)
;
    }
    ceiling
    {
        type            nutkWallFunction;
        Cmu             0.09;
        kappa           0.41;
        E               9.8;
        value           nonuniform List<scalar> 
43
(
0.000234243
0.000245084
0.00025417
0.000267404
0.000250407
0.000230716
0.000206052
0.000182942
0.000161702
0.000132761
9.53205e-05
8.91814e-05
9.01995e-05
9.07202e-05
8.84737e-05
8.59661e-05
8.42548e-05
8.33858e-05
8.31083e-05
8.32736e-05
8.38087e-05
8.46819e-05
8.58806e-05
8.73942e-05
8.92056e-05
9.13015e-05
9.37116e-05
9.65862e-05
0.000100302
0.000105491
0.000112849
0.000122664
0.000134642
0.000148494
0.000162122
0.000171355
0.000174387
0.000167946
0.000156375
0.000142919
0.00033917
0.000405664
0.000264703
)
;
    }
    sWall
    {
        type            nutkWallFunction;
        Cmu             0.09;
        kappa           0.41;
        E               9.8;
        value           uniform 0.000234307;
    }
    nWall
    {
        type            nutkWallFunction;
        Cmu             0.09;
        kappa           0.41;
        E               9.8;
        value           nonuniform List<scalar> 6(0.000111164 0.000142318 0.000168452 0.00015512 0.000158515 0.000142929);
    }
    sideWalls
    {
        type            empty;
    }
    glass1
    {
        type            nutkWallFunction;
        Cmu             0.09;
        kappa           0.41;
        E               9.8;
        value           nonuniform List<scalar> 9(0.0001092 0.000152703 0.000188908 0.000224283 0.000260178 0.00029753 0.000335147 0.000345052 0.000339606);
    }
    glass2
    {
        type            nutkWallFunction;
        Cmu             0.09;
        kappa           0.41;
        E               9.8;
        value           nonuniform List<scalar> 2(0.000184447 0.000174985);
    }
    sun
    {
        type            nutkWallFunction;
        Cmu             0.09;
        kappa           0.41;
        E               9.8;
        value           nonuniform List<scalar> 
14
(
0.000109157
0.000116687
0.000117587
0.000122284
0.000126447
0.000130193
0.000133717
0.000137246
0.000140236
0.000142004
0.000141901
0.000139313
0.000133889
0.000125802
)
;
    }
    heatsource1
    {
        type            nutkWallFunction;
        Cmu             0.09;
        kappa           0.41;
        E               9.8;
        value           nonuniform List<scalar> 3(0.000125557 0.000114914 0.000111158);
    }
    heatsource2
    {
        type            nutkWallFunction;
        Cmu             0.09;
        kappa           0.41;
        E               9.8;
        value           nonuniform List<scalar> 4(0.00011417 6.42175e-05 6.42175e-05 0.00010698);
    }
    Table_master
    {
        type            nutkWallFunction;
        Cmu             0.09;
        kappa           0.41;
        E               9.8;
        value           nonuniform List<scalar> 9(6.57426e-05 6.15752e-05 5.81311e-05 5.50712e-05 5.20704e-05 4.89025e-05 4.5487e-05 4.19121e-05 3.86187e-05);
    }
    Table_slave
    {
        type            nutkWallFunction;
        Cmu             0.09;
        kappa           0.41;
        E               9.8;
        value           nonuniform List<scalar> 9(7.48934e-05 7.2721e-05 7.31477e-05 7.54137e-05 7.86131e-05 8.15887e-05 8.28625e-05 8.08774e-05 7.80044e-05);
    }
    inlet
    {
        type            calculated;
        value           uniform 0.000100623;
    }
    outlet
    {
        type            calculated;
        value           nonuniform List<scalar> 2(0.00200898 0.00210892);
    }
}


// ************************************************************************* //
