/*--------------------------------*- C++ -*----------------------------------*\
  =========                 |
  \\      /  F ield         | OpenFOAM: The Open Source CFD Toolbox
   \\    /   O peration     | Website:  https://openfoam.org
    \\  /    A nd           | Version:  6
     \\/     M anipulation  |
\*---------------------------------------------------------------------------*/
FoamFile
{
    version     2.0;
    format      ascii;
    class       surfaceScalarField;
    location    "600";
    object      phi;
}
// * * * * * * * * * * * * * * * * * * * * * * * * * * * * * * * * * * * * * //

dimensions      [1 0 -1 0 0 0 0];

internalField   nonuniform List<scalar> 
852
(
-0.00213439
0.00218888
-0.00210815
-2.60403e-05
-0.00194981
-0.000158147
-0.0018761
-7.35171e-05
-0.00184911
-2.67956e-05
-0.00184102
-7.89855e-06
-0.00183602
-4.79914e-06
-0.0018216
-1.42176e-05
-0.00178507
-3.63294e-05
-0.00171224
-7.26332e-05
-0.00158749
-0.000124544
-0.00139306
-0.000194219
-0.00110033
-0.000292519
-0.000650055
-0.000450058
-0.000649326
-0.000394281
0.000397853
-0.000356129
-3.80212e-05
-0.000216187
-0.000139808
-0.000101227
-0.000114828
3.3948e-05
-0.000135038
0.000186829
-0.000152747
0.000309538
-0.000122584
0.000410883
-0.000101226
0.00048894
-7.79424e-05
0.00055382
-6.47659e-05
0.000614274
-6.03394e-05
0.000665673
-5.12839e-05
0.00068563
-1.98426e-05
0.000674691
1.10535e-05
0.000645579
2.92257e-05
0.000627759
1.79298e-05
0.000682959
-5.50982e-05
0.000622683
6.03743e-05
0.000626431
-0.001528
0.00385373
-0.00190148
0.000347643
-0.0019323
-0.000127113
-0.00193241
-7.32064e-05
-0.00193201
-2.69849e-05
-0.00193076
-8.94079e-06
-0.00192679
-8.56254e-06
-0.00191543
-2.53671e-05
-0.00188944
-6.21184e-05
-0.00183893
-0.000122924
-0.00175071
-0.000212553
-0.00160754
-0.000337174
-0.00139372
-0.000506128
-0.00112038
-0.000723181
-0.000822658
-0.000946822
0.00014075
-0.000963236
0.000140912
0.000678404
-0.000273495
0.000536802
0.000103745
0.000229302
0.00016786
3.25164e-05
8.21224e-05
-8.08719e-05
-2.14849e-05
-0.000193499
-3.99619e-05
-0.000135486
-0.000180452
-0.000112727
-0.00012385
-0.000110656
-7.98852e-05
-0.000124323
-5.09752e-05
-0.000158721
-2.58173e-05
-0.00021781
7.92672e-06
-0.000289317
5.17826e-05
-0.000364402
8.62531e-05
-0.000443
0.000107936
-0.000554594
0.000129635
-0.000731989
0.000122413
-0.000736667
6.51787e-05
-0.000101888
-0.0010956
0.00514845
-0.00160494
0.000857202
-0.00178856
5.67187e-05
-0.0018628
1.24731e-06
-0.00189007
4.99725e-07
-0.00189861
-1.92539e-07
-0.00190032
-6.63847e-06
-0.00189941
-2.60624e-05
-0.00189558
-6.57379e-05
-0.00188544
-0.000132848
-0.00186303
-0.000234755
-0.00182123
-0.000378755
-0.00175771
-0.000569424
-0.00168355
-0.000797119
-0.00161243
-0.00101772
-0.00141017
-0.00116527
-0.00126903
-0.000693663
0.000426741
-0.000800883
0.000211152
-0.000776955
0.000144118
-0.000762594
6.79468e-05
-0.000771506
-1.23929e-05
-0.000686982
-0.00012431
-0.000867128
-0.000990683
-0.00107028
-0.00112098
-0.00114652
-0.0011383
-0.00108622
-0.000999657
-0.000891407
-0.000587558
-0.000174046
-0.000319965
-0.000145007
-9.84698e-05
-0.000156123
-0.000197987
-0.000756129
0.00615426
-0.00128584
0.00138714
-0.00153247
0.00030359
-0.00166922
0.000138232
-0.0017358
6.73037e-05
-0.00175869
2.29182e-05
-0.00176283
-2.28232e-06
-0.00176518
-2.34928e-05
-0.0017753
-5.54019e-05
-0.00179833
-0.000109602
-0.00183777
-0.000195102
-0.0018983
-0.000318
-0.00199038
-0.000477124
-0.00213083
-0.000656445
-0.00232603
-0.000822292
-0.00256979
-0.000921278
-0.00305119
-0.0007874
-0.00267988
-0.000368668
-0.00222477
-2.81411e-05
-0.00211911
0.000105713
-0.0020903
0.000115541
-0.00210652
8.44135e-05
-0.00213892
2.02477e-05
-0.00221654
-4.64407e-05
-0.00216193
-5.45088e-05
-0.00208852
-7.33053e-05
-0.00199665
-9.17756e-05
-0.00189108
-0.000105467
-0.00177367
-0.000117307
-0.00164377
-0.000129792
-0.00149742
-0.000146248
-0.00132445
-0.000172867
-0.00110198
-0.000222366
-0.000953901
-0.000321869
-0.000701916
-0.000396727
-0.000365432
-0.000492331
-0.000564315
-0.000492628
0.00694012
-0.000996714
0.00189146
-0.00113551
0.000442647
-0.00125727
0.000260242
-0.00139085
0.000201132
-0.00146469
9.69928e-05
-0.00148273
1.59812e-05
-0.00148226
-2.37343e-05
-0.00148744
-5.00024e-05
-0.00151169
-8.51343e-05
-0.00156433
-0.000142247
-0.00165283
-0.000229277
-0.0017834
-0.000346326
-0.00195849
-0.000481126
-0.00217469
-0.000605859
-0.00242937
-0.000666362
-0.00264105
-0.000575477
-0.00265062
-0.000358857
-0.00252565
-0.000152863
-0.00238969
-3.00062e-05
-0.00229065
1.67517e-05
-0.00222089
1.49103e-05
-0.00217869
-2.17e-05
-0.00215899
-6.58792e-05
-0.00211633
-9.68986e-05
-0.002065
-0.000124375
-0.00200787
-0.000148633
-0.00194379
-0.000169279
-0.00187276
-0.000188065
-0.00179425
-0.000208025
-0.00170582
-0.000234407
-0.00160172
-0.000276689
-0.00147528
-0.000348533
-0.00134087
-0.000455997
-0.00113513
-0.000602193
-0.000817282
-0.000809897
-0.000335289
-0.00104603
0.000745401
-0.00108061
0.00129195
-0.000546467
0.00131342
-0.000423336
0.00769535
-0.000777402
0.00224578
-0.000547418
0.000212943
-0.000485668
0.000198777
-0.000691232
0.000406969
-0.000902645
0.00030866
-0.000998962
0.000112537
-0.00102854
6.07055e-06
-0.0010372
-4.11128e-05
-0.00105411
-6.79985e-05
-0.0010966
-9.95393e-05
-0.00117629
-0.000149356
-0.00129913
-0.000223254
-0.00146478
-0.000315242
-0.00166634
-0.000404064
-0.00188264
-0.000449824
-0.00204771
-0.000410158
-0.00210893
-0.000297382
-0.00208282
-0.000178721
-0.00201841
-9.41568e-05
-0.00195012
-5.12796e-05
-0.00189118
-4.37726e-05
-0.00185025
-6.23595e-05
-0.00182437
-9.14861e-05
-0.00180113
-0.000119863
-0.00177854
-0.000146692
-0.00175625
-0.000170647
-0.00173399
-0.000191254
-0.00171252
-0.000209247
-0.00169322
-0.00022704
-0.00167724
-0.000250108
-0.00166484
-0.000288797
-0.00165503
-0.000358059
-0.00163724
-0.000473504
-0.00158271
-0.000656438
-0.00145602
-0.000936308
-0.00118206
-0.00131971
-0.000616755
-0.00164563
-2.41327e-05
-0.00113878
0.0013162
-0.00069182
0.00875508
-0.000263308
0.00181753
0.0005387
-0.00058875
0.000733623
4.16815e-06
0.000415178
0.000725715
6.46383e-05
0.000659479
-0.000176545
0.000353976
-0.000316331
0.000146098
-0.000387529
3.03195e-05
-0.000425035
-3.02606e-05
-0.000464191
-6.015e-05
-0.000527995
-8.53181e-05
-0.000627348
-0.000123663
-0.000764778
-0.00017757
-0.000932992
-0.000235603
-0.00110905
-0.000273514
-0.00125231
-0.00026664
-0.00133144
-0.000218001
-0.00135199
-0.000157905
-0.00133678
-0.000109106
-0.00130717
-8.06139e-05
-0.00127755
-7.31249e-05
-0.00125675
-8.28833e-05
-0.00124583
-0.000102126
-0.00124131
-0.000124104
-0.00124149
-0.000146216
-0.00124551
-0.000166338
-0.00125345
-0.000183026
-0.00126695
-0.000195443
-0.00128987
-0.000203829
-0.00132881
-0.000210865
-0.00139358
-0.00022373
-0.00149531
-0.000256029
-0.001639
-0.000329521
-0.00181985
-0.000475294
-0.00203295
-0.000722926
-0.00227753
-0.00107484
-0.00244931
-0.00147354
-0.00194848
-0.00163926
-0.000606634
0.00169161
0.00747898
0.00275718
0.000752221
0.00306479
-0.000896038
0.00246575
0.000603549
0.00174059
0.00145119
0.00126037
0.00113999
0.000933226
0.000681393
0.000704413
0.000375165
0.000543061
0.00019192
0.000431187
8.18623e-05
0.000351938
1.93508e-05
0.000282986
-1.61136e-05
0.000202392
-4.28145e-05
9.72427e-05
-7.21624e-05
-3.2919e-05
-0.00010518
-0.000172423
-0.000133745
-0.000294279
-0.000144515
-0.000377884
-0.000134124
-0.000422561
-0.000112954
-0.000439084
-9.23066e-05
-0.000440169
-7.92496e-05
-0.000436683
-7.63288e-05
-0.000436276
-8.30054e-05
-0.000441901
-9.62117e-05
-0.000453261
-0.000112452
-0.000469878
-0.000129303
-0.000490893
-0.000145022
-0.000515449
-0.000158165
-0.000543321
-0.000167262
-0.00057586
-0.000170977
-0.000617596
-0.000168814
-0.000678637
-0.000162373
-0.00077703
-0.000157321
-0.000939167
-0.000167073
-0.00119841
-0.000215744
-0.00159893
-0.000322115
-0.00221314
-0.000460332
-0.00302788
-0.000658516
-0.00313423
-0.00153261
-0.00365511
0.00793082
0.00866684
0.00667132
0.00109985
0.00386018
0.00341506
0.00265721
0.00265451
0.00209602
0.00170148
0.00179155
0.00098614
0.00161281
0.000554178
0.00149491
0.000310091
0.00140486
0.000172193
0.00132796
9.65218e-05
0.00125585
5.62821e-05
0.0011811
3.22208e-05
0.00109744
1.17923e-05
0.00100265
-1.01044e-05
0.000901005
-3.18057e-05
0.000804558
-4.77761e-05
0.000725678
-5.49519e-05
0.000668475
-5.54579e-05
0.000629875
-5.34123e-05
0.000604114
-5.31938e-05
0.000584616
-5.65349e-05
0.000565853
-6.3944e-05
0.000544649
-7.47069e-05
0.000519875
-8.73749e-05
0.000490644
-9.97658e-05
0.000457306
-0.000111374
0.000421239
-0.000121784
0.000384571
-0.000130275
0.00035004
-0.000136124
0.000320764
-0.000139209
0.000299883
-0.000141161
0.000290276
-0.000147381
0.000293557
-0.000170021
0.000307211
-0.000229068
0.000327732
-0.00034231
0.000377951
-0.00051023
0.000497971
-0.000778219
0.000447894
-0.00148222
-0.00311292
-0.00326324
0.00252355
-0.00152708
0.00167934
0.000263587
0.000864225
0.0012551
0.000710295
0.00172849
0.000513071
0.00197275
0.000310239
0.00210563
0.000177541
0.00217572
0.000102441
0.0022085
6.40776e-05
0.00221673
4.83815e-05
0.0022052
4.40898e-05
0.00217438
4.29417e-05
0.00212505
3.95604e-05
0.00206121
3.23586e-05
0.0019902
2.35647e-05
0.00192031
1.52593e-05
0.00185725
7.92824e-06
0.00180334
8.18859e-07
0.00175783
-7.36841e-06
0.00171794
-1.63296e-05
0.00168061
-2.62956e-05
0.00164342
-3.72047e-05
0.00160499
-4.86294e-05
0.00156356
-5.80151e-05
0.00151912
-6.6619e-05
0.00147263
-7.4973e-05
0.00142589
-8.32021e-05
0.0013817
-9.16085e-05
0.00134398
-0.000101161
0.00131746
-0.000114305
0.00130669
-0.000136272
0.00131371
-0.000176698
0.00133505
-0.000250065
0.00136461
-0.000371534
0.00140616
-0.000551444
0.00144382
-0.000815547
0.00123592
-0.001274
-0.00185725
-0.000471921
0.00297117
0.00107628
0.000131631
0.00169598
0.000244988
0.00221377
0.000192947
0.00266571
6.15535e-05
0.00296901
7.36963e-06
0.00313831
8.65685e-06
0.00321444
2.67236e-05
0.00323192
4.70068e-05
0.00321578
6.49307e-05
0.00318275
7.75149e-05
0.00314264
8.34361e-05
0.00309946
8.31193e-05
0.00305405
7.81389e-05
0.00300739
7.05863e-05
0.00296105
6.19544e-05
0.00291646
5.28722e-05
0.00287416
4.34691e-05
0.00283262
3.45096e-05
0.00279101
2.56255e-05
0.00274808
1.69669e-05
0.00270261
8.59821e-06
0.00265364
6.71279e-07
0.00260204
-6.08443e-06
0.00254826
-1.25169e-05
0.00249257
-1.89548e-05
0.00243558
-2.58809e-05
0.00237835
-3.40532e-05
0.00232224
-4.4712e-05
0.00226818
-5.9914e-05
0.00221521
-8.297e-05
0.00215777
-0.000118911
0.00208272
-0.000174685
0.00197008
-0.000258558
0.00179775
-0.000378779
0.00152201
-0.000539479
0.00101872
-0.000770383
-0.000817536
0.00456272
0.000870696
0.003803
0.00389471
0.0040962
0.00424118
0.00425011
0.00420058
0.00414885
0.00411277
0.00409569
0.00409636
0.00411026
0.00413123
0.00415328
0.00417178
0.00418414
0.00418917
0.00418634
0.00417522
0.00415616
0.00412913
0.00409431
0.00405191
0.00400233
0.00394675
0.00388546
0.00381844
0.00374519
0.00366442
0.00357363
0.00346824
0.00334033
0.00317695
0.00295817
0.00265578
0.00223328
0.00165003
0.000836382
)
;

boundaryField
{
    floor
    {
        type            calculated;
        value           nonuniform List<scalar> 
29
(
0
0
0
0
0
0
0
0
0
0
0
0
0
0
0
0
0
0
0
0
-3.6553e-06
-8.20009e-06
-2.15459e-06
1.18795e-06
-5.13853e-07
-3.44597e-06
-6.8968e-06
-6.3808e-06
-2.42226e-06
)
;
    }
    ceiling
    {
        type            calculated;
        value           nonuniform List<scalar> 
43
(
0.000111395
9.07469e-05
3.9393e-05
4.04659e-05
4.40612e-05
4.85253e-05
5.31866e-05
5.74598e-05
6.09319e-05
6.33456e-05
6.45953e-05
6.4761e-05
6.40962e-05
6.29241e-05
6.15215e-05
6.00678e-05
5.8656e-05
5.7328e-05
5.61009e-05
5.49791e-05
5.39551e-05
5.30193e-05
5.21581e-05
5.13563e-05
5.05994e-05
4.98489e-05
4.91135e-05
4.83995e-05
4.77088e-05
4.70431e-05
4.64069e-05
4.58091e-05
4.52647e-05
4.47934e-05
4.44167e-05
4.41579e-05
4.40457e-05
4.40916e-05
4.35771e-05
4.72458e-05
1.87102e-05
1.64264e-05
2.48919e-05
)
;
    }
    sWall
    {
        type            calculated;
        value           uniform -9.96574e-05;
    }
    nWall
    {
        type            calculated;
        value           nonuniform List<scalar> 6(-2.14035e-05 -2.66591e-05 -2.5134e-05 -1.94304e-05 -2.06807e-05 -2.80942e-05);
    }
    sideWalls
    {
        type            empty;
        value           nonuniform 0();
    }
    glass1
    {
        type            calculated;
        value           nonuniform List<scalar> 9(-5.4309e-05 -0.000136661 -0.000198937 -0.000249492 -0.000293046 -0.000331703 -0.000367705 -0.000415316 -0.000470353);
    }
    glass2
    {
        type            calculated;
        value           nonuniform List<scalar> 2(-8.54544e-05 -9.39894e-05);
    }
    sun
    {
        type            calculated;
        value           uniform 0;
    }
    heatsource1
    {
        type            calculated;
        value           nonuniform List<scalar> 3(2.01105e-07 2.01134e-07 2.01257e-07);
    }
    heatsource2
    {
        type            calculated;
        value           nonuniform List<scalar> 4(5.05867e-08 5.07703e-08 0 0);
    }
    Table_master
    {
        type            calculated;
        value           nonuniform List<scalar> 9(-1.52844e-07 -1.52753e-07 -1.52663e-07 -1.52582e-07 -1.52508e-07 -1.52438e-07 -1.52361e-07 -1.52271e-07 -1.52135e-07);
    }
    Table_slave
    {
        type            calculated;
        value           nonuniform List<scalar> 9(1.50961e-07 1.50969e-07 1.50981e-07 1.50998e-07 1.5102e-07 1.51046e-07 1.51075e-07 1.51111e-07 1.51133e-07);
    }
    inlet
    {
        type            calculated;
        value           uniform 0.0018402;
    }
    outlet
    {
        type            calculated;
        value           nonuniform List<scalar> 2(-0.00457407 0.00360168);
    }
}


// ************************************************************************* //
