/*--------------------------------*- C++ -*----------------------------------*\
  =========                 |
  \\      /  F ield         | OpenFOAM: The Open Source CFD Toolbox
   \\    /   O peration     | Website:  https://openfoam.org
    \\  /    A nd           | Version:  6
     \\/     M anipulation  |
\*---------------------------------------------------------------------------*/
FoamFile
{
    version     2.0;
    format      ascii;
    class       volScalarField;
    location    "800";
    object      epsilon;
}
// * * * * * * * * * * * * * * * * * * * * * * * * * * * * * * * * * * * * * //

dimensions      [0 2 -3 0 0 0 0];

internalField   nonuniform List<scalar> 
459
(
0.000434046
0.00056251
0.000594549
0.000683812
0.000774347
0.000866998
0.000966481
0.0010665
0.0011391
0.0011649
0.00112792
0.00102321
0.000859639
0.000662469
0.00047394
3.57655e-05
6.04788e-05
8.73338e-05
9.07438e-05
8.36414e-05
7.37398e-05
6.1e-05
4.95549e-05
4.04617e-05
3.33989e-05
2.78882e-05
2.3543e-05
2.00876e-05
1.72987e-05
1.49772e-05
1.29537e-05
1.10743e-05
1.00671e-05
7.77035e-06
0.00109752
0.00160174
0.000528036
0.000510756
0.000534197
0.000575477
0.000638999
0.000721776
0.000799077
0.000844592
0.000838583
0.00077683
0.000668926
0.000537721
0.000430285
0.000500719
0.000126736
4.01929e-05
9.33185e-05
0.000104875
9.88838e-05
8.67772e-05
7.45221e-05
6.87315e-05
5.56633e-05
4.39362e-05
3.46701e-05
2.75584e-05
2.2127e-05
1.79762e-05
1.48133e-05
1.24881e-05
1.10495e-05
1.04226e-05
2.74279e-05
1.85292e-05
0.00199837
0.00393145
0.000649999
0.000485469
0.000507765
0.000571289
0.000667625
0.000788061
0.000895775
0.000956482
0.000953888
0.000890968
0.000780058
0.000647367
0.000527028
0.000466997
0.000562686
0.00025785
0.000205101
0.000164636
0.000133072
0.000108339
9.35809e-05
0.000174233
0.00012018
8.56193e-05
6.30473e-05
4.78794e-05
3.73881e-05
2.9947e-05
2.45869e-05
2.07479e-05
1.58579e-05
1.33916e-05
5.28486e-05
2.98326e-05
0.00323212
0.0081631
0.00102415
0.00048956
0.000495427
0.000585439
0.000732028
0.000910937
0.00104594
0.00110678
0.0010912
0.00101181
0.000879179
0.000728169
0.000596745
0.000512155
0.000494202
0.000893154
0.000519935
0.000321036
0.000219854
0.000161854
0.000125631
0.000109073
0.000253694
0.000194421
0.000158582
0.000134561
0.000116011
0.000100086
8.61519e-05
7.28684e-05
5.91505e-05
3.50517e-05
2.27966e-05
9.04067e-05
4.12575e-05
0.00492608
0.0145752
0.00201779
0.000572875
0.000501049
0.000623045
0.000890117
0.0011519
0.00129133
0.00132639
0.00127685
0.00116119
0.000994684
0.000805216
0.000625352
0.000480944
0.000384898
0.000346653
0.000286299
0.000231065
0.000186434
0.000151152
0.000123563
0.000104363
0.000101135
9.47356e-05
8.84806e-05
8.21986e-05
7.53265e-05
6.76983e-05
6.00545e-05
5.27925e-05
4.61039e-05
3.68821e-05
2.83124e-05
6.36212e-05
4.82248e-05
7.76307e-05
0.000134862
0.000191324
0.00727986
0.0216828
0.00453978
0.00106521
0.000704776
0.000836795
0.00136447
0.00161678
0.0016833
0.00164744
0.00154195
0.00137392
0.00115216
0.000903747
0.000666754
0.000475869
0.000347948
0.000278241
0.00023663
0.000202702
0.000170903
0.000142607
0.000119367
0.000102721
9.43685e-05
9.09966e-05
8.92891e-05
8.715e-05
8.33108e-05
7.67774e-05
6.73173e-05
5.74086e-05
4.83674e-05
4.02559e-05
3.50095e-05
4.73192e-05
4.98415e-05
6.04028e-05
0.000249577
0.000220133
0.0100746
0.0259566
0.0094598
0.00350031
0.00227327
0.00229786
0.00247477
0.00243093
0.00228927
0.00211226
0.00190395
0.00164864
0.00134428
0.00101857
0.000715615
0.00047982
0.000329624
0.000251134
0.000210158
0.000180078
0.000152591
0.000128922
0.000110998
0.000100008
9.62582e-05
9.75992e-05
0.000101
0.000104647
0.00010727
0.000107054
0.000100537
8.90652e-05
7.774e-05
6.82482e-05
6.48047e-05
7.35893e-05
9.54126e-05
0.000154749
0.000351598
0.000341047
0.010756
0.0288743
0.0157068
0.0100164
0.00714892
0.00552474
0.0043827
0.00361727
0.00309611
0.00270455
0.00234844
0.00196593
0.0015422
0.00111307
0.000728602
0.000448818
0.000287338
0.000210529
0.000173859
0.000148018
0.000126655
0.000110676
0.000100923
9.7492e-05
9.97928e-05
0.000106459
0.000116198
0.000128608
0.000143774
0.000161576
0.000180896
0.000193963
0.000205101
0.000229198
0.000278915
0.000425994
0.00079655
0.00150298
0.00427611
0.00124264
0.00999294
0.0169918
0.0136211
0.0102903
0.00785944
0.00620676
0.00509163
0.00432904
0.0037749
0.0032982
0.00280126
0.00224009
0.00163453
0.00107038
0.000590566
0.000318201
0.000205984
0.000156449
0.000130085
0.000111952
9.89332e-05
9.11256e-05
8.85202e-05
9.0764e-05
9.73181e-05
0.000107728
0.00012203
0.000140997
0.000166114
0.000199575
0.000244336
0.000304551
0.000387092
0.000509771
0.000688709
0.000928008
0.00119668
0.00142567
0.00160349
0.0010031
0.00495477
0.00666063
0.00675443
0.00626689
0.00558499
0.00492994
0.00426866
0.00353988
0.00273794
0.00187284
0.00101645
0.000536723
0.000286673
0.00017347
0.000123183
9.8117e-05
8.35652e-05
7.44529e-05
6.92657e-05
6.7476e-05
6.88511e-05
7.30911e-05
8.00014e-05
8.96535e-05
0.000102489
0.000119387
0.000141764
0.000171776
0.000212815
0.000270192
0.000349511
0.000458022
0.000598587
0.000756785
0.000889299
0.00094134
0.000872299
0.000550399
0.00342891
0.00681363
0.00673645
0.0053963
0.00452492
0.00378678
0.00289622
0.00199089
0.00124869
0.000723569
0.000400323
0.000224519
0.000136039
9.40934e-05
7.35216e-05
6.25534e-05
5.65213e-05
5.3701e-05
5.33921e-05
5.52112e-05
5.88462e-05
6.42338e-05
7.15068e-05
8.09642e-05
9.31404e-05
0.000108898
0.000129577
0.000157236
0.00019477
0.000245973
0.000315996
0.000409787
0.000527408
0.000660741
0.000755823
0.000848519
0.000783733
0.000577288
0.00271637
0.00271316
0.00286554
0.00318927
0.00236413
0.00182025
0.00158982
0.00136795
0.00109152
0.00080575
0.000554106
0.00036579
0.000241015
0.000165149
0.000121264
9.52471e-05
7.8949e-05
6.85687e-05
6.24363e-05
5.96786e-05
5.96601e-05
6.19099e-05
6.6153e-05
7.23945e-05
8.05221e-05
9.07553e-05
0.000103521
0.000119461
0.000139565
0.000165485
0.000198221
0.000239339
0.000291276
0.000357108
0.000439731
0.000558392
0.000592601
0.000545318
0.000448013
0.000355858
)
;

boundaryField
{
    floor
    {
        Cmu             0.09;
        kappa           0.41;
        E               9.8;
        type            epsilonWallFunction;
        value           nonuniform List<scalar> 
29
(
0.00047394
3.57655e-05
6.04788e-05
8.73338e-05
9.07438e-05
8.36414e-05
7.37398e-05
6.1e-05
4.95549e-05
4.04617e-05
3.33989e-05
2.78882e-05
2.3543e-05
2.00876e-05
1.72987e-05
1.49772e-05
1.29537e-05
1.10743e-05
1.00671e-05
7.77035e-06
7.77035e-06
1.85292e-05
2.98326e-05
4.12575e-05
0.00047394
3.57655e-05
4.01929e-05
0.00025785
0.000893154
)
;
    }
    ceiling
    {
        Cmu             0.09;
        kappa           0.41;
        E               9.8;
        type            epsilonWallFunction;
        value           nonuniform List<scalar> 
43
(
0.00271637
0.00271316
0.00286554
0.00318927
0.00236413
0.00182025
0.00158982
0.00136795
0.00109152
0.00080575
0.000554106
0.00036579
0.000241015
0.000165149
0.000121264
9.52471e-05
7.8949e-05
6.85687e-05
6.24363e-05
5.96786e-05
5.96601e-05
6.19099e-05
6.6153e-05
7.23945e-05
8.05221e-05
9.07553e-05
0.000103521
0.000119461
0.000139565
0.000165485
0.000198221
0.000239339
0.000291276
0.000357108
0.000439731
0.000558392
0.000592601
0.000545318
0.000448013
0.000355858
0.00999294
0.0169918
0.00342891
)
;
    }
    sWall
    {
        Cmu             0.09;
        kappa           0.41;
        E               9.8;
        type            epsilonWallFunction;
        value           uniform 0.00271637;
    }
    nWall
    {
        Cmu             0.09;
        kappa           0.41;
        E               9.8;
        type            epsilonWallFunction;
        value           nonuniform List<scalar> 6(0.000191324 0.000220133 0.000341047 0.000550399 0.000577288 0.000355858);
    }
    sideWalls
    {
        type            empty;
    }
    glass1
    {
        Cmu             0.09;
        kappa           0.41;
        E               9.8;
        type            epsilonWallFunction;
        value           nonuniform List<scalar> 9(0.000434046 0.00109752 0.00199837 0.00323212 0.00492608 0.00727986 0.0100746 0.010756 0.00999294);
    }
    glass2
    {
        Cmu             0.09;
        kappa           0.41;
        E               9.8;
        type            epsilonWallFunction;
        value           nonuniform List<scalar> 2(0.00124264 0.0010031);
    }
    sun
    {
        Cmu             0.09;
        kappa           0.41;
        E               9.8;
        type            epsilonWallFunction;
        value           nonuniform List<scalar> 
14
(
0.000434046
0.00056251
0.000594549
0.000683812
0.000774347
0.000866998
0.000966481
0.0010665
0.0011391
0.0011649
0.00112792
0.00102321
0.000859639
0.000662469
)
;
    }
    heatsource1
    {
        Cmu             0.09;
        kappa           0.41;
        E               9.8;
        type            epsilonWallFunction;
        value           nonuniform List<scalar> 3(7.76307e-05 0.000134862 0.000191324);
    }
    heatsource2
    {
        Cmu             0.09;
        kappa           0.41;
        E               9.8;
        type            epsilonWallFunction;
        value           nonuniform List<scalar> 4(0.000500719 0.000126736 0.000126736 0.000562686);
    }
    Table_master
    {
        Cmu             0.09;
        kappa           0.41;
        E               9.8;
        type            epsilonWallFunction;
        value           nonuniform List<scalar> 9(0.000174233 0.00012018 8.56193e-05 6.30473e-05 4.78794e-05 3.73881e-05 2.9947e-05 2.45869e-05 2.07479e-05);
    }
    Table_slave
    {
        Cmu             0.09;
        kappa           0.41;
        E               9.8;
        type            epsilonWallFunction;
        value           nonuniform List<scalar> 9(0.000253694 0.000194421 0.000158582 0.000134561 0.000116011 0.000100086 8.61519e-05 7.28684e-05 5.91505e-05);
    }
    inlet
    {
        type            turbulentMixingLengthDissipationRateInlet;
        mixingLength    0.01;
        phi             phi;
        k               k;
        value           uniform 0.000101881;
    }
    outlet
    {
        type            zeroGradient;
    }
}


// ************************************************************************* //
