/*--------------------------------*- C++ -*----------------------------------*\
  =========                 |
  \\      /  F ield         | OpenFOAM: The Open Source CFD Toolbox
   \\    /   O peration     | Website:  https://openfoam.org
    \\  /    A nd           | Version:  6
     \\/     M anipulation  |
\*---------------------------------------------------------------------------*/
FoamFile
{
    version     2.0;
    format      ascii;
    class       volScalarField;
    location    "1500";
    object      epsilon;
}
// * * * * * * * * * * * * * * * * * * * * * * * * * * * * * * * * * * * * * //

dimensions      [0 2 -3 0 0 0 0];

internalField   nonuniform List<scalar> 
459
(
0.000426533
0.000552671
0.000584554
0.000672267
0.000761011
0.000851585
0.000948434
0.00104763
0.00112139
0.0011509
0.00111993
0.00102255
0.000866855
0.000677093
0.00049225
3.53489e-05
6.01941e-05
8.68553e-05
8.93983e-05
8.20223e-05
7.20794e-05
5.96146e-05
4.84697e-05
3.96187e-05
3.27404e-05
2.73697e-05
2.31313e-05
1.97541e-05
1.70275e-05
1.47566e-05
1.27751e-05
1.09291e-05
9.87836e-06
7.58096e-06
0.00107807
0.00157679
0.000518813
0.00050191
0.00052424
0.000563479
0.000623996
0.000704582
0.000781841
0.000830216
0.000829332
0.000773364
0.000670735
0.000543742
0.000438951
0.000519361
0.000124004
4.01282e-05
9.48542e-05
0.000105746
9.90988e-05
8.64338e-05
7.37675e-05
6.75935e-05
5.46659e-05
4.31358e-05
3.40394e-05
2.70611e-05
2.17311e-05
1.76539e-05
1.45493e-05
1.22708e-05
1.08725e-05
1.02768e-05
2.62128e-05
1.78595e-05
0.00196418
0.00387863
0.000637337
0.000475055
0.00049546
0.000555496
0.000647264
0.000764287
0.000872429
0.000937249
0.000941076
0.000884941
0.000780493
0.000653323
0.000534962
0.000476941
0.000566901
0.000267105
0.000209764
0.000167057
0.000134042
0.000108373
9.28445e-05
0.000171336
0.000118595
8.47433e-05
6.25572e-05
4.76034e-05
3.72339e-05
2.98622e-05
2.45401e-05
2.07132e-05
1.58008e-05
1.32525e-05
4.94107e-05
2.84678e-05
0.00318086
0.00807243
0.00100542
0.000476888
0.000480032
0.000564169
0.000702472
0.000877439
0.00101509
0.00108191
0.00107408
0.00100256
0.000878266
0.000732219
0.00060344
0.000519831
0.00050137
0.000908994
0.000526181
0.000323826
0.000220854
0.000161738
0.000124813
0.000107575
0.000248617
0.000190571
0.000155299
0.000131614
0.000113382
9.78897e-05
8.43491e-05
7.14627e-05
5.81725e-05
3.46202e-05
2.24079e-05
8.18398e-05
3.93448e-05
0.00485609
0.0144415
0.00198857
0.000557005
0.000482029
0.000593479
0.000842375
0.00110562
0.00125267
0.00129611
0.00125566
0.00114949
0.000991983
0.0008091
0.000632451
0.000488059
0.000389789
0.000348724
0.000286757
0.00023037
0.00018489
0.000149116
0.000121365
0.000102133
9.86223e-05
9.2243e-05
8.60667e-05
7.99097e-05
7.32305e-05
6.58863e-05
5.85277e-05
5.15208e-05
4.507e-05
3.61997e-05
2.77889e-05
5.88122e-05
4.53924e-05
7.41868e-05
0.000130011
0.00018414
0.00718958
0.0215099
0.00449107
0.00104011
0.000677285
0.000789253
0.0012919
0.00155952
0.00163833
0.00161234
0.00151684
0.00136005
0.00114927
0.000909118
0.000675941
0.000484436
0.000353382
0.000280229
0.000236113
0.000200611
0.000168006
0.000139521
0.000116506
0.000100226
9.21083e-05
8.88467e-05
8.71874e-05
8.50904e-05
8.13317e-05
7.4962e-05
6.58311e-05
5.62161e-05
4.73807e-05
3.94726e-05
3.42636e-05
4.48089e-05
4.68904e-05
5.72952e-05
0.000240224
0.000210593
0.00996976
0.0257625
0.00937898
0.00344385
0.00220547
0.00217926
0.00239175
0.00237008
0.00224121
0.00207408
0.00187675
0.00163454
0.0013431
0.00102711
0.000728481
0.000491125
0.000336355
0.00025324
0.000209106
0.000177419
0.000149428
0.000125959
0.000108586
9.8169e-05
9.47742e-05
9.62133e-05
9.95305e-05
0.000102959
0.000105267
0.000104748
9.81371e-05
8.69505e-05
7.57619e-05
6.62488e-05
6.2419e-05
6.96787e-05
8.87579e-05
0.000141813
0.000325833
0.000317179
0.0106533
0.0287174
0.0156104
0.00994737
0.0070606
0.00546092
0.0043289
0.0035675
0.00305012
0.00266577
0.00232163
0.0019548
0.00154585
0.0011274
0.00074741
0.000463408
0.000295018
0.000212568
0.000172719
0.000145992
0.000124694
0.000109209
0.000100045
9.7073e-05
9.95775e-05
0.000106159
0.000115524
0.000127253
0.000141424
0.000157945
0.000175791
0.000187341
0.000197164
0.000218333
0.000262397
0.00039458
0.000729269
0.00137602
0.00400429
0.00118548
0.00990264
0.0168618
0.0135306
0.0102202
0.00779857
0.00614763
0.00503213
0.00427007
0.00372103
0.00325668
0.0027782
0.00223899
0.00164908
0.00109485
0.000620341
0.000332743
0.000212478
0.000159146
0.000131113
0.000112443
9.95895e-05
9.21408e-05
8.98405e-05
9.2197e-05
9.86053e-05
0.000108575
0.000122093
0.000139863
0.000163268
0.000194349
0.000235832
0.000291687
0.000368425
0.000483614
0.000653197
0.000883112
0.00114575
0.00137452
0.00155089
0.000970114
0.0049399
0.0066431
0.00668321
0.00619121
0.00551616
0.00487112
0.00422961
0.003527
0.00275073
0.00192309
0.00105682
0.000562117
0.000301283
0.000180346
0.000127707
0.000101832
8.71226e-05
7.80976e-05
7.2891e-05
7.1016e-05
7.21302e-05
7.58651e-05
8.20163e-05
9.06476e-05
0.000102189
0.000117496
0.000137935
0.000165572
0.000203644
0.000257099
0.000331295
0.000433374
0.000566701
0.000718668
0.000848597
0.000902419
0.000846864
0.000535884
0.00339866
0.00675212
0.00666031
0.00535858
0.00452435
0.00385008
0.00300087
0.00209975
0.00133574
0.000782358
0.00043111
0.000243335
0.000149061
0.000104755
8.38028e-05
7.30267e-05
6.72098e-05
6.43837e-05
6.37602e-05
6.49479e-05
6.76992e-05
7.20098e-05
7.80595e-05
8.61312e-05
9.67238e-05
0.00011065
0.000129182
0.000154272
0.000188655
0.000235939
0.000301037
0.000388867
0.000499963
0.00062589
0.000719344
0.000814539
0.000763143
0.000563355
0.00270747
0.00268834
0.00284026
0.00316099
0.0023493
0.00181542
0.00159222
0.00138767
0.0011225
0.00084465
0.000588067
0.000390893
0.000258415
0.00017795
0.0001317
0.000104524
8.75726e-05
7.66897e-05
7.00434e-05
6.67129e-05
6.60701e-05
6.76502e-05
7.11963e-05
7.67215e-05
8.40761e-05
9.34647e-05
0.00010529
0.000120154
0.000138985
0.000163314
0.000193929
0.000232349
0.000280858
0.000342356
0.00041965
0.000527399
0.000564563
0.000522317
0.000429257
0.000343037
)
;

boundaryField
{
    floor
    {
        Cmu             0.09;
        kappa           0.41;
        E               9.8;
        type            epsilonWallFunction;
        value           nonuniform List<scalar> 
29
(
0.00049225
3.53489e-05
6.01941e-05
8.68553e-05
8.93983e-05
8.20223e-05
7.20794e-05
5.96146e-05
4.84697e-05
3.96187e-05
3.27404e-05
2.73697e-05
2.31313e-05
1.97541e-05
1.70275e-05
1.47566e-05
1.27751e-05
1.09291e-05
9.87836e-06
7.58096e-06
7.58096e-06
1.78595e-05
2.84678e-05
3.93448e-05
0.00049225
3.53489e-05
4.01282e-05
0.000267105
0.000908994
)
;
    }
    ceiling
    {
        Cmu             0.09;
        kappa           0.41;
        E               9.8;
        type            epsilonWallFunction;
        value           nonuniform List<scalar> 
43
(
0.00270747
0.00268834
0.00284026
0.00316099
0.0023493
0.00181542
0.00159222
0.00138767
0.0011225
0.00084465
0.000588067
0.000390893
0.000258415
0.00017795
0.0001317
0.000104524
8.75726e-05
7.66897e-05
7.00434e-05
6.67129e-05
6.60701e-05
6.76502e-05
7.11963e-05
7.67215e-05
8.40761e-05
9.34647e-05
0.00010529
0.000120154
0.000138985
0.000163314
0.000193929
0.000232349
0.000280858
0.000342356
0.00041965
0.000527399
0.000564563
0.000522317
0.000429257
0.000343037
0.00990264
0.0168618
0.00339866
)
;
    }
    sWall
    {
        Cmu             0.09;
        kappa           0.41;
        E               9.8;
        type            epsilonWallFunction;
        value           uniform 0.00270747;
    }
    nWall
    {
        Cmu             0.09;
        kappa           0.41;
        E               9.8;
        type            epsilonWallFunction;
        value           nonuniform List<scalar> 6(0.00018414 0.000210593 0.000317179 0.000535884 0.000563355 0.000343037);
    }
    sideWalls
    {
        type            empty;
    }
    glass1
    {
        Cmu             0.09;
        kappa           0.41;
        E               9.8;
        type            epsilonWallFunction;
        value           nonuniform List<scalar> 9(0.000426533 0.00107807 0.00196418 0.00318086 0.00485609 0.00718958 0.00996976 0.0106533 0.00990264);
    }
    glass2
    {
        Cmu             0.09;
        kappa           0.41;
        E               9.8;
        type            epsilonWallFunction;
        value           nonuniform List<scalar> 2(0.00118548 0.000970114);
    }
    sun
    {
        Cmu             0.09;
        kappa           0.41;
        E               9.8;
        type            epsilonWallFunction;
        value           nonuniform List<scalar> 
14
(
0.000426533
0.000552671
0.000584554
0.000672267
0.000761011
0.000851585
0.000948434
0.00104763
0.00112139
0.0011509
0.00111993
0.00102255
0.000866855
0.000677093
)
;
    }
    heatsource1
    {
        Cmu             0.09;
        kappa           0.41;
        E               9.8;
        type            epsilonWallFunction;
        value           nonuniform List<scalar> 3(7.41868e-05 0.000130011 0.00018414);
    }
    heatsource2
    {
        Cmu             0.09;
        kappa           0.41;
        E               9.8;
        type            epsilonWallFunction;
        value           nonuniform List<scalar> 4(0.000519361 0.000124004 0.000124004 0.000566901);
    }
    Table_master
    {
        Cmu             0.09;
        kappa           0.41;
        E               9.8;
        type            epsilonWallFunction;
        value           nonuniform List<scalar> 9(0.000171336 0.000118595 8.47433e-05 6.25572e-05 4.76034e-05 3.72339e-05 2.98622e-05 2.45401e-05 2.07132e-05);
    }
    Table_slave
    {
        Cmu             0.09;
        kappa           0.41;
        E               9.8;
        type            epsilonWallFunction;
        value           nonuniform List<scalar> 9(0.000248617 0.000190571 0.000155299 0.000131614 0.000113382 9.78897e-05 8.43491e-05 7.14627e-05 5.81725e-05);
    }
    inlet
    {
        type            turbulentMixingLengthDissipationRateInlet;
        mixingLength    0.01;
        phi             phi;
        k               k;
        value           uniform 0.000101881;
    }
    outlet
    {
        type            zeroGradient;
    }
}


// ************************************************************************* //
