/*--------------------------------*- C++ -*----------------------------------*\
  =========                 |
  \\      /  F ield         | OpenFOAM: The Open Source CFD Toolbox
   \\    /   O peration     | Website:  https://openfoam.org
    \\  /    A nd           | Version:  6
     \\/     M anipulation  |
\*---------------------------------------------------------------------------*/
FoamFile
{
    version     2.0;
    format      ascii;
    class       volScalarField;
    location    "1300";
    object      T;
}
// * * * * * * * * * * * * * * * * * * * * * * * * * * * * * * * * * * * * * //

dimensions      [0 0 0 1 0 0 0];

internalField   nonuniform List<scalar> 
459
(
303.389
303.126
303.113
303.109
303.105
303.101
303.097
303.091
303.082
303.07
303.058
303.047
303.041
303.04
303.047
303.135
303.115
303.107
303.109
303.113
303.117
303.121
303.125
303.129
303.133
303.137
303.141
303.145
303.149
303.153
303.156
303.161
303.166
303.186
303.567
303.167
303.145
303.147
303.151
303.151
303.149
303.142
303.125
303.1
303.072
303.049
303.033
303.026
303.025
303.023
303.02
303.138
303.099
303.093
303.095
303.1
303.104
303.106
303.108
303.109
303.11
303.112
303.113
303.114
303.116
303.118
303.122
303.128
303.137
303.169
303.754
303.218
303.181
303.193
303.207
303.218
303.223
303.216
303.189
303.145
303.096
303.056
303.031
303.02
303.02
303.021
303.022
303.088
303.081
303.084
303.093
303.103
303.111
303.111
303.111
303.111
303.111
303.111
303.111
303.111
303.112
303.112
303.115
303.119
303.128
303.162
303.942
303.28
303.218
303.237
303.267
303.296
303.314
303.309
303.266
303.195
303.119
303.061
303.026
303.014
303.016
303.021
303.026
303.036
303.049
303.066
303.085
303.104
303.121
303.134
303.145
303.154
303.162
303.169
303.175
303.18
303.184
303.186
303.187
303.165
303.145
303.136
303.162
304.126
303.358
303.257
303.273
303.316
303.364
303.405
303.399
303.334
303.232
303.129
303.057
303.018
303.006
303.012
303.025
303.038
303.054
303.072
303.094
303.117
303.139
303.158
303.174
303.189
303.2
303.21
303.217
303.222
303.224
303.223
303.22
303.213
303.195
303.17
303.149
303.159
303.233
303.279
303.286
304.291
303.458
303.322
303.314
303.355
303.416
303.479
303.455
303.362
303.238
303.122
303.041
303
302.995
303.01
303.034
303.059
303.084
303.11
303.136
303.162
303.185
303.204
303.22
303.233
303.244
303.252
303.258
303.261
303.26
303.255
303.247
303.236
303.218
303.193
303.167
303.162
303.193
303.21
303.246
304.44
303.619
303.475
303.44
303.459
303.515
303.541
303.475
303.343
303.194
303.07
302.994
302.968
302.981
303.016
303.058
303.097
303.131
303.163
303.191
303.215
303.236
303.253
303.266
303.276
303.284
303.29
303.293
303.294
303.29
303.282
303.27
303.256
303.238
303.215
303.19
303.178
303.186
303.196
303.226
304.658
304.042
303.879
303.776
303.728
303.709
303.608
303.431
303.231
303.062
302.954
302.913
302.93
302.979
303.043
303.106
303.157
303.196
303.226
303.249
303.269
303.285
303.297
303.306
303.313
303.318
303.321
303.321
303.319
303.314
303.307
303.294
303.28
303.264
303.246
303.229
303.222
303.235
303.254
303.382
304.968
304.68
304.415
304.184
303.996
303.768
303.433
303.114
302.888
302.778
302.767
302.825
302.922
303.022
303.119
303.191
303.234
303.262
303.283
303.3
303.314
303.325
303.333
303.339
303.343
303.344
303.345
303.343
303.341
303.338
303.336
303.336
303.338
303.345
303.359
303.382
303.415
303.448
303.47
303.525
297.02
299.135
300.244
300.706
301.156
301.602
302.013
302.362
302.643
302.87
303.062
303.169
303.234
303.274
303.299
303.317
303.331
303.342
303.35
303.357
303.361
303.364
303.366
303.367
303.368
303.368
303.369
303.37
303.372
303.374
303.378
303.387
303.4
303.42
303.444
303.467
303.486
303.507
297.447
299.324
300.265
300.972
301.577
302.114
302.521
302.805
303.002
303.136
303.223
303.276
303.309
303.33
303.345
303.356
303.365
303.371
303.376
303.379
303.381
303.383
303.385
303.386
303.387
303.388
303.389
303.39
303.392
303.394
303.398
303.404
303.413
303.426
303.442
303.461
303.459
303.489
301.293
299.545
299.46
301.232
302.101
302.546
302.796
302.974
303.101
303.19
303.253
303.296
303.324
303.343
303.355
303.364
303.37
303.374
303.378
303.381
303.383
303.385
303.387
303.389
303.39
303.392
303.394
303.395
303.397
303.398
303.4
303.402
303.405
303.408
303.413
303.423
303.433
303.439
303.441
303.48
)
;

boundaryField
{
    floor
    {
        type            wallHeatTransfer;
        Tinf            uniform 305.2;
        alphaWall       uniform 0.24;
        value           nonuniform List<scalar> 
29
(
303.268
303.532
303.471
303.435
303.435
303.445
303.458
303.476
303.497
303.517
303.537
303.556
303.574
303.592
303.609
303.625
303.642
303.661
303.675
303.716
303.716
303.62
303.572
303.544
303.268
303.532
303.523
303.341
303.227
)
;
    }
    ceiling
    {
        type            wallHeatTransfer;
        Tinf            uniform 303.2;
        alphaWall       uniform 0.24;
        value           nonuniform List<scalar> 
43
(
301.418
299.784
299.701
301.355
302.176
302.594
302.827
302.991
303.109
303.191
303.247
303.285
303.309
303.324
303.333
303.339
303.343
303.346
303.348
303.35
303.352
303.354
303.356
303.358
303.36
303.362
303.365
303.367
303.369
303.371
303.374
303.377
303.38
303.385
303.39
303.401
303.41
303.415
303.415
303.448
304.886
304.621
297.799
)
;
    }
    sWall
    {
        type            wallHeatTransfer;
        Tinf            uniform 315.2;
        alphaWall       uniform 0.36;
        value           uniform 302.621;
    }
    nWall
    {
        type            wallHeatTransfer;
        Tinf            uniform 307.2;
        alphaWall       uniform 0.36;
        value           nonuniform List<scalar> 6(304.01 303.955 303.874 304.039 304.017 304.076);
    }
    sideWalls
    {
        type            empty;
    }
    glass1
    {
        type            wallHeatTransfer;
        Tinf            uniform 315.2;
        alphaWall       uniform 4.3;
        value           nonuniform List<scalar> 9(311.495 310.86 310.459 310.152 309.896 309.664 309.483 309.548 309.771);
    }
    glass2
    {
        type            wallHeatTransfer;
        Tinf            uniform 307.2;
        alphaWall       uniform 4.3;
        value           nonuniform List<scalar> 2(305.739 305.843);
    }
    sun
    {
        type            wallHeatTransfer;
        Tinf            uniform 305.2;
        alphaWall       uniform 0.24;
        value           nonuniform List<scalar> 
14
(
303.582
303.333
303.318
303.308
303.298
303.289
303.279
303.269
303.258
303.246
303.236
303.231
303.233
303.245
)
;
    }
    heatsource1
    {
        type            fixedGradient;
        gradient        uniform 0;
    }
    heatsource2
    {
        type            fixedGradient;
        gradient        uniform 0;
    }
    Table_master
    {
        type            zeroGradient;
    }
    Table_slave
    {
        type            zeroGradient;
    }
    inlet
    {
        type            fixedValue;
        value           uniform 293.15;
    }
    outlet
    {
        type            zeroGradient;
    }
}


// ************************************************************************* //
