/*--------------------------------*- C++ -*----------------------------------*\
  =========                 |
  \\      /  F ield         | OpenFOAM: The Open Source CFD Toolbox
   \\    /   O peration     | Website:  https://openfoam.org
    \\  /    A nd           | Version:  6
     \\/     M anipulation  |
\*---------------------------------------------------------------------------*/
FoamFile
{
    version     2.0;
    format      ascii;
    class       surfaceScalarField;
    location    "1300";
    object      phi;
}
// * * * * * * * * * * * * * * * * * * * * * * * * * * * * * * * * * * * * * //

dimensions      [1 0 -1 0 0 0 0];

internalField   nonuniform List<scalar> 
852
(
-0.00296332
0.00302072
-0.00400788
0.00104456
-0.00480908
0.000801209
-0.00543006
0.000620979
-0.00583675
0.000406697
-0.00600033
0.00016358
-0.0058922
-0.000108129
-0.00549166
-0.00040054
-0.00481831
-0.000673339
-0.00394155
-0.000876758
-0.00296483
-0.000976724
-0.00200167
-0.000963152
-0.00115629
-0.000845379
-0.000493574
-0.000662712
-0.000491879
-0.000792741
0.000795758
-0.000557994
-0.000234746
2.42007e-05
-0.000582193
0.000523719
-0.000499517
0.000873199
-0.000349478
0.00110297
-0.000229771
0.00123219
-0.000129221
0.00129504
-6.2846e-05
0.0013301
-3.50602e-05
0.00135201
-2.19047e-05
0.00136485
-1.28364e-05
0.00137026
-5.4122e-06
0.00136712
3.13756e-06
0.00134843
1.86979e-05
0.00129408
5.43499e-05
0.00117022
0.000123858
0.000965613
0.00020461
0.000714179
0.000251435
0.000718221
-0.00212387
0.00529929
-0.00314824
0.00206893
-0.00397866
0.00163164
-0.0045968
0.00123912
-0.00500286
0.000812763
-0.00517666
0.000337379
-0.00508639
-0.000198392
-0.00471634
-0.000770588
-0.00409935
-0.00129032
-0.003315
-0.00166111
-0.0024638
-0.00182792
-0.0016403
-0.00178664
-0.000924519
-0.00156116
-0.000386409
-0.00120082
-0.000115702
-0.000762584
0.000138301
-0.000254051
0.000138252
0.000221892
0.000582678
0.00061465
-0.000627502
0.000881805
-0.000849346
0.00110451
-0.000722218
0.00128304
-0.000528012
0.00139965
-0.00034638
0.00142111
-0.00015068
0.0014264
-6.81256e-05
0.00143275
-4.14159e-05
0.00143809
-2.72391e-05
0.00144163
-1.63804e-05
0.00144361
-7.3922e-06
0.00144349
3.25943e-06
0.00143829
2.39033e-05
0.00140144
9.12043e-05
0.00124202
0.000283273
0.000963879
0.000482753
0.000616338
0.000598976
0.00134485
-0.00149296
0.00702896
-0.00237882
0.00295479
-0.00312139
0.00237421
-0.00365703
0.00177476
-0.00401832
0.00117406
-0.00417934
0.000498402
-0.00408469
-0.00029304
-0.0037129
-0.00114238
-0.00312407
-0.00187914
-0.00241432
-0.00237086
-0.00167971
-0.00256253
-0.000990585
-0.00247577
-0.000397708
-0.00215403
6.83897e-05
-0.00166691
0.000372383
-0.00106657
0.000500133
-0.000381799
0.000638388
0.00148252
-0.000890123
0.00169977
-0.000844752
0.00165007
-0.000799649
0.00163267
-0.000704811
0.00165364
-0.000548978
0.00169597
-0.000388717
0.00154545
0.00147748
0.00143622
0.00140913
0.00139291
0.00138567
0.00138908
0.00141314
0.0015045
0.00124261
0.000545159
0.0009217
0.000803666
0.000521661
0.000999016
0.00188205
-0.00104507
0.00838061
-0.00174878
0.0036585
-0.00224866
0.00287409
-0.00260826
0.00213436
-0.00285708
0.00142289
-0.00295491
0.00059624
-0.0028034
-0.000444548
-0.00239583
-0.00154995
-0.00183937
-0.0024356
-0.00123587
-0.00297436
-0.000660268
-0.00313813
-0.000148845
-0.00298718
0.000284025
-0.0025869
0.000641974
-0.00202486
0.000959373
-0.00138397
0.00131677
-0.000739189
0.00216329
-0.000208139
0.00248406
-0.000312283
0.00214661
-0.000552671
0.00201045
-0.000708595
0.00187711
-0.000666309
0.00175472
-0.000582418
0.00167315
-0.000467408
0.00160313
-0.000318696
0.00173582
-0.000132839
0.00181304
-7.73678e-05
0.00187384
-6.09623e-05
0.0019214
-4.77121e-05
0.00194276
-2.1508e-05
0.00191705
2.55534e-05
0.00181888
9.80179e-05
0.00161456
0.000204168
0.00124978
0.000364622
0.00109311
0.000701835
0.000788162
0.00110861
0.000327126
0.00146005
0.00222942
-0.000729698
0.0094762
-0.00126344
0.00419225
-0.00138683
0.00299748
-0.00148078
0.00222832
-0.00154124
0.00148335
-0.00148852
0.000543531
-0.00119423
-0.000738835
-0.000742423
-0.00200175
-0.000264486
-0.00291353
0.000163432
-0.00340227
0.000510549
-0.00348524
0.000774163
-0.00325079
0.000979247
-0.00279198
0.00115429
-0.0021999
0.00133234
-0.00156202
0.00156075
-0.000967599
0.00188278
-0.000530171
0.00198007
-0.000409566
0.00189947
-0.000472067
0.00172272
-0.000531851
0.00156006
-0.000503642
0.00141721
-0.000439573
0.0013082
-0.000358395
0.00124938
-0.000259877
0.00127998
-0.000163438
0.00132237
-0.000119758
0.00137029
-0.000108884
0.0014218
-9.92202e-05
0.00146786
-6.75683e-05
0.00148911
4.30838e-06
0.00146362
0.000123506
0.00137777
0.000290009
0.00123182
0.00051057
0.00109476
0.000838898
0.000938962
0.00126441
0.000585583
0.00181343
0.000483286
0.00233171
-0.000989043
0.00147212
-0.00145069
0.000461441
-0.00140218
-0.000631147
0.0105233
-0.000996216
0.00455732
-0.000601042
0.0026023
-0.000305613
0.00193289
-8.8021e-05
0.00126576
0.000257103
0.000198409
0.000754588
-0.00123632
0.001192
-0.00243916
0.00149694
-0.00321847
0.00166072
-0.00356605
0.00171289
-0.0035374
0.00168468
-0.00322258
0.00161081
-0.00271811
0.00152884
-0.00211792
0.00147109
-0.00150426
0.00146179
-0.000958301
0.00149319
-0.000561575
0.00146124
-0.000377612
0.00133703
-0.000347854
0.00115772
-0.000352536
0.000989695
-0.000335621
0.000851692
-0.000301569
0.000752492
-0.000259196
0.000703784
-0.000211168
0.000710845
-0.0001705
0.000749731
-0.000158646
0.00080692
-0.000166074
0.000877396
-0.000169696
0.000956513
-0.000146687
0.00103481
-7.39884e-05
0.00109386
6.44541e-05
0.00112416
0.000259704
0.00113458
0.00050015
0.00116846
0.000805023
0.00127215
0.00116071
0.0014595
0.00162608
0.00190613
0.00188508
0.00216329
0.00121496
0.00177862
0.00084611
0.000434701
-0.000715101
0.011699
-0.000598041
0.00444026
0.00048493
0.00151934
0.00117477
0.00124305
0.00177713
0.000663396
0.00244092
-0.000465378
0.00298225
-0.00177764
0.00327165
-0.00272855
0.00330652
-0.00325334
0.00313458
-0.00339409
0.00282182
-0.00322463
0.00243231
-0.00283306
0.00202205
-0.00230785
0.00163931
-0.00173518
0.00131541
-0.00118036
0.00107015
-0.000713039
0.000898848
-0.000390269
0.000752735
-0.000231499
0.000595537
-0.000190655
0.000434384
-0.000191383
0.00029188
-0.000193116
0.000179825
-0.000189515
0.000103806
-0.000183177
6.94435e-05
-0.000176807
7.65162e-05
-0.000177573
0.000111981
-0.000194112
0.000165331
-0.000219426
0.000234618
-0.000238985
0.00032409
-0.00023616
0.000440329
-0.000190229
0.000577564
-7.27823e-05
0.000720356
0.00011691
0.000874382
0.000346123
0.00107883
0.000600572
0.00138148
0.000858059
0.00184767
0.00115989
0.00252366
0.0012091
0.00304694
0.000691688
0.00306703
0.000826019
0.00356481
0.00261315
0.00960057
0.0032955
0.00375791
0.00347042
0.00134443
0.00395205
0.000761425
0.00467012
-5.46737e-05
0.00535051
-0.00114577
0.00560922
-0.00203634
0.00545904
-0.00257837
0.00499221
-0.0027865
0.00431581
-0.00271768
0.00353309
-0.00244191
0.00272929
-0.00202926
0.00196668
-0.00154524
0.00129957
-0.00106806
0.000752292
-0.000633088
0.000348205
-0.000308952
8.24576e-05
-0.000124522
-9.37039e-05
-5.5338e-05
-0.000230613
-5.37467e-05
-0.000348585
-7.34111e-05
-0.000448279
-9.34228e-05
-0.000526603
-0.000111191
-0.000581327
-0.000128453
-0.000611138
-0.000146997
-0.000618597
-0.000170115
-0.000612563
-0.000200147
-0.000599415
-0.000232576
-0.000579131
-0.00025927
-0.000544518
-0.000270775
-0.000478449
-0.0002563
-0.000349432
-0.000201801
-0.000152639
-7.98848e-05
8.97029e-05
0.000103779
0.000384264
0.000306009
0.000747714
0.000494608
0.00122441
0.000683195
0.00172426
0.000709247
0.00185823
0.000557716
0.000916616
0.00176763
0.00474284
0.0101657
0.0139165
0.012253
0.003008
0.0113631
0.00165132
0.0106209
0.000687463
0.00970593
-0.000230763
0.00853551
-0.000865912
0.0072175
-0.00126035
0.00584757
-0.00141656
0.00449672
-0.00136683
0.00322907
-0.00117426
0.00209052
-0.000890709
0.00109782
-0.000552545
0.00028977
-0.000260015
-0.000299429
-4.38906e-05
-0.000659623
5.12411e-05
-0.000851739
6.75942e-05
-0.000959784
5.27055e-05
-0.00103881
2.52767e-05
-0.00111002
-2.19717e-06
-0.00117683
-2.66162e-05
-0.00123791
-5.01111e-05
-0.00129231
-7.40611e-05
-0.00134098
-9.83203e-05
-0.00138811
-0.000122995
-0.00144127
-0.000146983
-0.00150797
-0.000165879
-0.00159527
-0.000171971
-0.00171132
-0.000154725
-0.00186651
-0.000101117
-0.00206994
1.62824e-06
-0.00231273
0.000162909
-0.00260471
0.000395752
-0.00301592
0.000717217
-0.00365002
0.00112871
-0.00457901
0.00161219
-0.00592909
0.00205932
-0.00763746
0.00226609
-0.0074518
0.00158196
-0.00241964
0.00509871
0.00454193
0.00407067
0.00267938
0.00444833
0.000309822
0.00447503
-0.000257442
0.0040525
-0.000443375
0.00335063
-0.000558482
0.00249142
-0.000557349
0.00156806
-0.00044347
0.000652002
-0.000258203
-0.000196959
-4.17517e-05
-0.000871846
0.00012234
-0.00130391
0.000172043
-0.00152938
0.000181581
-0.00163801
0.000159874
-0.00169855
0.000128129
-0.00174188
9.60308e-05
-0.001783
6.63999e-05
-0.00182634
4.11394e-05
-0.00187302
2.00615e-05
-0.00192531
2.18232e-06
-0.00198402
-1.53552e-05
-0.00204952
-3.28256e-05
-0.00212374
-4.87696e-05
-0.00220933
-6.13978e-05
-0.00230744
-6.77659e-05
-0.00241744
-6.19786e-05
-0.00253572
-3.64465e-05
-0.00265495
1.81122e-05
-0.00276345
0.000110128
-0.00285605
0.000255504
-0.00293776
0.000477469
-0.00301021
0.000789667
-0.00306869
0.00118718
-0.00307253
0.00161603
-0.00295171
0.0019385
-0.00224712
0.0015615
-0.000559651
-0.000105504
-0.00290106
-0.000438187
0.00503706
0.0008424
0.0013988
0.000777041
0.00037519
0.000474068
4.55339e-05
6.56463e-05
-3.49556e-05
-0.000474889
-1.79544e-05
-0.00106263
3.03905e-05
-0.00159758
9.14711e-05
-0.00200408
0.000148297
-0.00223629
0.00019045
-0.00232093
0.000206987
-0.00234262
0.000193726
-0.00232965
0.00016861
-0.00231055
0.000140769
-0.00229894
0.000116522
-0.00229902
9.61044e-05
-0.00231061
7.7997e-05
-0.002331
6.15212e-05
-0.00235729
4.63487e-05
-0.00238727
3.21637e-05
-0.00242202
1.93976e-05
-0.0024621
7.24499e-06
-0.00250716
-3.70727e-06
-0.00255643
-1.21329e-05
-0.00260761
-1.6584e-05
-0.00265533
-1.42591e-05
-0.00269044
-1.33688e-06
-0.00270204
2.97103e-05
-0.00267899
8.70734e-05
-0.00260109
0.000177603
-0.00243802
0.000314392
-0.00216173
0.000513384
-0.00175208
0.000777523
-0.0011649
0.00102885
-9.6297e-05
0.000869897
0.00178005
-0.000314853
0.00337673
-0.00170219
0.000561212
-0.00794051
-0.0108028
-0.00572154
-0.00429995
-0.00391086
-0.00385629
-0.00388525
-0.00389947
-0.00386699
-0.00377471
-0.00362666
-0.00343738
-0.00323235
-0.00304127
-0.00287586
-0.00273874
-0.00262624
-0.00253445
-0.002461
-0.00240418
-0.00236264
-0.00233533
-0.00232079
-0.00231838
-0.00232686
-0.00234369
-0.00236487
-0.0023836
-0.00238928
-0.00236375
-0.00228071
-0.00210697
-0.00179629
-0.00128648
-0.000512409
0.000513049
0.00137943
0.00106058
-0.000646967
)
;

boundaryField
{
    floor
    {
        type            calculated;
        value           nonuniform List<scalar> 
29
(
0
0
0
0
0
0
0
0
0
0
0
0
0
0
0
0
0
0
0
0
-4.0411e-06
-1.02858e-05
-1.55412e-05
-2.02389e-05
-1.69259e-06
-3.01481e-06
-8.80977e-06
-9.71622e-06
-8.47869e-06
)
;
    }
    ceiling
    {
        type            calculated;
        value           nonuniform List<scalar> 
43
(
-4.67048e-05
-4.54322e-05
-4.41655e-05
-2.27951e-05
-1.39029e-05
-9.0393e-06
-5.99821e-06
-3.74445e-06
-2.09043e-06
-8.12194e-07
2.50642e-07
1.16527e-06
1.95954e-06
2.64018e-06
3.19946e-06
3.65085e-06
4.01664e-06
4.31157e-06
4.53985e-06
4.70232e-06
4.80364e-06
4.85289e-06
4.85969e-06
4.83214e-06
4.77468e-06
4.69241e-06
4.59115e-06
4.47262e-06
4.33766e-06
4.18553e-06
4.02581e-06
3.86555e-06
3.71075e-06
3.56914e-06
3.45366e-06
3.38989e-06
3.51298e-06
3.99236e-06
5.36337e-06
6.3322e-06
1.01058e-05
7.08373e-06
-5.69311e-05
)
;
    }
    sWall
    {
        type            calculated;
        value           uniform -0.000271903;
    }
    nWall
    {
        type            calculated;
        value           nonuniform List<scalar> 6(-4.87158e-05 -5.82586e-05 -6.30847e-05 -7.82343e-05 -8.55355e-05 -9.20887e-05);
    }
    sideWalls
    {
        type            empty;
        value           nonuniform 0();
    }
    glass1
    {
        type            calculated;
        value           nonuniform List<scalar> 9(-5.73976e-05 -0.000154692 -0.00023671 -0.000306568 -0.000365896 -0.000415908 -0.000460631 -0.000514718 -0.000575231);
    }
    glass2
    {
        type            calculated;
        value           nonuniform List<scalar> 2(-0.000261407 -0.000289324);
    }
    sun
    {
        type            calculated;
        value           uniform 0;
    }
    heatsource1
    {
        type            calculated;
        value           nonuniform List<scalar> 3(2.04229e-07 2.04157e-07 2.04175e-07);
    }
    heatsource2
    {
        type            calculated;
        value           nonuniform List<scalar> 4(5.1205e-08 5.12845e-08 0 0);
    }
    Table_master
    {
        type            calculated;
        value           nonuniform List<scalar> 9(-1.53177e-07 -1.53268e-07 -1.53302e-07 -1.53324e-07 -1.5334e-07 -1.53351e-07 -1.53357e-07 -1.53353e-07 -1.53325e-07);
    }
    Table_slave
    {
        type            calculated;
        value           nonuniform List<scalar> 9(1.53056e-07 1.53077e-07 1.53058e-07 1.53043e-07 1.53036e-07 1.53039e-07 1.53052e-07 1.53092e-07 1.5317e-07);
    }
    inlet
    {
        type            calculated;
        value           uniform -0.00663263;
    }
    outlet
    {
        type            calculated;
        value           nonuniform List<scalar> 2(0.00825911 0.00290769);
    }
}


// ************************************************************************* //
