// -*- C++ -*-
// File generated by PyFoam - sorry for the ugliness

FoamFile
{
 version 2.0;
 format ascii;
 class volScalarField;
 location "1300";
 object T;
}

dimensions [ 0 0 0 1 0 0 0 ];

internalField nonuniform List<scalar> 459
(
  303.359
  303.095
  303.082
  303.079
  303.075
  303.072
  303.067
  303.061
  303.052
  303.041
  303.029
  303.019
  303.013
  303.012
  303.02
  303.106
  303.087
  303.079
  303.082
  303.085
  303.09
  303.094
  303.098
  303.102
  303.106
  303.109
  303.113
  303.117
  303.121
  303.125
  303.129
  303.133
  303.139
  303.159
  303.537
  303.137
  303.114
  303.117
  303.12
  303.121
  303.119
  303.111
  303.094
  303.069
  303.042
  303.019
  303.005
  302.999
  302.998
  302.995
  302.99
  303.109
  303.071
  303.065
  303.067
  303.072
  303.077
  303.079
  303.08
  303.082
  303.083
  303.084
  303.085
  303.086
  303.088
  303.09
  303.094
  303.1
  303.109
  303.142
  303.724
  303.188
  303.151
  303.163
  303.177
  303.188
  303.193
  303.185
  303.157
  303.112
  303.064
  303.026
  303.002
  302.993
  302.993
  302.994
  302.993
  303.062
  303.055
  303.058
  303.066
  303.076
  303.084
  303.084
  303.084
  303.083
  303.083
  303.083
  303.083
  303.084
  303.084
  303.084
  303.087
  303.091
  303.1
  303.135
  303.913
  303.25
  303.187
  303.207
  303.238
  303.266
  303.285
  303.277
  303.232
  303.16
  303.086
  303.03
  302.998
  302.988
  302.99
  302.996
  303
  303.01
  303.022
  303.04
  303.059
  303.077
  303.095
  303.108
  303.119
  303.129
  303.138
  303.145
  303.152
  303.157
  303.162
  303.165
  303.166
  303.142
  303.12
  303.109
  303.135
  304.097
  303.327
  303.227
  303.244
  303.287
  303.336
  303.376
  303.367
  303.299
  303.195
  303.095
  303.026
  302.99
  302.981
  302.988
  303.001
  303.014
  303.029
  303.047
  303.069
  303.092
  303.114
  303.133
  303.15
  303.165
  303.178
  303.188
  303.197
  303.203
  303.206
  303.206
  303.202
  303.195
  303.176
  303.148
  303.125
  303.133
  303.212
  303.258
  303.264
  304.262
  303.428
  303.292
  303.285
  303.327
  303.39
  303.45
  303.422
  303.325
  303.201
  303.087
  303.01
  302.973
  302.971
  302.988
  303.012
  303.036
  303.06
  303.086
  303.112
  303.138
  303.162
  303.182
  303.199
  303.213
  303.225
  303.235
  303.242
  303.246
  303.247
  303.242
  303.233
  303.221
  303.201
  303.174
  303.146
  303.139
  303.17
  303.188
  303.223
  304.412
  303.589
  303.446
  303.412
  303.432
  303.492
  303.512
  303.439
  303.304
  303.156
  303.035
  302.964
  302.943
  302.959
  302.996
  303.038
  303.076
  303.11
  303.141
  303.169
  303.194
  303.216
  303.234
  303.249
  303.261
  303.27
  303.277
  303.282
  303.284
  303.281
  303.273
  303.261
  303.245
  303.225
  303.2
  303.173
  303.158
  303.165
  303.175
  303.205
  304.63
  304.013
  303.85
  303.749
  303.705
  303.68
  303.571
  303.389
  303.189
  303.024
  302.922
  302.888
  302.909
  302.961
  303.027
  303.09
  303.139
  303.178
  303.208
  303.232
  303.252
  303.269
  303.283
  303.294
  303.302
  303.308
  303.312
  303.314
  303.312
  303.308
  303.301
  303.289
  303.272
  303.254
  303.235
  303.216
  303.207
  303.218
  303.237
  303.368
  304.941
  304.653
  304.388
  304.158
  303.967
  303.722
  303.379
  303.063
  302.846
  302.746
  302.744
  302.809
  302.908
  303.01
  303.107
  303.178
  303.22
  303.249
  303.27
  303.288
  303.302
  303.314
  303.323
  303.33
  303.335
  303.338
  303.339
  303.338
  303.336
  303.334
  303.331
  303.331
  303.333
  303.338
  303.351
  303.372
  303.403
  303.435
  303.46
  303.522
  296.994
  299.072
  300.156
  300.642
  301.114
  301.581
  302.005
  302.359
  302.641
  302.871
  303.057
  303.16
  303.224
  303.263
  303.289
  303.307
  303.322
  303.334
  303.343
  303.35
  303.355
  303.359
  303.361
  303.362
  303.363
  303.364
  303.364
  303.365
  303.366
  303.368
  303.372
  303.379
  303.391
  303.408
  303.429
  303.451
  303.472
  303.513
  297.429
  299.276
  300.228
  300.955
  301.58
  302.137
  302.533
  302.81
  303.003
  303.133
  303.216
  303.267
  303.3
  303.322
  303.338
  303.35
  303.359
  303.366
  303.371
  303.375
  303.377
  303.379
  303.38
  303.381
  303.382
  303.383
  303.384
  303.385
  303.386
  303.388
  303.391
  303.396
  303.404
  303.415
  303.429
  303.445
  303.466
  303.49
  299.53
  299.459
  299.455
  301.246
  302.116
  302.556
  302.801
  302.976
  303.1
  303.187
  303.249
  303.291
  303.319
  303.338
  303.351
  303.359
  303.366
  303.371
  303.374
  303.377
  303.379
  303.381
  303.383
  303.384
  303.386
  303.387
  303.388
  303.39
  303.391
  303.393
  303.394
  303.396
  303.398
  303.401
  303.405
  303.413
  303.421
  303.427
  303.483
  303.573
)
;

boundaryField
{
  floor
  {
    type wallHeatTransfer;
    Tinf uniform 305.2;
    alphaWall uniform 0.24;
    value nonuniform List<scalar> 29
(
  303.245
  303.509
  303.449
  303.413
  303.412
  303.422
  303.436
  303.455
  303.476
  303.497
  303.517
  303.536
  303.555
  303.573
  303.591
  303.608
  303.625
  303.644
  303.658
  303.699
  303.699
  303.601
  303.551
  303.523
  303.245
  303.509
  303.501
  303.322
  303.203
)
;
  }
  ceiling
  {
    type wallHeatTransfer;
    Tinf uniform 303.2;
    alphaWall uniform 0.24;
    value nonuniform List<scalar> 43
(
  299.784
  299.708
  299.696
  301.369
  302.19
  302.603
  302.831
  302.994
  303.108
  303.188
  303.244
  303.281
  303.305
  303.32
  303.329
  303.336
  303.34
  303.343
  303.345
  303.347
  303.349
  303.35
  303.352
  303.354
  303.356
  303.357
  303.359
  303.361
  303.364
  303.366
  303.368
  303.371
  303.374
  303.378
  303.383
  303.39
  303.398
  303.401
  303.45
  303.534
  304.86
  304.595
  297.781
)
;
  }
  sWall
  {
    type wallHeatTransfer;
    Tinf uniform 315.2;
    alphaWall uniform 0.36;
    value uniform 301.11;
  }
  nWall
  {
    type wallHeatTransfer;
    Tinf uniform 307.2;
    alphaWall uniform 0.36;
    value nonuniform List<scalar> 6
(
  303.99
  303.935
  303.859
  304.068
  304.04
  304.11
)
;
  }
  sideWalls
  {
    type empty;
  }
  glass1
  {
    type wallHeatTransfer;
    Tinf uniform 315.2;
    alphaWall uniform 4.3;
    value nonuniform List<scalar> 9
(
  311.476
  310.841
  310.439
  310.133
  309.878
  309.645
  309.465
  309.531
  309.754
)
;
  }
  glass2
  {
    type wallHeatTransfer;
    Tinf uniform 307.2;
    alphaWall uniform 4.3;
    value nonuniform List<scalar> 2
(
  305.754
  305.866
)
;
  }
  sun
  {
    type wallHeatTransfer;
    Tinf uniform 305.2;
    alphaWall uniform 0.24;
    value nonuniform List<scalar> 14
(
  303.555
  303.305
  303.29
  303.28
  303.27
  303.261
  303.252
  303.242
  303.23
  303.219
  303.209
  303.204
  303.207
  303.22
)
;
  }
  heatsource1
  {
    type fixedGradient;
    gradient uniform 0;
  }
  heatsource2
  {
    type fixedGradient;
    gradient uniform 0;
  }
  Table_master
  {
    type zeroGradient;
  }
  Table_slave
  {
    type zeroGradient;
  }
  inlet
  {
    type fixedValue;
    value uniform 293.15;
  }
  outlet
  {
    type zeroGradient;
  }
} 	// ************************************************************************* //

