// -*- C++ -*-
// File generated by PyFoam - sorry for the ugliness

FoamFile
{
 version 2.0;
 format ascii;
 class volScalarField;
 location "500";
 object T;
}

dimensions [ 0 0 0 1 0 0 0 ];

internalField nonuniform List<scalar> 459
(
  303.671
  303.35
  303.343
  303.353
  303.362
  303.369
  303.374
  303.379
  303.383
  303.384
  303.383
  303.378
  303.369
  303.356
  303.342
  302.648
  302.635
  302.63
  302.624
  302.619
  302.618
  302.625
  302.637
  302.657
  302.68
  302.707
  302.737
  302.771
  302.815
  302.876
  302.956
  303.023
  303.012
  302.976
  303.915
  303.46
  303.423
  303.435
  303.45
  303.464
  303.476
  303.486
  303.493
  303.496
  303.493
  303.482
  303.46
  303.427
  303.378
  303.322
  303.183
  302.681
  302.726
  302.735
  302.738
  302.719
  302.646
  302.621
  302.639
  302.676
  302.725
  302.781
  302.843
  302.916
  303.011
  303.112
  303.203
  303.194
  303.109
  303.011
  304.137
  303.577
  303.509
  303.52
  303.544
  303.567
  303.588
  303.605
  303.619
  303.627
  303.625
  303.611
  303.581
  303.532
  303.461
  303.377
  303.299
  302.821
  302.946
  303.007
  303.059
  303.097
  303.084
  302.672
  302.68
  302.758
  302.86
  302.973
  303.089
  303.203
  303.314
  303.438
  303.559
  303.565
  303.561
  303.558
  304.339
  303.705
  303.605
  303.61
  303.643
  303.677
  303.71
  303.74
  303.763
  303.779
  303.783
  303.77
  303.738
  303.681
  303.599
  303.491
  303.363
  303.251
  303.176
  303.28
  303.376
  303.443
  303.492
  303.528
  303.559
  303.577
  303.598
  303.624
  303.656
  303.693
  303.737
  303.782
  303.823
  303.841
  303.872
  303.899
  303.951
  304.526
  303.845
  303.723
  303.711
  303.746
  303.792
  303.839
  303.883
  303.921
  303.949
  303.962
  303.957
  303.931
  303.885
  303.818
  303.737
  303.653
  303.58
  303.535
  303.551
  303.598
  303.636
  303.663
  303.683
  303.699
  303.716
  303.737
  303.764
  303.797
  303.836
  303.881
  303.927
  303.971
  304.009
  304.048
  304.083
  304.122
  304.134
  304.104
  304.08
  304.692
  304.007
  303.892
  303.857
  303.873
  303.919
  303.976
  304.033
  304.087
  304.127
  304.15
  304.154
  304.138
  304.101
  304.045
  303.976
  303.904
  303.84
  303.798
  303.784
  303.787
  303.796
  303.804
  303.81
  303.816
  303.825
  303.837
  303.856
  303.883
  303.919
  303.962
  304.01
  304.058
  304.102
  304.14
  304.17
  304.191
  304.195
  304.136
  304.084
  304.843
  304.226
  304.168
  304.127
  304.091
  304.106
  304.151
  304.208
  304.268
  304.315
  304.345
  304.357
  304.35
  304.324
  304.28
  304.221
  304.154
  304.092
  304.041
  304.007
  303.987
  303.974
  303.965
  303.958
  303.95
  303.945
  303.943
  303.946
  303.957
  303.979
  304.012
  304.056
  304.103
  304.149
  304.187
  304.216
  304.235
  304.237
  304.208
  304.083
  305.062
  304.617
  304.641
  304.603
  304.512
  304.459
  304.45
  304.467
  304.493
  304.526
  304.551
  304.565
  304.565
  304.551
  304.521
  304.473
  304.415
  304.355
  304.299
  304.253
  304.216
  304.186
  304.161
  304.138
  304.116
  304.096
  304.077
  304.061
  304.051
  304.048
  304.057
  304.081
  304.117
  304.16
  304.204
  304.243
  304.276
  304.307
  304.334
  304.369
  305.36
  305.194
  305.445
  305.348
  305.142
  304.99
  304.902
  304.854
  304.828
  304.809
  304.802
  304.801
  304.797
  304.787
  304.765
  304.73
  304.685
  304.632
  304.577
  304.524
  304.475
  304.432
  304.392
  304.355
  304.32
  304.286
  304.252
  304.219
  304.188
  304.162
  304.143
  304.135
  304.138
  304.152
  304.17
  304.189
  304.215
  304.244
  304.284
  304.404
  308.128
  306.034
  305.477
  305.291
  305.2
  305.151
  305.124
  305.109
  305.096
  305.085
  305.073
  305.056
  305.033
  305.002
  304.962
  304.915
  304.863
  304.808
  304.754
  304.702
  304.652
  304.604
  304.557
  304.511
  304.465
  304.42
  304.375
  304.331
  304.29
  304.255
  304.23
  304.216
  304.213
  304.221
  304.237
  304.259
  304.286
  304.326
  307.594
  306.392
  305.979
  305.747
  305.619
  305.545
  305.498
  305.465
  305.439
  305.411
  305.382
  305.351
  305.316
  305.278
  305.235
  305.187
  305.134
  305.079
  305.022
  304.965
  304.909
  304.854
  304.8
  304.748
  304.695
  304.642
  304.59
  304.537
  304.484
  304.433
  304.388
  304.352
  304.33
  304.321
  304.32
  304.324
  304.332
  304.357
  307.818
  307.711
  307.521
  307.045
  306.671
  306.414
  306.245
  306.125
  306.032
  305.955
  305.888
  305.825
  305.765
  305.706
  305.649
  305.592
  305.535
  305.478
  305.42
  305.363
  305.306
  305.25
  305.193
  305.137
  305.081
  305.025
  304.969
  304.914
  304.858
  304.802
  304.746
  304.689
  304.633
  304.582
  304.539
  304.5
  304.465
  304.432
  304.399
  304.391
)
;

boundaryField
{
  floor
  {
    type wallHeatTransfer;
    Tinf uniform 305.2;
    alphaWall uniform 0.24;
    value nonuniform List<scalar> 29
(
  303.585
  303.303
  303.194
  303.311
  303.36
  303.385
  303.404
  303.414
  303.417
  303.409
  303.398
  303.391
  303.388
  303.39
  303.396
  303.407
  303.431
  303.456
  303.449
  303.45
  303.45
  303.44
  303.798
  304.095
  303.585
  303.303
  303.202
  303.166
  303.453
)
;
  }
  ceiling
  {
    type wallHeatTransfer;
    Tinf uniform 303.2;
    alphaWall uniform 0.24;
    value nonuniform List<scalar> 43
(
  307.478
  307.472
  307.382
  306.911
  306.53
  306.262
  306.082
  305.951
  305.847
  305.761
  305.686
  305.616
  305.552
  305.492
  305.434
  305.379
  305.326
  305.274
  305.223
  305.171
  305.12
  305.069
  305.017
  304.965
  304.914
  304.862
  304.81
  304.759
  304.707
  304.656
  304.604
  304.551
  304.5
  304.453
  304.412
  304.374
  304.34
  304.307
  304.279
  304.264
  305.267
  305.118
  307.487
)
;
  }
  sWall
  {
    type wallHeatTransfer;
    Tinf uniform 315.2;
    alphaWall uniform 0.36;
    value uniform 308.606;
  }
  nWall
  {
    type wallHeatTransfer;
    Tinf uniform 307.2;
    alphaWall uniform 0.36;
    value nonuniform List<scalar> 6
(
  304.584
  304.569
  304.567
  304.646
  304.695
  304.817
)
;
  }
  sideWalls
  {
    type empty;
  }
  glass1
  {
    type wallHeatTransfer;
    Tinf uniform 315.2;
    alphaWall uniform 4.3;
    value nonuniform List<scalar> 9
(
  312.331
  311.192
  310.522
  310.073
  309.768
  309.549
  309.405
  309.518
  309.787
)
;
  }
  glass2
  {
    type wallHeatTransfer;
    Tinf uniform 307.2;
    alphaWall uniform 4.3;
    value nonuniform List<scalar> 2
(
  306.11
  306.065
)
;
  }
  sun
  {
    type wallHeatTransfer;
    Tinf uniform 305.2;
    alphaWall uniform 0.24;
    value nonuniform List<scalar> 14
(
  303.887
  303.608
  303.638
  303.643
  303.643
  303.642
  303.64
  303.637
  303.634
  303.63
  303.624
  303.616
  303.606
  303.595
)
;
  }
  heatsource1
  {
    type fixedGradient;
    gradient uniform 0;
  }
  heatsource2
  {
    type fixedGradient;
    gradient uniform 0;
  }
  Table_master
  {
    type zeroGradient;
  }
  Table_slave
  {
    type zeroGradient;
  }
  inlet
  {
    type fixedValue;
    value uniform 293.15;
  }
  outlet
  {
    type zeroGradient;
  }
} 	// ************************************************************************* //

