/*--------------------------------*- C++ -*----------------------------------*\
  =========                 |
  \\      /  F ield         | OpenFOAM: The Open Source CFD Toolbox
   \\    /   O peration     | Website:  https://openfoam.org
    \\  /    A nd           | Version:  6
     \\/     M anipulation  |
\*---------------------------------------------------------------------------*/
FoamFile
{
    version     2.0;
    format      ascii;
    class       volScalarField;
    location    "1400";
    object      nut;
}
// * * * * * * * * * * * * * * * * * * * * * * * * * * * * * * * * * * * * * //

dimensions      [0 2 -1 0 0 0 0];

internalField   nonuniform List<scalar> 
459
(
0.00106132
0.0011567
0.00117821
0.00123424
0.00128611
0.00133498
0.00138343
0.00143005
0.00146301
0.00147612
0.00146335
0.0014204
0.00134536
0.00124068
0.00111814
0.000462154
0.00055212
0.000623233
0.000628148
0.000609943
0.000583972
0.000548195
0.000511769
0.000478615
0.000449232
0.00042326
0.000400228
0.000379765
0.000361454
0.000344636
0.000328482
0.000311847
0.000301734
0.000276429
0.00144674
0.00342109
0.00323542
0.00375273
0.00425849
0.00476656
0.00521038
0.00555338
0.00587289
0.0061396
0.00631668
0.00636528
0.00623835
0.00582441
0.00465379
0.00113744
0.000697492
0.000483057
0.00101234
0.00141547
0.00172029
0.00190006
0.00191028
0.00151507
0.00130375
0.00115366
0.00103898
0.000948228
0.00087458
0.000811747
0.000753142
0.000696348
0.000645992
0.000601304
0.000714294
0.000369107
0.00176778
0.00464143
0.00394339
0.00491979
0.00536591
0.00568957
0.0059421
0.00616212
0.00641845
0.00669725
0.00696611
0.00717384
0.00727435
0.00719505
0.00671137
0.00515832
0.00116588
0.000911708
0.00132204
0.0017171
0.0020999
0.00238495
0.00235773
0.000779498
0.000689984
0.000617245
0.00055817
0.00050986
0.000469995
0.000436859
0.000409338
0.000386944
0.00041791
0.000481949
0.000805879
0.000431628
0.00207672
0.00594442
0.00389001
0.00513987
0.00547979
0.00555959
0.00562352
0.00574524
0.00595855
0.00624697
0.00658168
0.00688942
0.00712102
0.00721448
0.00711519
0.00656825
0.00444284
0.00136582
0.00163762
0.00208703
0.00257706
0.00301324
0.00331548
0.00316125
0.000882206
0.000807918
0.00075518
0.000715194
0.000681025
0.000648816
0.00061775
0.00058488
0.000546452
0.000512972
0.000517635
0.000936196
0.000481001
0.00239195
0.00764644
0.00420531
0.00489631
0.00536712
0.00531765
0.0052666
0.00535618
0.00555705
0.00585068
0.00622105
0.00656056
0.00679997
0.00689374
0.00684132
0.00661979
0.00606039
0.0051283
0.00481018
0.00475699
0.00480253
0.00485923
0.00486991
0.00472359
0.00402544
0.00368946
0.00349588
0.00334517
0.00318372
0.00295144
0.00262591
0.00222383
0.00177397
0.00132513
0.000977356
0.000959316
0.000653927
0.00059475
0.000716806
0.000804785
0.0027268
0.0095139
0.00579221
0.00472166
0.00517553
0.00532296
0.00517686
0.00526568
0.00543375
0.005707
0.00606485
0.00641838
0.00665734
0.00671299
0.00659667
0.00639149
0.00619377
0.00606586
0.00607299
0.0061027
0.00608161
0.00599947
0.00585846
0.00564632
0.00532401
0.00503438
0.00477755
0.00453145
0.00428216
0.00401648
0.00367715
0.0032468
0.0027242
0.00214098
0.00161428
0.00118353
0.00090657
0.000774399
0.0011021
0.000841507
0.0030416
0.0108656
0.00832311
0.00599567
0.00558209
0.00562711
0.00549713
0.00542184
0.00550012
0.00575711
0.00613288
0.00650369
0.00673221
0.00673883
0.00655285
0.00632397
0.00625579
0.00642147
0.00664103
0.00671969
0.00662452
0.00640224
0.00609621
0.00573901
0.00536479
0.0050257
0.00472347
0.00444724
0.00419412
0.00396845
0.00376943
0.00349558
0.00309612
0.00259861
0.00211048
0.00165656
0.00133616
0.0012417
0.00127106
0.000962409
0.00310997
0.00987271
0.00855746
0.00757013
0.00695758
0.00631845
0.00576661
0.00552519
0.00561613
0.00596017
0.00641372
0.00680479
0.00698031
0.00688346
0.00660031
0.00637015
0.00643444
0.00672448
0.00685715
0.00672424
0.00639953
0.00595942
0.00547232
0.00500297
0.00459929
0.00427347
0.00400837
0.00379048
0.00361819
0.00349689
0.00343393
0.00340794
0.00321617
0.00289992
0.00261436
0.00246868
0.00257629
0.00298273
0.00365498
0.00149525
0.00303535
0.00362542
0.00409642
0.00424737
0.00426378
0.00435154
0.00462029
0.00509831
0.00574664
0.00643954
0.00701321
0.00732222
0.00726755
0.00690211
0.00648598
0.00639492
0.00645368
0.0064571
0.00625675
0.00585226
0.00532276
0.00475885
0.0042429
0.00382385
0.00350657
0.00326729
0.00307876
0.00292304
0.00278894
0.00266739
0.00255036
0.00243718
0.00234631
0.00227886
0.00225327
0.00226213
0.00224555
0.00215012
0.0020061
0.00139878
0.00183589
0.00326808
0.00449191
0.00550858
0.00633485
0.00707958
0.00767602
0.00799061
0.00797136
0.00762954
0.00701937
0.0063018
0.0058484
0.00568596
0.00551705
0.00520394
0.00475092
0.00422692
0.00370592
0.00325654
0.00291358
0.00266914
0.0024981
0.00237636
0.00228777
0.00222333
0.0021783
0.00215082
0.00214341
0.00215851
0.00218262
0.00221279
0.00224137
0.00224345
0.00217905
0.00203601
0.0018277
0.00114784
0.00212953
0.00455195
0.00619555
0.0069795
0.00750258
0.00786085
0.00788083
0.0074063
0.00664736
0.0058174
0.0051156
0.00460529
0.00426752
0.00397243
0.00361548
0.00321295
0.00281872
0.00248196
0.00222751
0.0020501
0.00192992
0.00185126
0.00180857
0.00179318
0.0017997
0.00182456
0.00186452
0.00191526
0.00198229
0.00206296
0.00215474
0.00225128
0.0023374
0.0023952
0.00237738
0.00239361
0.00236275
0.00116683
0.00197152
0.00196869
0.00200523
0.00207763
0.00187987
0.00172102
0.0016432
0.00156944
0.00146231
0.00133139
0.00117953
0.00102774
0.000892824
0.00078596
0.000709128
0.000655621
0.000617911
0.000591645
0.000574963
0.000566894
0.000566345
0.000572049
0.000583024
0.00059873
0.000618035
0.000640864
0.000667332
0.000697742
0.00073269
0.000773287
0.000818942
0.000869788
0.000926442
0.000989489
0.00105877
0.00114245
0.00116874
0.00113906
0.00106702
0.000990329
)
;

boundaryField
{
    floor
    {
        type            nutkWallFunction;
        Cmu             0.09;
        kappa           0.41;
        E               9.8;
        value           nonuniform List<scalar> 
29
(
0.000134534
5.48493e-05
6.63309e-05
7.52424e-05
7.58537e-05
7.35869e-05
7.03387e-05
6.58351e-05
6.12125e-05
5.69696e-05
5.31786e-05
4.98016e-05
4.6785e-05
4.40862e-05
4.16554e-05
3.94089e-05
3.72375e-05
3.4987e-05
3.3611e-05
3.01409e-05
3.01408e-05
4.26727e-05
5.08917e-05
5.72754e-05
0.000134534
5.48493e-05
5.75398e-05
0.00011028
0.000162976
)
;
    }
    ceiling
    {
        type            nutkWallFunction;
        Cmu             0.09;
        kappa           0.41;
        E               9.8;
        value           nonuniform List<scalar> 
43
(
0.000230245
0.000229854
0.000233829
0.000241782
0.000220258
0.000202773
0.000194143
0.000185919
0.000173893
0.00015906
0.000141646
0.000123983
0.000108031
9.5198e-05
8.58445e-05
7.92596e-05
7.45802e-05
7.13005e-05
6.92083e-05
6.81938e-05
6.81247e-05
6.88421e-05
7.02202e-05
7.21868e-05
7.45955e-05
7.74322e-05
8.0706e-05
8.44482e-05
8.8725e-05
9.36628e-05
9.91796e-05
0.000105281
0.000112031
0.000119487
0.000127619
0.000137358
0.000140401
0.000136965
0.000128583
0.000119587
0.00034381
0.000404804
0.000247203
)
;
    }
    sWall
    {
        type            nutkWallFunction;
        Cmu             0.09;
        kappa           0.41;
        E               9.8;
        value           uniform 0.000230305;
    }
    nWall
    {
        type            nutkWallFunction;
        Cmu             0.09;
        kappa           0.41;
        E               9.8;
        value           nonuniform List<scalar> 6(9.74735e-05 0.000101894 0.000116296 0.000137994 0.000140192 0.000119593);
    }
    sideWalls
    {
        type            empty;
    }
    glass1
    {
        type            nutkWallFunction;
        Cmu             0.09;
        kappa           0.41;
        E               9.8;
        value           nonuniform List<scalar> 9(0.000128014 0.000172355 0.000208266 0.000242151 0.000276171 0.000311791 0.000344865 0.000352008 0.000344237);
    }
    glass2
    {
        type            nutkWallFunction;
        Cmu             0.09;
        kappa           0.41;
        E               9.8;
        value           nonuniform List<scalar> 2(0.000177682 0.000166787);
    }
    sun
    {
        type            nutkWallFunction;
        Cmu             0.09;
        kappa           0.41;
        E               9.8;
        value           nonuniform List<scalar> 
14
(
0.000127918
0.000139006
0.000141493
0.000147947
0.000153893
0.000159469
0.000164976
0.000170254
0.000173974
0.000175451
0.000174012
0.000169163
0.00016065
0.000148686
)
;
    }
    heatsource1
    {
        type            nutkWallFunction;
        Cmu             0.09;
        kappa           0.41;
        E               9.8;
        value           nonuniform List<scalar> 3(7.16905e-05 8.67847e-05 9.74727e-05);
    }
    heatsource2
    {
        type            nutkWallFunction;
        Cmu             0.09;
        kappa           0.41;
        E               9.8;
        value           nonuniform List<scalar> 4(0.000136771 8.44192e-05 8.44191e-05 0.000140063);
    }
    Table_master
    {
        type            nutkWallFunction;
        Cmu             0.09;
        kappa           0.41;
        E               9.8;
        value           nonuniform List<scalar> 9(9.44155e-05 8.34967e-05 7.44994e-05 6.7098e-05 6.0974e-05 5.58666e-05 5.15801e-05 4.79889e-05 4.50442e-05);
    }
    Table_slave
    {
        type            nutkWallFunction;
        Cmu             0.09;
        kappa           0.41;
        E               9.8;
        value           nonuniform List<scalar> 9(0.000106764 9.78504e-05 9.14647e-05 8.65878e-05 8.23947e-05 7.8419e-05 7.45618e-05 7.0455e-05 6.5618e-05);
    }
    inlet
    {
        type            calculated;
        value           uniform 0.000100623;
    }
    outlet
    {
        type            calculated;
        value           nonuniform List<scalar> 2(0.00197152 0.00196869);
    }
}


// ************************************************************************* //
