// -*- C++ -*-
// File generated by PyFoam - sorry for the ugliness

FoamFile
{
 version 2.0;
 format ascii;
 class volVectorField;
 location "800";
 object U;
}

dimensions [ 0 1 -1 0 0 0 0 ];

internalField nonuniform List<vector> 459
(
  (0.033975 0.0860255 0)
  (-0.1674 0.025551 0)
  (-0.192298 0.0178062 0)
  (-0.223285 0.0120149 0)
  (-0.245554 0.00562786 0)
  (-0.257955 -0.00117449 0)
  (-0.258743 -0.00845296 0)
  (-0.24675 -0.0162189 0)
  (-0.222651 -0.0236913 0)
  (-0.188533 -0.0295078 0)
  (-0.148293 -0.0325676 0)
  (-0.106444 -0.0323508 0)
  (-0.0672815 -0.0289848 0)
  (-0.0359207 -0.0235696 0)
  (-0.0264176 -0.0180098 0)
  (-0.00687914 0.00925467 0)
  (-0.0305147 -0.016306 0)
  (-0.00960711 -0.0262578 0)
  (0.014456 -0.0204987 0)
  (0.0295687 -0.0141313 0)
  (0.0423848 -0.00920495 0)
  (0.0505948 -0.005342 0)
  (0.0549283 -0.00330994 0)
  (0.0569073 -0.00250249 0)
  (0.0578958 -0.00216021 0)
  (0.0585195 -0.00194978 0)
  (0.058891 -0.00178141 0)
  (0.0589557 -0.00158374 0)
  (0.0585412 -0.00119444 0)
  (0.0571487 -0.000263428 0)
  (0.0536991 0.00169128 0)
  (0.0470164 0.00375402 0)
  (0.0412898 0.00540898 0)
  (-0.0138032 0.0202156 0)
  (0.208506 0.176292 0)
  (-0.156511 0.0677097 0)
  (-0.155185 0.0531272 0)
  (-0.187361 0.0410931 0)
  (-0.209532 0.0274126 0)
  (-0.222281 0.0119514 0)
  (-0.223798 -0.00558179 0)
  (-0.212795 -0.0244646 0)
  (-0.190572 -0.0419474 0)
  (-0.159634 -0.0548973 0)
  (-0.123975 -0.0612467 0)
  (-0.0877019 -0.0604815 0)
  (-0.0543485 -0.0532286 0)
  (-0.0271772 -0.0411734 0)
  (-0.0101411 -0.0271567 0)
  (0.00345879 -0.00940362 0)
  (0.00177775 0.0156466 0)
  (0.0613549 0.0372677 0)
  (0.0225059 -0.0173227 0)
  (0.0315553 -0.0311221 0)
  (0.0425889 -0.028024 0)
  (0.0514392 -0.0203631 0)
  (0.0580814 -0.0129308 0)
  (0.0610134 -0.00559263 0)
  (0.0616217 -0.00134537 0)
  (0.061597 0.000425009 0)
  (0.0617164 0.00120463 0)
  (0.0619287 0.00168137 0)
  (0.0620845 0.00206936 0)
  (0.0621465 0.00253503 0)
  (0.0620722 0.00336897 0)
  (0.0613811 0.00539748 0)
  (0.057854 0.0110425 0)
  (0.0488475 0.0157279 0)
  (0.0453612 0.0188153 0)
  (-0.0511548 0.0439064 0)
  (0.368708 0.263856 0)
  (-0.173277 0.107868 0)
  (-0.116598 0.0860111 0)
  (-0.148025 0.0645752 0)
  (-0.167874 0.0420316 0)
  (-0.179828 0.016894 0)
  (-0.181 -0.0116176 0)
  (-0.169327 -0.0418302 0)
  (-0.14745 -0.0688266 0)
  (-0.118762 -0.0875834 0)
  (-0.0874206 -0.0955483 0)
  (-0.0568484 -0.0928798 0)
  (-0.0292624 -0.081026 0)
  (-0.00654451 -0.0623335 0)
  (0.0100843 -0.0386742 0)
  (0.0209188 -0.0125098 0)
  (0.0248391 0.0242905 0)
  (0.110608 -0.0237047 0)
  (0.0741172 -0.0357597 0)
  (0.068261 -0.0373562 0)
  (0.0694668 -0.0325628 0)
  (0.0706097 -0.0249818 0)
  (0.0718526 -0.0182733 0)
  (0.0705912 -0.014645 0)
  (0.0658475 -0.0103373 0)
  (0.0623737 -0.00798171 0)
  (0.0607833 -0.00663417 0)
  (0.0600846 -0.00577027 0)
  (0.0597077 -0.0051767 0)
  (0.0596271 -0.00467073 0)
  (0.0602595 -0.00388721 0)
  (0.0626554 -0.000928236 0)
  (0.0606514 0.0153519 0)
  (0.0479415 0.0265992 0)
  (0.0517662 0.0340261 0)
  (-0.0843465 0.0681976 0)
  (0.513409 0.334311 0)
  (-0.207947 0.143468 0)
  (-0.0755708 0.114079 0)
  (-0.105698 0.0846789 0)
  (-0.120202 0.0557286 0)
  (-0.129012 0.0226386 0)
  (-0.127054 -0.0167888 0)
  (-0.112329 -0.0588971 0)
  (-0.0902697 -0.0945345 0)
  (-0.0648722 -0.117386 0)
  (-0.0397112 -0.125455 0)
  (-0.0169275 -0.120395 0)
  (0.00333811 -0.104222 0)
  (0.0198935 -0.0809118 0)
  (0.0340209 -0.0538309 0)
  (0.0491245 -0.0248378 0)
  (0.0702307 0.00712887 0)
  (0.100462 0.0186675 0)
  (0.105135 -0.0206776 0)
  (0.0916136 -0.0319388 0)
  (0.0826295 -0.0317716 0)
  (0.0773265 -0.0280768 0)
  (0.073188 -0.0223262 0)
  (0.0702411 -0.0148825 0)
  (0.0710438 -0.00894441 0)
  (0.075599 -0.00664389 0)
  (0.0794494 -0.00539081 0)
  (0.0819176 -0.00453449 0)
  (0.0833974 -0.00359961 0)
  (0.0834917 -0.00228182 0)
  (0.0811167 -0.000314879 0)
  (0.0750026 0.00261396 0)
  (0.0626621 0.00701638 0)
  (0.0507603 0.0257 0)
  (0.0386449 0.0414416 0)
  (0.0560625 0.053756 0)
  (-0.12024 0.0895895 0)
  (0.638778 0.388879 0)
  (-0.25048 0.172507 0)
  (-0.034693 0.130336 0)
  (-0.0613195 0.0962477 0)
  (-0.0678833 0.0637097 0)
  (-0.0706749 0.0251906 0)
  (-0.0594801 -0.0243944 0)
  (-0.0398076 -0.0772207 0)
  (-0.0191306 -0.117713 0)
  (0.000106002 -0.140844 0)
  (0.016001 -0.146054 0)
  (0.028178 -0.137309 0)
  (0.0376896 -0.118636 0)
  (0.0454036 -0.0936823 0)
  (0.0525906 -0.0660182 0)
  (0.0611769 -0.039411 0)
  (0.0738431 -0.020107 0)
  (0.08427 -0.0196499 0)
  (0.0852189 -0.0273893 0)
  (0.0788751 -0.0283849 0)
  (0.0706151 -0.0257544 0)
  (0.0636197 -0.0221354 0)
  (0.0581373 -0.0177423 0)
  (0.0545614 -0.0124694 0)
  (0.0538173 -0.00666734 0)
  (0.0556398 -0.00384771 0)
  (0.0578818 -0.00289307 0)
  (0.0600721 -0.002249 0)
  (0.0621737 -0.000877868 0)
  (0.0638977 0.00185003 0)
  (0.0640467 0.00610252 0)
  (0.0619584 0.0120713 0)
  (0.0569912 0.0203323 0)
  (0.0505736 0.0349999 0)
  (0.0406011 0.0524291 0)
  (0.0642952 0.072131 0)
  (-0.0247134 0.101153 0)
  (0.0463822 0.0303977 0)
  (-0.0620397 -0.0341478 0)
  (-0.272754 -0.0568983 0)
  (0.730075 0.434348 0)
  (-0.292086 0.192013 0)
  (-0.00333169 0.126943 0)
  (-0.0159248 0.097587 0)
  (-0.0119577 0.0662067 0)
  (-0.00573689 0.0214693 0)
  (0.0245326 -0.0425929 0)
  (0.0461579 -0.097762 0)
  (0.0613753 -0.134863 0)
  (0.0703866 -0.153015 0)
  (0.073935 -0.154341 0)
  (0.073498 -0.142577 0)
  (0.0705883 -0.121803 0)
  (0.0667552 -0.0960463 0)
  (0.0634642 -0.0689596 0)
  (0.0620831 -0.0441992 0)
  (0.0634152 -0.0259647 0)
  (0.0642681 -0.0189442 0)
  (0.0610198 -0.0187164 0)
  (0.054057 -0.0189899 0)
  (0.0460712 -0.0177528 0)
  (0.0392088 -0.015634 0)
  (0.034023 -0.0129784 0)
  (0.0308433 -0.00986348 0)
  (0.0299879 -0.00690644 0)
  (0.0311583 -0.0057876 0)
  (0.0333383 -0.00577494 0)
  (0.0361011 -0.00564738 0)
  (0.0393011 -0.00440201 0)
  (0.0427201 -0.00112994 0)
  (0.0461197 0.00465149 0)
  (0.048189 0.0126758 0)
  (0.0490856 0.0229775 0)
  (0.0501471 0.03691 0)
  (0.0494058 0.0540736 0)
  (0.0730141 0.0766233 0)
  (0.0520858 0.094485 0)
  (0.093582 0.0664884 0)
  (0.116312 0.0440547 0)
  (-0.128798 -0.0068013 0)
  (0.782436 0.475667 0)
  (-0.313043 0.177374 0)
  (0.0237671 0.0772368 0)
  (0.0431993 0.0734069 0)
  (0.05873 0.050723 0)
  (0.0880129 -0.00288235 0)
  (0.121386 -0.0669063 0)
  (0.139898 -0.114794 0)
  (0.145566 -0.143094 0)
  (0.141096 -0.153496 0)
  (0.129297 -0.149094 0)
  (0.113115 -0.133727 0)
  (0.0951406 -0.111359 0)
  (0.0776341 -0.0858767 0)
  (0.0622444 -0.0604238 0)
  (0.0501713 -0.0381226 0)
  (0.041804 -0.0219941 0)
  (0.0355375 -0.0140071 0)
  (0.0291606 -0.0118251 0)
  (0.0221439 -0.0115563 0)
  (0.0153779 -0.0110603 0)
  (0.0097767 -0.0102138 0)
  (0.0056846 -0.00918385 0)
  (0.00332408 -0.00806572 0)
  (0.00282726 -0.00729387 0)
  (0.00387213 -0.00755609 0)
  (0.00582765 -0.00839273 0)
  (0.00841975 -0.00896252 0)
  (0.0116897 -0.00841595 0)
  (0.0157967 -0.00576762 0)
  (0.0215857 8.92169e-05 0)
  (0.0281742 0.0088716 0)
  (0.0344686 0.0192887 0)
  (0.0422349 0.0316015 0)
  (0.05076 0.0455912 0)
  (0.0738192 0.063719 0)
  (0.0876656 0.0716438 0)
  (0.11982 0.0507114 0)
  (0.158999 0.0431818 0)
  (-0.0351339 0.0926487 0)
  (0.887279 0.478181 0)
  (-0.0700028 0.156951 0)
  (0.106668 0.0035045 0)
  (0.170304 -0.0184145 0)
  (0.185674 -0.0385534 0)
  (0.221375 -0.072628 0)
  (0.242131 -0.104897 0)
  (0.243493 -0.127454 0)
  (0.228466 -0.137972 0)
  (0.202054 -0.136854 0)
  (0.169186 -0.125987 0)
  (0.134063 -0.108033 0)
  (0.0997344 -0.0858293 0)
  (0.0687031 -0.0625924 0)
  (0.0423577 -0.0406323 0)
  (0.0220505 -0.0226122 0)
  (0.00815044 -0.0108919 0)
  (-0.000816954 -0.00573556 0)
  (-0.00718666 -0.00484869 0)
  (-0.0126154 -0.00533329 0)
  (-0.0173667 -0.00584998 0)
  (-0.0212355 -0.00623896 0)
  (-0.0241091 -0.00659513 0)
  (-0.0258953 -0.00702965 0)
  (-0.0266144 -0.00776668 0)
  (-0.026563 -0.00898811 0)
  (-0.026131 -0.0104489 0)
  (-0.025464 -0.0117142 0)
  (-0.0244317 -0.0122992 0)
  (-0.0226546 -0.0116401 0)
  (-0.0192565 -0.0090267 0)
  (-0.0115305 -0.00367278 0)
  (-0.000877891 0.00406207 0)
  (0.0105032 0.0121647 0)
  (0.0232016 0.0185567 0)
  (0.044222 0.0252936 0)
  (0.06409 0.019645 0)
  (0.0832108 -0.00210382 0)
  (0.14076 0.0483204 0)
  (-0.433617 0.205196 0)
  (1.03263 0.430175 0)
  (0.497252 0.285132 0)
  (0.503656 0.191021 0)
  (0.512923 0.118695 0)
  (0.48854 0.0662885 0)
  (0.444572 0.0123084 0)
  (0.39367 -0.0356796 0)
  (0.339346 -0.0689361 0)
  (0.2813 -0.0854178 0)
  (0.222047 -0.087468 0)
  (0.164999 -0.0792473 0)
  (0.112804 -0.0646892 0)
  (0.0665838 -0.0467509 0)
  (0.0281797 -0.0287226 0)
  (-0.00300441 -0.0126767 0)
  (-0.0230578 -0.00318799 0)
  (-0.0336363 0.00028763 0)
  (-0.0394155 0.000718863 0)
  (-0.0431382 -0.000214867 0)
  (-0.0462806 -0.00145749 0)
  (-0.0492971 -0.00260546 0)
  (-0.052064 -0.00369102 0)
  (-0.0545472 -0.00477389 0)
  (-0.0567282 -0.00590549 0)
  (-0.058721 -0.00715467 0)
  (-0.0608113 -0.00852576 0)
  (-0.0633423 -0.0098312 0)
  (-0.0666118 -0.0107262 0)
  (-0.0709269 -0.0107258 0)
  (-0.0766902 -0.00918893 0)
  (-0.0844004 -0.00534999 0)
  (-0.0944655 0.00152298 0)
  (-0.105116 0.0111078 0)
  (-0.118865 0.0233199 0)
  (-0.140636 0.038196 0)
  (-0.172589 0.0551473 0)
  (-0.21862 0.0711947 0)
  (-0.274977 0.0841783 0)
  (-0.350927 0.0924523 0)
  (-0.617696 0.089499 0)
  (-0.145722 0.0819426 0)
  (0.133922 0.0592195 0)
  (0.216016 0.00240979 0)
  (0.199387 -0.0314941 0)
  (0.183111 -0.0447061 0)
  (0.15989 -0.0481978 0)
  (0.126792 -0.0456431 0)
  (0.0878989 -0.0385646 0)
  (0.0480744 -0.0283082 0)
  (0.00985451 -0.0154963 0)
  (-0.0264188 -0.00222518 0)
  (-0.0491704 0.00495485 0)
  (-0.062709 0.00806615 0)
  (-0.0689474 0.00827702 0)
  (-0.0720886 0.00749229 0)
  (-0.0741186 0.00655524 0)
  (-0.0758787 0.00568615 0)
  (-0.077706 0.00498608 0)
  (-0.0796039 0.00435785 0)
  (-0.0817247 0.00365715 0)
  (-0.0841285 0.00274514 0)
  (-0.0867874 0.00169467 0)
  (-0.0897712 0.000609185 0)
  (-0.0932022 -0.000359977 0)
  (-0.0971723 -0.00097273 0)
  (-0.101693 -0.000916304 0)
  (-0.106695 0.000157841 0)
  (-0.112005 0.00260699 0)
  (-0.117155 0.00683261 0)
  (-0.121225 0.0134378 0)
  (-0.124639 0.0235252 0)
  (-0.127348 0.0375971 0)
  (-0.129852 0.0552062 0)
  (-0.131931 0.0740076 0)
  (-0.130369 0.0870731 0)
  (-0.112624 0.0800998 0)
  (-0.0709894 0.0258197 0)
  (-0.198365 -0.17675 0)
  (-0.0209175 0.230335 0)
  (0.062848 0.0978536 0)
  (0.0357003 0.0173275 0)
  (0.0235199 -0.00563708 0)
  (0.0127007 -0.0102092 0)
  (-0.00733316 -0.0104598 0)
  (-0.0326019 -0.00757575 0)
  (-0.0579579 -0.00295175 0)
  (-0.0789027 0.00153581 0)
  (-0.0928428 0.00439996 0)
  (-0.0989356 0.0044049 0)
  (-0.100985 0.0021461 0)
  (-0.100903 -0.000780516 0)
  (-0.0999539 -0.00407438 0)
  (-0.0991782 -0.00739687 0)
  (-0.0989058 -0.0105883 0)
  (-0.0991793 -0.0135539 0)
  (-0.0999027 -0.0161155 0)
  (-0.100928 -0.0181091 0)
  (-0.102152 -0.0194604 0)
  (-0.103528 -0.0201617 0)
  (-0.105137 -0.0203325 0)
  (-0.106981 -0.0200032 0)
  (-0.109046 -0.0192553 0)
  (-0.111278 -0.0181526 0)
  (-0.113511 -0.0165073 0)
  (-0.115435 -0.0139867 0)
  (-0.116605 -0.0100757 0)
  (-0.116546 -0.00454667 0)
  (-0.114425 0.00301343 0)
  (-0.108948 0.0133033 0)
  (-0.0988044 0.0269578 0)
  (-0.0834324 0.0437526 0)
  (-0.0632463 0.0605329 0)
  (-0.0397546 0.0693226 0)
  (0.029672 0.0368039 0)
  (0.147204 -0.0418181 0)
  (-0.0494806 -0.0652413 0)
  (-0.103882 -0.348966 0)
  (-0.439739 -0.120687 0)
  (-0.311112 0.0949255 0)
  (-0.228421 -0.020382 0)
  (-0.182487 -0.0406383 0)
  (-0.168814 -0.0282609 0)
  (-0.166561 -0.0154479 0)
  (-0.167632 -0.00540967 0)
  (-0.16753 0.00278991 0)
  (-0.164879 0.0101036 0)
  (-0.159713 0.016839 0)
  (-0.152285 0.0229231 0)
  (-0.143572 0.0281081 0)
  (-0.134976 0.0325168 0)
  (-0.127258 0.0366799 0)
  (-0.120731 0.0408177 0)
  (-0.115369 0.0450187 0)
  (-0.110986 0.0491085 0)
  (-0.107444 0.0527562 0)
  (-0.104651 0.0556219 0)
  (-0.102543 0.05747 0)
  (-0.101066 0.0582133 0)
  (-0.100172 0.0578844 0)
  (-0.099822 0.0566234 0)
  (-0.0999844 0.0545451 0)
  (-0.100588 0.0519112 0)
  (-0.101497 0.049058 0)
  (-0.102499 0.0460992 0)
  (-0.103237 0.0431158 0)
  (-0.103131 0.0401698 0)
  (-0.101115 0.0379816 0)
  (-0.0955834 0.037193 0)
  (-0.0843674 0.038466 0)
  (-0.065569 0.0425531 0)
  (-0.0393066 0.0499265 0)
  (-0.00412476 0.0595834 0)
  (0.0332268 0.0558165 0)
  (0.090452 0.0189524 0)
  (0.118466 -0.0191972 0)
  (-0.504733 0.0595117 0)
)
;

boundaryField
{
  floor
  {
    type noSlip;
  }
  ceiling
  {
    type noSlip;
  }
  sWall
  {
    type noSlip;
  }
  nWall
  {
    type noSlip;
  }
  sideWalls
  {
    type empty;
  }
  glass1
  {
    type noSlip;
  }
  glass2
  {
    type noSlip;
  }
  sun
  {
    type noSlip;
  }
  heatsource1
  {
    type noSlip;
  }
  heatsource2
  {
    type noSlip;
  }
  Table_master
  {
    type noSlip;
  }
  Table_slave
  {
    type noSlip;
  }
  inlet
  {
    type fixedValue;
    value uniform (0.3 0 0);
  }
  outlet
  {
    type zeroGradient;
  }
} 	// ************************************************************************* //

