// -*- C++ -*-
// File generated by PyFoam - sorry for the ugliness

FoamFile
{
 version 2.0;
 format ascii;
 class volScalarField;
 location "1300";
 object T;
}

dimensions [ 0 0 0 1 0 0 0 ];

internalField nonuniform List<scalar> 459
(
  303.382
  303.119
  303.106
  303.102
  303.098
  303.094
  303.09
  303.084
  303.075
  303.064
  303.052
  303.041
  303.035
  303.033
  303.04
  303.127
  303.107
  303.099
  303.101
  303.105
  303.109
  303.113
  303.117
  303.121
  303.125
  303.129
  303.133
  303.137
  303.141
  303.144
  303.148
  303.152
  303.158
  303.178
  303.561
  303.161
  303.138
  303.141
  303.144
  303.145
  303.142
  303.135
  303.118
  303.093
  303.066
  303.042
  303.027
  303.02
  303.019
  303.016
  303.013
  303.13
  303.092
  303.085
  303.087
  303.091
  303.095
  303.097
  303.099
  303.1
  303.101
  303.103
  303.104
  303.105
  303.106
  303.109
  303.113
  303.119
  303.128
  303.161
  303.748
  303.211
  303.174
  303.186
  303.201
  303.212
  303.216
  303.209
  303.182
  303.138
  303.089
  303.05
  303.025
  303.014
  303.013
  303.015
  303.015
  303.082
  303.074
  303.077
  303.085
  303.094
  303.101
  303.101
  303.101
  303.101
  303.101
  303.101
  303.102
  303.102
  303.102
  303.103
  303.106
  303.11
  303.118
  303.154
  303.936
  303.273
  303.211
  303.23
  303.26
  303.289
  303.308
  303.302
  303.259
  303.188
  303.112
  303.055
  303.02
  303.008
  303.01
  303.015
  303.02
  303.03
  303.042
  303.059
  303.077
  303.095
  303.111
  303.124
  303.134
  303.143
  303.151
  303.158
  303.164
  303.169
  303.173
  303.176
  303.177
  303.155
  303.136
  303.126
  303.153
  304.12
  303.351
  303.25
  303.266
  303.309
  303.358
  303.398
  303.392
  303.327
  303.226
  303.123
  303.051
  303.012
  303.001
  303.007
  303.019
  303.032
  303.047
  303.065
  303.086
  303.108
  303.129
  303.148
  303.164
  303.178
  303.189
  303.199
  303.207
  303.213
  303.215
  303.215
  303.211
  303.204
  303.186
  303.161
  303.14
  303.151
  303.226
  303.271
  303.277
  304.286
  303.451
  303.315
  303.308
  303.348
  303.409
  303.472
  303.449
  303.356
  303.232
  303.116
  303.035
  302.995
  302.989
  303.005
  303.028
  303.053
  303.077
  303.102
  303.127
  303.152
  303.175
  303.194
  303.21
  303.223
  303.234
  303.243
  303.25
  303.254
  303.254
  303.249
  303.241
  303.229
  303.21
  303.185
  303.159
  303.154
  303.185
  303.202
  303.237
  304.434
  303.612
  303.468
  303.433
  303.452
  303.509
  303.534
  303.468
  303.337
  303.188
  303.064
  302.988
  302.963
  302.976
  303.01
  303.052
  303.09
  303.124
  303.154
  303.182
  303.206
  303.227
  303.244
  303.257
  303.268
  303.277
  303.284
  303.288
  303.289
  303.287
  303.279
  303.267
  303.252
  303.233
  303.209
  303.184
  303.171
  303.179
  303.188
  303.218
  304.652
  304.036
  303.872
  303.77
  303.722
  303.702
  303.601
  303.425
  303.225
  303.056
  302.948
  302.908
  302.924
  302.974
  303.038
  303.1
  303.15
  303.189
  303.218
  303.242
  303.261
  303.277
  303.29
  303.3
  303.308
  303.314
  303.318
  303.319
  303.318
  303.314
  303.307
  303.294
  303.279
  303.261
  303.243
  303.225
  303.218
  303.229
  303.247
  303.38
  304.962
  304.674
  304.409
  304.179
  303.99
  303.762
  303.426
  303.108
  302.883
  302.773
  302.762
  302.82
  302.917
  303.017
  303.113
  303.186
  303.229
  303.257
  303.278
  303.295
  303.309
  303.32
  303.329
  303.336
  303.341
  303.343
  303.344
  303.344
  303.342
  303.34
  303.338
  303.338
  303.34
  303.346
  303.359
  303.381
  303.412
  303.445
  303.469
  303.531
  297.019
  299.13
  300.237
  300.7
  301.15
  301.597
  302.009
  302.359
  302.639
  302.866
  303.058
  303.165
  303.23
  303.27
  303.296
  303.314
  303.328
  303.339
  303.348
  303.355
  303.36
  303.364
  303.366
  303.368
  303.369
  303.37
  303.371
  303.372
  303.374
  303.376
  303.38
  303.387
  303.399
  303.417
  303.439
  303.461
  303.481
  303.521
  297.454
  299.321
  300.263
  300.97
  301.575
  302.113
  302.519
  302.802
  302.999
  303.133
  303.22
  303.272
  303.306
  303.328
  303.343
  303.355
  303.364
  303.371
  303.376
  303.38
  303.382
  303.384
  303.386
  303.388
  303.389
  303.39
  303.391
  303.393
  303.394
  303.396
  303.399
  303.404
  303.412
  303.424
  303.438
  303.454
  303.474
  303.498
  299.531
  299.461
  299.456
  301.238
  302.103
  302.545
  302.795
  302.972
  303.099
  303.188
  303.251
  303.294
  303.323
  303.341
  303.354
  303.363
  303.369
  303.374
  303.378
  303.381
  303.383
  303.385
  303.387
  303.389
  303.391
  303.393
  303.395
  303.396
  303.398
  303.4
  303.401
  303.403
  303.406
  303.409
  303.413
  303.421
  303.43
  303.435
  303.491
  303.58
)
;

boundaryField
{
  floor
  {
    type wallHeatTransfer;
    Tinf uniform 305.2;
    alphaWall uniform 0.24;
    value nonuniform List<scalar> 29
(
  303.263
  303.527
  303.467
  303.431
  303.431
  303.441
  303.454
  303.473
  303.494
  303.515
  303.535
  303.554
  303.573
  303.591
  303.608
  303.625
  303.642
  303.661
  303.675
  303.715
  303.715
  303.617
  303.567
  303.538
  303.263
  303.527
  303.519
  303.338
  303.221
)
;
  }
  ceiling
  {
    type wallHeatTransfer;
    Tinf uniform 303.2;
    alphaWall uniform 0.24;
    value nonuniform List<scalar> 43
(
  299.786
  299.709
  299.698
  301.362
  302.178
  302.593
  302.826
  302.99
  303.108
  303.189
  303.246
  303.284
  303.308
  303.323
  303.332
  303.338
  303.343
  303.346
  303.349
  303.35
  303.352
  303.354
  303.356
  303.358
  303.36
  303.362
  303.365
  303.367
  303.369
  303.372
  303.375
  303.377
  303.381
  303.385
  303.39
  303.398
  303.406
  303.409
  303.457
  303.541
  304.881
  304.616
  297.805
)
;
  }
  sWall
  {
    type wallHeatTransfer;
    Tinf uniform 315.2;
    alphaWall uniform 0.36;
    value uniform 301.111;
  }
  nWall
  {
    type wallHeatTransfer;
    Tinf uniform 307.2;
    alphaWall uniform 0.36;
    value nonuniform List<scalar> 6
(
  304.003
  303.948
  303.873
  304.076
  304.048
  304.117
)
;
  }
  sideWalls
  {
    type empty;
  }
  glass1
  {
    type wallHeatTransfer;
    Tinf uniform 315.2;
    alphaWall uniform 4.3;
    value nonuniform List<scalar> 9
(
  311.493
  310.858
  310.456
  310.15
  309.894
  309.661
  309.479
  309.545
  309.767
)
;
  }
  glass2
  {
    type wallHeatTransfer;
    Tinf uniform 307.2;
    alphaWall uniform 4.3;
    value nonuniform List<scalar> 2
(
  305.761
  305.872
)
;
  }
  sun
  {
    type wallHeatTransfer;
    Tinf uniform 305.2;
    alphaWall uniform 0.24;
    value nonuniform List<scalar> 14
(
  303.576
  303.327
  303.312
  303.301
  303.292
  303.283
  303.273
  303.263
  303.252
  303.24
  303.23
  303.225
  303.227
  303.239
)
;
  }
  heatsource1
  {
    type fixedGradient;
    gradient uniform 0;
  }
  heatsource2
  {
    type fixedGradient;
    gradient uniform 0;
  }
  Table_master
  {
    type zeroGradient;
  }
  Table_slave
  {
    type zeroGradient;
  }
  inlet
  {
    type fixedValue;
    value uniform 293.15;
  }
  outlet
  {
    type zeroGradient;
  }
} 	// ************************************************************************* //

