/*--------------------------------*- C++ -*----------------------------------*\
  =========                 |
  \\      /  F ield         | OpenFOAM: The Open Source CFD Toolbox
   \\    /   O peration     | Website:  https://openfoam.org
    \\  /    A nd           | Version:  6
     \\/     M anipulation  |
\*---------------------------------------------------------------------------*/
FoamFile
{
    version     2.0;
    format      ascii;
    class       volVectorField;
    location    "1600";
    object      U;
}
// * * * * * * * * * * * * * * * * * * * * * * * * * * * * * * * * * * * * * //

dimensions      [0 1 -1 0 0 0 0];

internalField   nonuniform List<vector> 
459
(
(0.0341431 0.0859003 0)
(-0.167114 0.0255023 0)
(-0.191894 0.0178468 0)
(-0.222904 0.0121367 0)
(-0.245333 0.00583995 0)
(-0.258083 -0.000859035 0)
(-0.259462 -0.00802927 0)
(-0.248205 -0.0156956 0)
(-0.224909 -0.0231551 0)
(-0.191487 -0.0290741 0)
(-0.151682 -0.0323502 0)
(-0.109906 -0.0324458 0)
(-0.0704106 -0.0295149 0)
(-0.0383595 -0.0246938 0)
(-0.0276474 -0.0198315 0)
(-0.00647617 0.00895279 0)
(-0.0292549 -0.0166325 0)
(-0.00764775 -0.0265498 0)
(0.0160494 -0.0205675 0)
(0.0316326 -0.0141739 0)
(0.044496 -0.00923175 0)
(0.052647 -0.00537665 0)
(0.0569062 -0.00334818 0)
(0.058833 -0.00253749 0)
(0.0597902 -0.00218943 0)
(0.0603891 -0.00197206 0)
(0.0607318 -0.00179508 0)
(0.0607596 -0.00158287 0)
(0.0602874 -0.00116726 0)
(0.0587889 -0.00018127 0)
(0.0551325 0.00188115 0)
(0.0480819 0.00407844 0)
(0.0416178 0.00587695 0)
(-0.0129705 0.0203999 0)
(0.208651 0.175999 0)
(-0.156278 0.0674773 0)
(-0.154778 0.0530566 0)
(-0.186939 0.0412056 0)
(-0.209225 0.027754 0)
(-0.222285 0.0125806 0)
(-0.224378 -0.0046343 0)
(-0.214081 -0.0232893 0)
(-0.192594 -0.0407705 0)
(-0.162247 -0.0539731 0)
(-0.126913 -0.0607756 0)
(-0.0906754 -0.0605537 0)
(-0.0570953 -0.0539123 0)
(-0.0295866 -0.0424819 0)
(-0.0121219 -0.0287806 0)
(0.00173199 -0.0107843 0)
(0.000395664 0.0156734 0)
(0.0608252 0.0364901 0)
(0.0244892 -0.0180407 0)
(0.0331699 -0.0314318 0)
(0.0443577 -0.0280891 0)
(0.053375 -0.020332 0)
(0.0600526 -0.0128302 0)
(0.0629803 -0.005488 0)
(0.0635581 -0.00126246 0)
(0.063512 0.000493039 0)
(0.0636215 0.00126341 0)
(0.063828 0.00173526 0)
(0.0639783 0.0021242 0)
(0.064031 0.00259562 0)
(0.063942 0.00346409 0)
(0.0632083 0.00559484 0)
(0.0595241 0.0115099 0)
(0.0501745 0.0164673 0)
(0.045681 0.0198236 0)
(-0.0492182 0.0442437 0)
(0.368806 0.263398 0)
(-0.173143 0.107502 0)
(-0.116246 0.0858811 0)
(-0.147622 0.0647401 0)
(-0.167518 0.0425782 0)
(-0.17974 0.0179234 0)
(-0.181537 -0.0100742 0)
(-0.170592 -0.0399471 0)
(-0.14938 -0.0670287 0)
(-0.121141 -0.0862685 0)
(-0.0899534 -0.0949823 0)
(-0.059312 -0.0931025 0)
(-0.0314961 -0.0820539 0)
(-0.00857566 -0.0641031 0)
(0.00847249 -0.040597 0)
(0.0196333 -0.0141804 0)
(0.0238407 0.0230591 0)
(0.110154 -0.0265607 0)
(0.0744203 -0.0375633 0)
(0.0689974 -0.0383501 0)
(0.0705209 -0.0330393 0)
(0.0719094 -0.025165 0)
(0.0732858 -0.0182552 0)
(0.072088 -0.0145772 0)
(0.0673856 -0.0102711 0)
(0.0639502 -0.00791802 0)
(0.0623956 -0.00656961 0)
(0.0617306 -0.00570128 0)
(0.0613892 -0.00509873 0)
(0.0613555 -0.0045719 0)
(0.0620675 -0.00374856 0)
(0.0646369 -0.000679249 0)
(0.0626348 0.0160984 0)
(0.0496499 0.0277756 0)
(0.0519295 0.0356966 0)
(-0.0812575 0.0690356 0)
(0.513396 0.333711 0)
(-0.207898 0.142996 0)
(-0.0753191 0.113859 0)
(-0.105381 0.0848319 0)
(-0.119857 0.0564164 0)
(-0.128911 0.0240583 0)
(-0.127756 -0.0145779 0)
(-0.113762 -0.056261 0)
(-0.0921837 -0.0921855 0)
(-0.0670236 -0.115803 0)
(-0.0417878 -0.124907 0)
(-0.0188314 -0.120799 0)
(0.00161726 -0.105602 0)
(0.0184481 -0.0828386 0)
(0.0327364 -0.0560047 0)
(0.0480141 -0.0269496 0)
(0.0695833 0.00490996 0)
(0.100325 0.0163123 0)
(0.105443 -0.0226726 0)
(0.0918027 -0.0334217 0)
(0.0828241 -0.0327818 0)
(0.0777169 -0.0287231 0)
(0.0738714 -0.0227092 0)
(0.071257 -0.0150513 0)
(0.0724342 -0.00910171 0)
(0.0773777 -0.00680276 0)
(0.0815873 -0.0055332 0)
(0.0843732 -0.00463887 0)
(0.0860817 -0.00364214 0)
(0.0862782 -0.00224494 0)
(0.0838388 -0.000187433 0)
(0.0775016 0.0028367 0)
(0.0647535 0.00735444 0)
(0.0525368 0.0266247 0)
(0.0404515 0.0429023 0)
(0.0560098 0.0558114 0)
(-0.114715 0.0912401 0)
(0.638594 0.388174 0)
(-0.250451 0.171976 0)
(-0.0345716 0.130032 0)
(-0.0611506 0.0963563 0)
(-0.06761 0.0644762 0)
(-0.07067 0.0270074 0)
(-0.0607375 -0.0213428 0)
(-0.0415437 -0.0739008 0)
(-0.020986 -0.115065 0)
(-0.00172861 -0.139259 0)
(0.0145017 -0.145756 0)
(0.0269121 -0.138002 0)
(0.0366461 -0.120156 0)
(0.044503 -0.0957697 0)
(0.0517823 -0.068356 0)
(0.0604593 -0.0417003 0)
(0.0732663 -0.02209 0)
(0.0839582 -0.0211993 0)
(0.0850756 -0.028925 0)
(0.0786897 -0.0297591 0)
(0.0704647 -0.0268741 0)
(0.0636677 -0.0230226 0)
(0.0585068 -0.0184583 0)
(0.0553399 -0.0130789 0)
(0.0550601 -0.00728916 0)
(0.0573613 -0.00448244 0)
(0.0600528 -0.00348117 0)
(0.0626262 -0.00271577 0)
(0.0649912 -0.00115064 0)
(0.0668057 0.00182275 0)
(0.0668419 0.0063207 0)
(0.0644834 0.0125042 0)
(0.059128 0.0210037 0)
(0.0522919 0.0361541 0)
(0.0422266 0.0541275 0)
(0.0644 0.0742221 0)
(-0.0215315 0.103338 0)
(0.046482 0.0323916 0)
(-0.0619118 -0.0343857 0)
(-0.27249 -0.0570519 0)
(0.729682 0.433581 0)
(-0.292009 0.191482 0)
(-0.00336219 0.126612 0)
(-0.015996 0.0976108 0)
(-0.0118968 0.0669052 0)
(-0.00626565 0.0239707 0)
(0.0224003 -0.038523 0)
(0.0442174 -0.0942387 0)
(0.059735 -0.132412 0)
(0.0691264 -0.15178 0)
(0.0730579 -0.154293 0)
(0.0729352 -0.143527 0)
(0.0702638 -0.123512 0)
(0.0665507 -0.0982314 0)
(0.0632835 -0.0713523 0)
(0.0618726 -0.0465392 0)
(0.06317 -0.0280642 0)
(0.0640259 -0.020749 0)
(0.0607624 -0.0203759 0)
(0.05377 -0.0204784 0)
(0.0458495 -0.0190554 0)
(0.0392013 -0.0168051 0)
(0.0343632 -0.0140823 0)
(0.0316306 -0.0109479 0)
(0.0312692 -0.00801471 0)
(0.0329261 -0.00688318 0)
(0.0355461 -0.00676393 0)
(0.0386709 -0.00641496 0)
(0.0421142 -0.00482213 0)
(0.0456101 -0.00109642 0)
(0.0488095 0.00511228 0)
(0.0504995 0.0134528 0)
(0.0509375 0.0240676 0)
(0.0514812 0.0384603 0)
(0.0503395 0.0561558 0)
(0.0728577 0.0788827 0)
(0.0525371 0.0967894 0)
(0.0933344 0.0677633 0)
(0.116207 0.0446423 0)
(-0.128788 -0.00690444 0)
(0.781744 0.474853 0)
(-0.312929 0.176945 0)
(0.0234948 0.0771415 0)
(0.0426675 0.0738228 0)
(0.0578273 0.0522795 0)
(0.0845036 0.00114318 0)
(0.118625 -0.0629139 0)
(0.137892 -0.111684 0)
(0.144285 -0.141158 0)
(0.140488 -0.152766 0)
(0.129244 -0.149467 0)
(0.113473 -0.135008 0)
(0.0957467 -0.113256 0)
(0.0783092 -0.0881066 0)
(0.062845 -0.0627691 0)
(0.0505999 -0.0403545 0)
(0.0420134 -0.0239726 0)
(0.0355459 -0.0157295 0)
(0.0290241 -0.0133996 0)
(0.0219526 -0.0130425 0)
(0.0152597 -0.0125034 0)
(0.00986886 -0.0116673 0)
(0.0060952 -0.0106785 0)
(0.00411433 -0.0096083 0)
(0.00400838 -0.00887013 0)
(0.00541594 -0.00909153 0)
(0.00769071 -0.00976989 0)
(0.0105538 -0.0100431 0)
(0.0140353 -0.00903251 0)
(0.0182567 -0.00572314 0)
(0.0241192 0.000918132 0)
(0.0301382 0.0100841 0)
(0.0357911 0.0208473 0)
(0.042922 0.0336847 0)
(0.0506922 0.0482928 0)
(0.0727672 0.0666536 0)
(0.0860525 0.0742858 0)
(0.118412 0.0517496 0)
(0.158051 0.043987 0)
(-0.0349122 0.0940433 0)
(0.886427 0.477508 0)
(-0.0705224 0.15657 0)
(0.106099 0.00385166 0)
(0.169284 -0.0165828 0)
(0.182337 -0.035446 0)
(0.217924 -0.0694626 0)
(0.239708 -0.102157 0)
(0.242204 -0.125502 0)
(0.228202 -0.136997 0)
(0.202641 -0.136866 0)
(0.170384 -0.126871 0)
(0.135656 -0.10964 0)
(0.1015 -0.0878575 0)
(0.0704094 -0.0647773 0)
(0.0438438 -0.0428176 0)
(0.0231746 -0.0245722 0)
(0.00885384 -0.0125581 0)
(-0.000468221 -0.00721719 0)
(-0.0070613 -0.00629258 0)
(-0.0125868 -0.00681945 0)
(-0.0173173 -0.00742393 0)
(-0.0210809 -0.00792434 0)
(-0.0237976 -0.00837806 0)
(-0.0254179 -0.00887866 0)
(-0.0259872 -0.00963129 0)
(-0.0258101 -0.0107832 0)
(-0.0252696 -0.0120645 0)
(-0.0244982 -0.0130291 0)
(-0.0233521 -0.0131769 0)
(-0.0214497 -0.0119177 0)
(-0.0178382 -0.00849699 0)
(-0.00916258 -0.00216507 0)
(-0.000317992 0.00620305 0)
(0.0102767 0.0145604 0)
(0.0219277 0.0216414 0)
(0.041616 0.0289081 0)
(0.0600843 0.0218838 0)
(0.0794789 -0.00539967 0)
(0.138317 0.0404901 0)
(-0.413531 0.206879 0)
(1.03157 0.429895 0)
(0.496709 0.285027 0)
(0.502988 0.191349 0)
(0.511549 0.119893 0)
(0.486928 0.0684187 0)
(0.444123 0.0150716 0)
(0.394139 -0.0331339 0)
(0.340645 -0.0672454 0)
(0.283354 -0.0847931 0)
(0.224688 -0.0878197 0)
(0.167948 -0.0803588 0)
(0.115899 -0.0664142 0)
(0.0695607 -0.0487307 0)
(0.0308378 -0.0307249 0)
(-0.00070282 -0.0146112 0)
(-0.0214588 -0.0046625 0)
(-0.032532 -0.000940027 0)
(-0.0386555 -0.000449481 0)
(-0.0426398 -0.00142148 0)
(-0.0461147 -0.0027619 0)
(-0.0492894 -0.00407277 0)
(-0.0521776 -0.00530024 0)
(-0.0547604 -0.00647949 0)
(-0.0570623 -0.0076628 0)
(-0.0592053 -0.00891247 0)
(-0.0614608 -0.0102074 0)
(-0.0641613 -0.0113305 0)
(-0.0676081 -0.0119083 0)
(-0.0721286 -0.011412 0)
(-0.0781812 -0.00914162 0)
(-0.0863624 -0.00427034 0)
(-0.0967331 0.00382539 0)
(-0.107302 0.0146593 0)
(-0.122571 0.0283894 0)
(-0.146647 0.0450578 0)
(-0.182056 0.063468 0)
(-0.232074 0.0795712 0)
(-0.288997 0.0907621 0)
(-0.357616 0.0970444 0)
(-0.619752 0.0991231 0)
(-0.148103 0.0827771 0)
(0.134735 0.0616797 0)
(0.217989 0.00594073 0)
(0.201502 -0.028851 0)
(0.185763 -0.0431345 0)
(0.163215 -0.047752 0)
(0.130707 -0.0460719 0)
(0.092139 -0.0396325 0)
(0.0522721 -0.0298585 0)
(0.0143105 -0.0176038 0)
(-0.0229446 -0.0038726 0)
(-0.0466433 0.00375806 0)
(-0.0610984 0.00714699 0)
(-0.0681376 0.00754725 0)
(-0.0715749 0.0067456 0)
(-0.0738334 0.00574044 0)
(-0.0757718 0.0047567 0)
(-0.0776994 0.00385055 0)
(-0.0799222 0.00295938 0)
(-0.0824852 0.00194965 0)
(-0.0853152 0.000861963 0)
(-0.0884394 -0.00024335 0)
(-0.0919288 -0.00127917 0)
(-0.095876 -0.00208471 0)
(-0.100356 -0.00240929 0)
(-0.105371 -0.0019369 0)
(-0.110834 -0.000309769 0)
(-0.116533 0.00283609 0)
(-0.121874 0.00794171 0)
(-0.126067 0.0157541 0)
(-0.129551 0.0273948 0)
(-0.132571 0.0432468 0)
(-0.135937 0.0624119 0)
(-0.140154 0.0812256 0)
(-0.14203 0.0898198 0)
(-0.124739 0.0674051 0)
(-0.0810298 -0.0256159 0)
(-0.27865 -0.203426 0)
(-0.0233249 0.230904 0)
(0.06359 0.0994437 0)
(0.0375488 0.0189337 0)
(0.0253774 -0.00444685 0)
(0.0160066 -0.00977594 0)
(-0.00266263 -0.0111231 0)
(-0.027626 -0.00863292 0)
(-0.0533064 -0.00404022 0)
(-0.0750424 0.000471906 0)
(-0.0900031 0.00347907 0)
(-0.0971977 0.003732 0)
(-0.0997415 0.00148666 0)
(-0.100104 -0.00150733 0)
(-0.099518 -0.00490089 0)
(-0.0990716 -0.00836765 0)
(-0.0991664 -0.0116641 0)
(-0.0998304 -0.0146621 0)
(-0.10096 -0.0171493 0)
(-0.102409 -0.0189593 0)
(-0.104084 -0.0200573 0)
(-0.10603 -0.0205421 0)
(-0.108215 -0.0204299 0)
(-0.110639 -0.0199528 0)
(-0.113284 -0.0191724 0)
(-0.116046 -0.0179835 0)
(-0.118703 -0.0161571 0)
(-0.120895 -0.0133162 0)
(-0.122116 -0.00888557 0)
(-0.121829 -0.00265195 0)
(-0.119063 0.00591307 0)
(-0.112373 0.0176765 0)
(-0.100478 0.0333931 0)
(-0.0830888 0.0526224 0)
(-0.0610804 0.0712613 0)
(-0.0373086 0.0821862 0)
(0.00273531 0.0665606 0)
(0.143084 -0.00457355 0)
(-0.207279 -0.114189 0)
(-0.103446 -0.348675 0)
(-0.439215 -0.120303 0)
(-0.310724 0.0956352 0)
(-0.22653 -0.0202306 0)
(-0.180127 -0.0413279 0)
(-0.165708 -0.0291573 0)
(-0.163286 -0.0162038 0)
(-0.164569 -0.00589294 0)
(-0.165082 0.00271575 0)
(-0.162804 0.0102472 0)
(-0.158082 0.0171556 0)
(-0.151037 0.0234357 0)
(-0.142603 0.0288251 0)
(-0.134211 0.0333401 0)
(-0.126716 0.0375549 0)
(-0.120446 0.0416943 0)
(-0.115408 0.0458468 0)
(-0.11143 0.049819 0)
(-0.108366 0.0532342 0)
(-0.106123 0.0557278 0)
(-0.104623 0.0570756 0)
(-0.103791 0.0572439 0)
(-0.103572 0.0563516 0)
(-0.10391 0.0545167 0)
(-0.104728 0.0521724 0)
(-0.105926 0.0495628 0)
(-0.107346 0.0468169 0)
(-0.108724 0.0440372 0)
(-0.109636 0.0413016 0)
(-0.109407 0.0386809 0)
(-0.106785 0.0370196 0)
(-0.0998887 0.0370083 0)
(-0.0862546 0.0394093 0)
(-0.0640252 0.0451188 0)
(-0.0338063 0.054638 0)
(0.0145073 0.0676107 0)
(0.0590931 0.0688708 0)
(0.101604 0.0542526 0)
(0.163767 0.0252412 0)
(-0.219047 -0.0295674 0)
)
;

boundaryField
{
    floor
    {
        type            noSlip;
    }
    ceiling
    {
        type            noSlip;
    }
    sWall
    {
        type            noSlip;
    }
    nWall
    {
        type            noSlip;
    }
    sideWalls
    {
        type            empty;
    }
    glass1
    {
        type            noSlip;
    }
    glass2
    {
        type            noSlip;
    }
    sun
    {
        type            noSlip;
    }
    heatsource1
    {
        type            noSlip;
    }
    heatsource2
    {
        type            noSlip;
    }
    Table_master
    {
        type            noSlip;
    }
    Table_slave
    {
        type            noSlip;
    }
    inlet
    {
        type            fixedValue;
        value           uniform (0.3 0 0);
    }
    outlet
    {
        type            zeroGradient;
    }
}


// ************************************************************************* //
