/*--------------------------------*- C++ -*----------------------------------*\
  =========                 |
  \\      /  F ield         | OpenFOAM: The Open Source CFD Toolbox
   \\    /   O peration     | Website:  https://openfoam.org
    \\  /    A nd           | Version:  6
     \\/     M anipulation  |
\*---------------------------------------------------------------------------*/
FoamFile
{
    version     2.0;
    format      ascii;
    class       surfaceScalarField;
    location    "1200";
    object      phi;
}
// * * * * * * * * * * * * * * * * * * * * * * * * * * * * * * * * * * * * * //

dimensions      [1 0 -1 0 0 0 0];

internalField   nonuniform List<scalar> 
852
(
-0.00295626
0.00301368
-0.00399137
0.00103512
-0.00479066
0.000799285
-0.00541556
0.00062491
-0.00583271
0.000417151
-0.00601422
0.000181513
-0.005932
-8.22208e-05
-0.00556332
-0.000368678
-0.00492203
-0.000641291
-0.00407081
-0.000851216
-0.00310758
-0.000963228
-0.00214304
-0.000964538
-0.00127801
-0.000865034
-0.000571761
-0.000706243
-0.00057009
-0.00077469
0.000777698
-0.000516166
-0.000258521
7.84323e-05
-0.000594596
0.000576449
-0.000498014
0.000920996
-0.000344546
0.00114498
-0.000223982
0.00126959
-0.000124608
0.00132988
-6.02907e-05
0.0013632
-3.33094e-05
0.0013836
-2.04052e-05
0.00139507
-1.14618e-05
0.00139911
-4.03989e-06
0.00139442
4.69318e-06
0.00137355
2.08729e-05
0.00131556
5.79945e-05
0.00118534
0.000130225
0.00097138
0.000213958
0.000711795
0.000259587
0.000715824
-0.00211798
0.00528637
-0.00313552
0.00205266
-0.00396433
0.0016281
-0.00458551
0.00124608
-0.00500074
0.000832385
-0.00519133
0.000372111
-0.00512591
-0.000147647
-0.00478559
-0.000708991
-0.00419645
-0.00123043
-0.00343214
-0.00161552
-0.00258937
-0.001806
-0.00176297
-0.00179094
-0.00103374
-0.00159426
-0.000478533
-0.00126144
-0.000214216
-0.000834404
9.94094e-05
-0.000313675
9.93604e-05
0.000263148
0.000523302
0.000665795
-0.000661167
0.000929376
-0.000858174
0.00115145
-0.000720087
0.00132782
-0.000520917
0.00144132
-0.000337472
0.00146128
-0.000144569
0.00146624
-6.52527e-05
0.00147228
-3.93456e-05
0.00147737
-2.54879e-05
0.00148075
-1.48418e-05
0.00148257
-5.85972e-06
0.00148221
5.06091e-06
0.00147648
2.6605e-05
0.00143778
9.66941e-05
0.00127174
0.000296267
0.000983173
0.000502528
0.000622444
0.000620319
0.0013485
-0.00148903
0.00701209
-0.00237058
0.00293421
-0.00311156
0.00236909
-0.00364903
0.00178355
-0.00401801
0.00120136
-0.00419501
0.000549118
-0.0041263
-0.000216355
-0.0037837
-0.00105159
-0.00321821
-0.00179591
-0.00252209
-0.00231164
-0.00178948
-0.00253861
-0.00109454
-0.00248587
-0.000489907
-0.0021989
-1.31716e-05
-0.00173818
0.000302098
-0.00114967
0.0004514
-0.000462975
0.000550763
0.0014928
-0.00095995
0.00171197
-0.000880327
0.00166964
-0.000815843
0.00165854
-0.000708991
0.00168329
-0.00054566
0.0017235
-0.000377679
0.00157908
0.00151399
0.0014748
0.00144946
0.00143478
0.00142907
0.00143429
0.00146105
0.0015579
0.00128711
0.000567063
0.000955181
0.000834457
0.000536385
0.00103912
0.00190036
-0.0010433
0.00836182
-0.00174568
0.00363659
-0.00224421
0.00286762
-0.00260492
0.00214426
-0.00286022
0.00145667
-0.00297529
0.000664193
-0.00285371
-0.000337937
-0.00247322
-0.00143208
-0.00193208
-0.00233706
-0.00133346
-0.00291025
-0.000752966
-0.00311911
-0.000232759
-0.00300608
0.00021052
-0.00264218
0.000575799
-0.00210346
0.000900372
-0.00147424
0.00126673
-0.000829327
0.0021063
-0.000288812
0.00247894
-0.000364189
0.00212383
-0.000604847
0.00199245
-0.000748941
0.00186864
-0.000692032
0.00175751
-0.000597858
0.00168833
-0.000476475
0.00163519
-0.000324542
0.00177696
-0.000141917
0.0018657
-8.88925e-05
0.00193773
-7.21791e-05
0.00199451
-5.6933e-05
0.00202168
-2.73206e-05
0.00199721
2.43201e-05
0.00189543
0.000101628
0.00168284
0.000212442
0.00130442
0.000378266
0.00114294
0.00072855
0.000828957
0.00114844
0.00035768
0.0015104
0.0022782
-0.000729432
0.00945688
-0.00126458
0.00417174
-0.00138786
0.00299092
-0.00148368
0.00224008
-0.00154935
0.00152234
-0.00152209
0.000636935
-0.00126158
-0.000598447
-0.000828128
-0.00186552
-0.000353746
-0.00281144
8.12386e-05
-0.00334523
0.000439772
-0.00347764
0.000715604
-0.00328191
0.000928154
-0.00285473
0.00110789
-0.00228319
0.00128873
-0.00165509
0.0015188
-0.00105939
0.00184149
-0.000611502
0.00195134
-0.000474033
0.00187147
-0.000524978
0.00169814
-0.000575602
0.0015438
-0.000537696
0.00141254
-0.000466591
0.00131767
-0.000381604
0.00127521
-0.000282078
0.00132128
-0.00018799
0.0013782
-0.000145809
0.00143941
-0.000133385
0.00150141
-0.000118935
0.00155352
-7.94288e-05
0.00157505
2.79402e-06
0.00154418
0.000132506
0.001449
0.000307622
0.00129066
0.000536603
0.00114251
0.000876709
0.000975571
0.00131538
0.000615843
0.00187013
0.000508769
0.00238528
-0.000993787
0.00150235
-0.00145696
0.00046297
-0.00140839
-0.000631889
0.0105043
-0.00100083
0.00454068
-0.000608634
0.00259872
-0.000320679
0.00195213
-0.000112482
0.00131414
0.000196291
0.000328164
0.000665499
-0.00106765
0.0011031
-0.00230313
0.00142114
-0.00312948
0.00160227
-0.00352636
0.00166883
-0.0035442
0.00165411
-0.00326718
0.00158899
-0.00278961
0.0015109
-0.0022051
0.0014534
-0.00159759
0.00144188
-0.00104787
0.00147047
-0.000640086
0.00143842
-0.000441987
0.00131475
-0.000401303
0.00113769
-0.000398541
0.000976097
-0.000376102
0.000848524
-0.000339016
0.00076293
-0.000296009
0.000729905
-0.000249051
0.000752398
-0.000210481
0.000805374
-0.000198784
0.000874781
-0.000202789
0.000954736
-0.000198888
0.00103916
-0.000163853
0.00111658
-7.46235e-05
0.00116824
8.08467e-05
0.00118829
0.000287582
0.00118593
0.000538957
0.00120586
0.00085678
0.00129437
0.00122687
0.00146762
0.00169688
0.00190484
0.00194806
0.00216339
0.0012438
0.00177414
0.000852226
0.000424113
-0.000721326
0.0116857
-0.00060998
0.00442933
0.000461719
0.00152703
0.00112704
0.00128681
0.00167781
0.000763372
0.00231226
-0.000306279
0.00287375
-0.00162915
0.0031894
-0.00261877
0.00325211
-0.00319219
0.00310644
-0.00338069
0.00281487
-0.00325263
0.00244142
-0.00289373
0.00204012
-0.0023883
0.0016592
-0.00182419
0.00133231
-0.00127069
0.00107954
-0.000795097
0.000899013
-0.000459554
0.000745609
-0.000288582
0.000584344
-0.000240036
0.000422832
-0.000237026
0.000284464
-0.000237732
0.000180523
-0.000235073
0.000115237
-0.000230721
9.27392e-05
-0.000226551
0.000111019
-0.000228759
0.000156349
-0.000244111
0.000218178
-0.000264616
0.000294637
-0.000275345
0.000389746
-0.00025896
0.0005085
-0.000193375
0.00063931
-4.99612e-05
0.000770086
0.000156808
0.000910296
0.000398749
0.00109845
0.000668628
0.00138095
0.000944374
0.00182401
0.00125383
0.00249226
0.00127981
0.00303503
0.000701033
0.00305566
0.000831594
0.00354265
0.00259783
0.00960182
0.00327134
0.00375582
0.00342686
0.00137151
0.0038645
0.000849168
0.00453777
9.01122e-05
0.00522999
-0.000998502
0.00552274
-0.0019219
0.00541355
-0.00250957
0.0049854
-0.00276404
0.00434063
-0.00273592
0.00358062
-0.00249261
0.00279241
-0.00210552
0.00203511
-0.00163101
0.00136401
-0.00115309
0.000807885
-0.000714561
0.000387616
-0.000374826
0.000104433
-0.000176369
-8.52851e-05
-9.88618e-05
-0.000230238
-9.50805e-05
-0.000351479
-0.000115783
-0.000450479
-0.00013873
-0.000525389
-0.000160161
-0.000575606
-0.000180501
-0.000600997
-0.000201158
-0.000604856
-0.000224896
-0.00059595
-0.000253015
-0.000580205
-0.000280359
-0.000557027
-0.00029852
-0.00051823
-0.000297755
-0.00044493
-0.000266673
-0.000306237
-0.000188652
-0.000116293
-3.31333e-05
0.000106038
0.000176421
0.000380716
0.000393952
0.000718343
0.000606749
0.00115958
0.000812596
0.00163453
0.000804862
0.00182495
0.000510615
0.0010715
0.00158505
0.00487374
0.0101659
0.0139146
0.0122223
0.00306378
0.0112985
0.00177296
0.0105624
0.000826193
0.00968894
-0.000124999
0.00855792
-0.000790885
0.00727563
-0.00122727
0.0059359
-0.00142431
0.00460628
-0.00140629
0.00334896
-0.0012353
0.00221705
-0.000973605
0.00121801
-0.000631962
0.000395396
-0.000330471
-0.000216339
-0.000102824
-0.000602946
1.17839e-05
-0.000815467
3.61543e-05
-0.000937766
2.34392e-05
-0.00102824
-4.60867e-06
-0.00110811
-3.59079e-05
-0.00118038
-6.64604e-05
-0.00124514
-9.53957e-05
-0.00130312
-0.000122521
-0.00135602
-0.000148257
-0.00140789
-0.00017302
-0.00146595
-0.000194954
-0.00153757
-0.000208738
-0.00163009
-0.000205997
-0.00175254
-0.000175299
-0.0019165
-0.000102714
-0.00212967
2.45237e-05
-0.0023785
0.000215698
-0.00268777
0.000485694
-0.0031448
0.000850978
-0.00384571
0.00130766
-0.00485474
0.00182163
-0.00628543
0.00223555
-0.00800629
0.00223147
-0.007494
0.00107276
-0.0023326
0.00510986
0.00457848
0.00412211
0.00276072
0.00453764
0.000410656
0.00458461
-0.000171972
0.00418492
-0.000391195
0.00351129
-0.000553637
0.00267043
-0.000583455
0.00175388
-0.000489736
0.000837266
-0.000318684
-2.87643e-05
-0.000107572
-0.000742228
8.15045e-05
-0.00121689
0.000144192
-0.00147887
0.000159156
-0.00160789
0.000140807
-0.00167863
0.000106898
-0.00172813
7.29387e-05
-0.00177415
4.14135e-05
-0.00182409
1.40356e-05
-0.00188124
-9.31028e-06
-0.00194555
-3.1083e-05
-0.00201675
-5.13154e-05
-0.00209588
-6.91243e-05
-0.00218432
-8.45799e-05
-0.00228419
-9.50789e-05
-0.00239657
-9.63518e-05
-0.00252024
-8.23276e-05
-0.00265048
-4.50609e-05
-0.00277836
2.51684e-05
-0.00289176
0.000137929
-0.00298835
0.000312286
-0.00307671
0.000574065
-0.0031641
0.000938363
-0.0032485
0.00139207
-0.0032832
0.00185633
-0.00320839
0.00216075
-0.00284375
0.00186684
-0.00157009
-0.000200897
-0.0038274
-0.000451088
0.00508569
0.000858983
0.00145065
0.000852273
0.000417364
0.000605023
7.5278e-05
0.000250927
-3.70976e-05
-0.000258196
-4.45115e-05
-0.000848566
6.91668e-06
-0.00141053
7.2227e-05
-0.0018597
0.000130489
-0.00214285
0.000175576
-0.00225962
0.00019828
-0.00230142
0.000185998
-0.00230319
0.000160928
-0.00229448
0.000132096
-0.00229273
0.000105148
-0.00230186
8.20715e-05
-0.00232194
6.14928e-05
-0.00235063
4.27313e-05
-0.00238594
2.59997e-05
-0.00242813
1.11117e-05
-0.00247697
-2.4756e-06
-0.00253213
-1.39566e-05
-0.00259333
-2.33741e-05
-0.00265877
-2.96431e-05
-0.00272444
-3.06783e-05
-0.00278345
-2.33139e-05
-0.00282511
-3.39891e-06
-0.00283726
3.73171e-05
-0.00280699
0.000107661
-0.00271094
0.000216244
-0.00251606
0.000379188
-0.00219505
0.000617355
-0.00173344
0.000930468
-0.00110802
0.00123091
-0.000138003
0.00119073
0.0011647
0.000564139
0.00157289
-0.000609077
-0.00217187
-0.00796437
-0.0108127
-0.00568298
-0.00420924
-0.00377743
-0.00369255
-0.00372318
-0.00376352
-0.00375416
-0.00368079
-0.00355021
-0.00337546
-0.00317879
-0.00299507
-0.00283696
-0.00270811
-0.00260654
-0.0025283
-0.00247083
-0.00243223
-0.00241042
-0.00240352
-0.00241019
-0.00242831
-0.00245577
-0.00248944
-0.00252404
-0.00255119
-0.0025583
-0.00252457
-0.00242037
-0.00220745
-0.00183147
-0.00121721
-0.00028976
0.000938154
0.00212578
0.00268665
0.00207406
)
;

boundaryField
{
    floor
    {
        type            calculated;
        value           nonuniform List<scalar> 
29
(
0
0
0
0
0
0
0
0
0
0
0
0
0
0
0
0
0
0
0
0
-4.0258e-06
-1.02278e-05
-1.54696e-05
-2.01608e-05
-1.66964e-06
-3.00638e-06
-8.749e-06
-9.54956e-06
-8.44225e-06
)
;
    }
    ceiling
    {
        type            calculated;
        value           nonuniform List<scalar> 
43
(
-4.66167e-05
-4.5341e-05
-4.40701e-05
-2.30952e-05
-1.44412e-05
-9.59605e-06
-6.46662e-06
-4.17366e-06
-2.43723e-06
-1.14865e-06
-8.41337e-08
8.25426e-07
1.61273e-06
2.27997e-06
2.82176e-06
3.24891e-06
3.58205e-06
3.83591e-06
4.01791e-06
4.13467e-06
4.19626e-06
4.21456e-06
4.19909e-06
4.157e-06
4.09694e-06
4.02156e-06
3.93261e-06
3.83117e-06
3.71752e-06
3.59035e-06
3.45881e-06
3.32939e-06
3.20731e-06
3.09988e-06
3.02059e-06
3.00197e-06
3.10037e-06
3.27836e-06
3.5158e-06
4.53867e-06
1.02331e-05
7.18775e-06
-5.61255e-05
)
;
    }
    sWall
    {
        type            calculated;
        value           uniform -0.000271176;
    }
    nWall
    {
        type            calculated;
        value           nonuniform List<scalar> 6(-4.87744e-05 -5.83576e-05 -6.28737e-05 -7.52831e-05 -8.2645e-05 -0.00010235);
    }
    sideWalls
    {
        type            empty;
        value           nonuniform 0();
    }
    glass1
    {
        type            calculated;
        value           nonuniform List<scalar> 9(-5.7421e-05 -0.000154716 -0.000236681 -0.000306433 -0.000365628 -0.000415504 -0.000460047 -0.000513985 -0.000574363);
    }
    glass2
    {
        type            calculated;
        value           nonuniform List<scalar> 2(-0.000259582 -0.000287665);
    }
    sun
    {
        type            calculated;
        value           uniform 0;
    }
    heatsource1
    {
        type            calculated;
        value           nonuniform List<scalar> 3(2.0422e-07 2.04159e-07 2.04176e-07);
    }
    heatsource2
    {
        type            calculated;
        value           nonuniform List<scalar> 4(5.11945e-08 5.12838e-08 0 0);
    }
    Table_master
    {
        type            calculated;
        value           nonuniform List<scalar> 9(-1.5316e-07 -1.53248e-07 -1.53281e-07 -1.53302e-07 -1.53318e-07 -1.53328e-07 -1.53333e-07 -1.53329e-07 -1.53299e-07);
    }
    Table_slave
    {
        type            calculated;
        value           nonuniform List<scalar> 9(1.53038e-07 1.53055e-07 1.53032e-07 1.53014e-07 1.53006e-07 1.5301e-07 1.53024e-07 1.53066e-07 1.53147e-07);
    }
    inlet
    {
        type            calculated;
        value           uniform -0.00662457;
    }
    outlet
    {
        type            calculated;
        value           nonuniform List<scalar> 2(0.00828216 0.00289372);
    }
}


// ************************************************************************* //
