/*--------------------------------*- C++ -*----------------------------------*\
  =========                 |
  \\      /  F ield         | OpenFOAM: The Open Source CFD Toolbox
   \\    /   O peration     | Website:  https://openfoam.org
    \\  /    A nd           | Version:  6
     \\/     M anipulation  |
\*---------------------------------------------------------------------------*/
FoamFile
{
    version     2.0;
    format      ascii;
    class       volScalarField;
    location    "1900";
    object      alphat;
}
// * * * * * * * * * * * * * * * * * * * * * * * * * * * * * * * * * * * * * //

dimensions      [1 -1 -1 0 0 0 0];

internalField   nonuniform List<scalar> 
459
(
0.00123667
0.00134957
0.00137523
0.00144094
0.00150184
0.00155932
0.00161647
0.00167096
0.00170922
0.0017239
0.00170802
0.00165662
0.00156732
0.00144259
0.00129617
0.000539659
0.000644185
0.000728231
0.000735877
0.000715232
0.000685155
0.000643046
0.000600062
0.000560952
0.000526329
0.000495762
0.000468688
0.000444644
0.000423153
0.000403432
0.000384498
0.000365002
0.000352856
0.000322983
0.00168309
0.00399986
0.00378673
0.00439298
0.0049873
0.00558299
0.00610007
0.00650301
0.00687724
0.00718827
0.00739336
0.00744869
0.00730179
0.00682874
0.00550665
0.00131992
0.000822364
0.000562428
0.00118622
0.00166479
0.00202857
0.00224511
0.00225771
0.00178286
0.00153107
0.00135253
0.00121626
0.00110866
0.00102157
0.000947868
0.000879306
0.00081276
0.000753534
0.000701362
0.000833404
0.000429405
0.002054
0.00542488
0.00461948
0.00575434
0.00627599
0.00665527
0.00695152
0.00721302
0.00751657
0.00784575
0.00816142
0.00840448
0.0085217
0.00842433
0.00785589
0.00602534
0.0013612
0.00105642
0.00154235
0.00201416
0.00247367
0.00281689
0.00278489
0.000914367
0.000808655
0.00072278
0.00065307
0.000596094
0.000549113
0.000510094
0.000477723
0.000451425
0.000487663
0.000562958
0.000943053
0.000501609
0.00241013
0.00693769
0.00456032
0.00600984
0.00640392
0.00649906
0.00657851
0.00672656
0.0069816
0.00732522
0.00771975
0.00808108
0.00835116
0.00845307
0.00833139
0.0076778
0.00514011
0.00159254
0.00191021
0.002441
0.00302536
0.0035487
0.00391174
0.00372872
0.00103524
0.000947204
0.000884498
0.0008368
0.000796023
0.00075784
0.00072104
0.000682188
0.000636894
0.000597744
0.000604244
0.00109677
0.000558827
0.00277306
0.0089107
0.00492841
0.00573089
0.00627322
0.00621745
0.00616282
0.00627425
0.00651349
0.00686567
0.00730252
0.0077008
0.00797772
0.0080823
0.00801735
0.00775595
0.00709765
0.00601701
0.00565296
0.00560013
0.00566248
0.00573469
0.00574773
0.00556997
0.00473569
0.00433041
0.00409484
0.00391169
0.00371755
0.00344017
0.00305668
0.00258603
0.002061
0.00153872
0.00113661
0.00112297
0.000761778
0.000689845
0.000831606
0.00093403
0.00315849
0.011074
0.00677539
0.00553933
0.00606382
0.00623407
0.00606467
0.00616928
0.00636851
0.00669584
0.00712213
0.00753797
0.00781373
0.0078725
0.00773367
0.00749879
0.00728014
0.00714626
0.0071668
0.00720914
0.00718748
0.00708949
0.00691804
0.00665961
0.00626865
0.00591689
0.00560592
0.00530957
0.00501061
0.00469191
0.00428836
0.00378086
0.00316827
0.00248808
0.00187741
0.00138371
0.00105931
0.000903173
0.00128396
0.000977146
0.00351999
0.012632
0.00970622
0.00702823
0.00656756
0.00660109
0.00643552
0.00634369
0.00644251
0.00675541
0.00720531
0.00764231
0.00790477
0.00790528
0.00768663
0.00743127
0.00737732
0.00759502
0.00786142
0.00795386
0.00783904
0.00757285
0.00720623
0.0067771
0.0063255
0.00591472
0.00554892
0.00521557
0.00491094
0.00464025
0.00440246
0.00407764
0.00360958
0.00302958
0.00246259
0.0019382
0.00156609
0.00145708
0.00149029
0.00112054
0.00359585
0.0114441
0.00993644
0.00881112
0.00812523
0.00735593
0.00671468
0.00645001
0.00657858
0.00700092
0.00754356
0.00800195
0.00819871
0.008077
0.00775052
0.0075058
0.00761734
0.00797312
0.00812547
0.00796655
0.00758236
0.00706014
0.00647824
0.00591286
0.00542307
0.00502656
0.00470438
0.00444019
0.0042316
0.00408475
0.00400789
0.00397556
0.00375221
0.00338688
0.00305917
0.00289536
0.00302579
0.0034979
0.00426958
0.00173696
0.00350557
0.00418984
0.00473671
0.00491105
0.00492821
0.0050484
0.00538807
0.00597763
0.00676346
0.00759029
0.00826296
0.00861272
0.00852975
0.0080955
0.00763881
0.00756352
0.00764982
0.00765478
0.00741794
0.0069419
0.00631666
0.0056444
0.00502277
0.00451364
0.00412702
0.00383606
0.00360775
0.00341992
0.00325909
0.00311463
0.00297706
0.00284553
0.00274029
0.00266229
0.00263238
0.00264143
0.00261956
0.00250531
0.00233556
0.00162383
0.0021656
0.00383643
0.00529796
0.00652077
0.00751265
0.00840091
0.00908813
0.00942815
0.0093741
0.00894847
0.00821429
0.00740041
0.00691284
0.00673796
0.00654003
0.00616903
0.00563386
0.00501586
0.00439892
0.00385976
0.00344476
0.00314766
0.00293944
0.00279087
0.00268226
0.00260273
0.002547
0.00251288
0.00250352
0.00252075
0.00254898
0.00258423
0.00261714
0.0026184
0.00254158
0.00237318
0.00212893
0.00133269
0.00251489
0.00538113
0.00734627
0.00826476
0.00888003
0.00930311
0.00925011
0.00865506
0.00775708
0.00680229
0.00600548
0.00543431
0.0050528
0.00470552
0.00428487
0.00381189
0.00334769
0.00294906
0.00264549
0.00243431
0.00229058
0.00219502
0.00213965
0.00211617
0.00211828
0.00214204
0.00218405
0.00223943
0.00231516
0.00240774
0.00251405
0.00262629
0.00272631
0.00279295
0.00277055
0.00278693
0.00275296
0.00135513
0.00230231
0.00230962
0.00235308
0.00242463
0.00219098
0.00200926
0.00192322
0.00183563
0.00170907
0.00155311
0.00137625
0.00120155
0.00104766
0.000926065
0.00083824
0.000776219
0.000731526
0.00069943
0.000678119
0.00066677
0.000664306
0.000669357
0.000680708
0.000697768
0.000719367
0.000745182
0.000775333
0.000810182
0.00085043
0.000897381
0.000950216
0.00100918
0.00107498
0.00114827
0.0012288
0.00132592
0.00135613
0.0013213
0.00123769
0.00114845
)
;

boundaryField
{
    floor
    {
        type            compressible::alphatWallFunction;
        Prt             0.85;
        value           nonuniform List<scalar> 
29
(
0.00018336
7.52859e-05
9.09623e-05
0.000103341
0.000104458
0.000101438
9.70197e-05
9.07935e-05
8.43864e-05
7.85076e-05
7.32606e-05
6.85926e-05
6.44278e-05
6.07035e-05
5.7353e-05
5.42593e-05
5.12706e-05
4.81734e-05
4.6233e-05
4.14232e-05
4.14226e-05
5.83302e-05
6.94887e-05
7.81875e-05
0.000183358
7.52849e-05
7.87299e-05
0.000150216
0.00022339
)
;
    }
    ceiling
    {
        type            compressible::alphatWallFunction;
        Prt             0.85;
        value           nonuniform List<scalar> 
43
(
0.000316207
0.00031703
0.000322593
0.000331855
0.000301935
0.000278411
0.000267196
0.000255719
0.000239018
0.000218244
0.000194398
0.000170502
0.000149118
0.000131965
0.000119412
0.000110453
0.000103945
9.92407e-05
9.61032e-05
9.44275e-05
9.40632e-05
9.48099e-05
9.64854e-05
9.89973e-05
0.000102167
0.00010594
0.000110326
0.000115371
0.000121166
0.000127885
0.000135396
0.000143721
0.000152944
0.000163142
0.000174261
0.00018756
0.000191676
0.000186931
0.000175485
0.000163172
0.000467253
0.000550484
0.000343105
)
;
    }
    sWall
    {
        type            compressible::alphatWallFunction;
        Prt             0.85;
        value           uniform 0.000315035;
    }
    nWall
    {
        type            compressible::alphatWallFunction;
        Prt             0.85;
        value           nonuniform List<scalar> 6(0.000132774 0.000138873 0.00015895 0.000188155 0.000191207 0.000162845);
    }
    sideWalls
    {
        type            empty;
    }
    glass1
    {
        type            compressible::alphatWallFunction;
        Prt             0.85;
        value           nonuniform List<scalar> 9(0.000170902 0.000230333 0.000278507 0.000323966 0.00036963 0.000417487 0.000461868 0.000471251 0.000460464);
    }
    glass2
    {
        type            compressible::alphatWallFunction;
        Prt             0.85;
        value           nonuniform List<scalar> 2(0.000240949 0.000226056);
    }
    sun
    {
        type            compressible::alphatWallFunction;
        Prt             0.85;
        value           nonuniform List<scalar> 
14
(
0.000175225
0.000190647
0.000194135
0.000203033
0.000211241
0.000218952
0.000226588
0.000233841
0.000238917
0.000240862
0.000238756
0.000231932
0.000220019
0.000203252
)
;
    }
    heatsource1
    {
        type            compressible::alphatWallFunction;
        Prt             0.85;
        value           nonuniform List<scalar> 3(9.78236e-05 0.000118452 0.000133092);
    }
    heatsource2
    {
        type            compressible::alphatWallFunction;
        Prt             0.85;
        value           nonuniform List<scalar> 4(0.000186733 0.00011712 0.000117119 0.000192352);
    }
    Table_master
    {
        type            compressible::alphatWallFunction;
        Prt             0.85;
        value           nonuniform List<scalar> 9(0.000130294 0.00011514 0.000102656 9.23899e-05 8.38999e-05 7.68238e-05 7.08896e-05 6.5923e-05 6.18569e-05);
    }
    Table_slave
    {
        type            compressible::alphatWallFunction;
        Prt             0.85;
        value           nonuniform List<scalar> 9(0.000147373 0.00013496 0.000126037 0.000119199 0.000113317 0.000107776 0.000102404 9.66957e-05 8.99913e-05);
    }
    inlet
    {
        type            fixedValue;
        value           uniform 1.94e-05;
    }
    outlet
    {
        type            zeroGradient;
    }
}


// ************************************************************************* //
