/*--------------------------------*- C++ -*----------------------------------*\
  =========                 |
  \\      /  F ield         | OpenFOAM: The Open Source CFD Toolbox
   \\    /   O peration     | Website:  https://openfoam.org
    \\  /    A nd           | Version:  6
     \\/     M anipulation  |
\*---------------------------------------------------------------------------*/
FoamFile
{
    version     2.0;
    format      ascii;
    class       volScalarField;
    location    "1900";
    object      epsilon;
}
// * * * * * * * * * * * * * * * * * * * * * * * * * * * * * * * * * * * * * //

dimensions      [0 2 -3 0 0 0 0];

internalField   nonuniform List<scalar> 
459
(
0.000427853
0.00055461
0.000586785
0.000674944
0.000764174
0.000855279
0.000952754
0.00105234
0.00112618
0.00115532
0.00112354
0.00102503
0.000867986
0.000676808
0.000490964
3.54656e-05
6.03107e-05
8.71236e-05
8.98985e-05
8.25457e-05
7.25668e-05
5.99949e-05
4.87521e-05
3.98292e-05
3.29012e-05
2.74964e-05
2.32341e-05
1.98393e-05
1.71001e-05
1.48195e-05
1.28298e-05
1.0976e-05
9.91685e-06
7.60684e-06
0.00108058
0.00157867
0.000520429
0.000503645
0.000526218
0.000565859
0.000626957
0.00070806
0.000785543
0.000833691
0.000832181
0.000775427
0.000671998
0.0005443
0.000438987
0.000518365
0.000125365
4.01503e-05
9.4845e-05
0.000106014
9.94906e-05
8.68749e-05
7.42065e-05
6.80443e-05
5.50146e-05
4.33924e-05
3.42297e-05
2.72042e-05
2.18412e-05
1.77391e-05
1.4616e-05
1.23229e-05
1.09135e-05
1.03096e-05
2.62045e-05
1.78741e-05
0.00196773
0.00387994
0.0006389
0.000476702
0.000497486
0.000558167
0.000650814
0.000768625
0.000876997
0.000941451
0.000944481
0.000887464
0.000782082
0.000654105
0.000535572
0.000477378
0.000568566
0.000265957
0.000209563
0.000167324
0.000134515
0.000108898
9.33824e-05
0.000172489
0.000119313
8.51957e-05
6.28462e-05
4.77908e-05
3.73584e-05
2.99472e-05
2.45999e-05
2.0757e-05
1.58323e-05
1.32779e-05
4.94113e-05
2.84917e-05
0.00318506
0.00807236
0.00100716
0.000478576
0.000482238
0.000567417
0.000707294
0.000883298
0.0010209
0.00108707
0.00107823
0.00100568
0.000880137
0.000733499
0.000604444
0.000520822
0.000502469
0.000910711
0.000527508
0.000325015
0.000221906
0.000162661
0.000125612
0.000108305
0.000250435
0.000191844
0.000156223
0.000132297
0.00011389
9.82792e-05
8.46493e-05
7.16916e-05
5.83395e-05
3.4706e-05
2.2455e-05
8.19248e-05
3.9399e-05
0.00486065
0.0144398
0.00199117
0.000559055
0.000484679
0.000597981
0.000850334
0.00111389
0.00126002
0.00130234
0.00126066
0.00115318
0.000994382
0.000810533
0.000633365
0.00048889
0.000390828
0.000350022
0.000288099
0.000231693
0.000186144
0.000150246
0.000122328
0.000102924
9.93256e-05
9.28336e-05
8.65588e-05
8.03156e-05
7.35616e-05
6.61611e-05
5.87534e-05
5.16999e-05
4.52031e-05
3.62851e-05
2.7841e-05
5.88499e-05
4.54208e-05
7.41722e-05
0.000129998
0.000184202
0.00719437
0.0215077
0.00449657
0.00104426
0.000682043
0.000798158
0.00130535
0.00157046
0.00164727
0.00161981
0.00152293
0.00136453
0.00115208
0.000910582
0.000676656
0.00048503
0.000354233
0.000281417
0.000237504
0.000202066
0.000169405
0.00014076
0.000117524
0.000101013
9.27082e-05
8.93094e-05
8.7546e-05
8.53616e-05
8.15284e-05
7.51022e-05
6.59462e-05
5.63165e-05
4.74681e-05
3.95445e-05
3.43236e-05
4.48414e-05
4.69239e-05
5.73101e-05
0.000240249
0.000210838
0.00997344
0.0257611
0.00938811
0.00345543
0.00222064
0.0022045
0.00240942
0.00238292
0.0022515
0.00208284
0.001884
0.00163983
0.00134632
0.0010286
0.000728977
0.000491512
0.000337129
0.000254469
0.000210586
0.000178933
0.000150822
0.000127133
0.000109495
9.88249e-05
9.52295e-05
9.65246e-05
9.97321e-05
0.000103068
0.000105299
0.000104731
9.81107e-05
8.69622e-05
7.58243e-05
6.63597e-05
6.2577e-05
6.98829e-05
8.90473e-05
0.000142215
0.000326327
0.000317905
0.0106558
0.0287041
0.0156089
0.0099526
0.00707716
0.00547447
0.0043403
0.00357803
0.00306042
0.00267562
0.00233011
0.00196086
0.00154932
0.00112872
0.000747423
0.000463529
0.000295755
0.000213846
0.000174175
0.000147365
0.000125869
0.000110135
0.000100719
9.75251e-05
9.98566e-05
0.000106308
0.00011557
0.00012722
0.000141336
0.000157833
0.000175686
0.000187313
0.000197317
0.00021873
0.000263141
0.00039588
0.000731296
0.00137814
0.00400519
0.001186
0.00990402
0.0168614
0.013529
0.0102198
0.00780056
0.00615254
0.00503992
0.00428063
0.00373351
0.00326915
0.00278839
0.00224504
0.00165176
0.00109504
0.000618695
0.00033284
0.000213378
0.000160328
0.000132322
0.000113525
0.00010047
9.2798e-05
9.0284e-05
9.24584e-05
9.87266e-05
0.000108596
0.000122051
0.000139791
0.000163199
0.00019432
0.000235893
0.000291897
0.000368828
0.000484154
0.000653776
0.000883593
0.001146
0.00137454
0.00155093
0.000970455
0.00493269
0.00663475
0.00668888
0.00620093
0.00552943
0.00488734
0.00424533
0.00353864
0.00275616
0.00191889
0.00105304
0.000560469
0.000301149
0.000181229
0.000128782
0.000102884
8.80557e-05
7.88739e-05
7.34972e-05
7.14488e-05
7.241e-05
7.60236e-05
8.20887e-05
9.06677e-05
0.000102185
0.000117492
0.000137953
0.000165637
0.000203782
0.000257334
0.00033165
0.000433843
0.00056723
0.000719182
0.000849059
0.000902908
0.000847383
0.000536413
0.0033932
0.00675244
0.00667034
0.00536947
0.00453423
0.00385328
0.0029976
0.00209383
0.00133056
0.000779091
0.000430668
0.000243888
0.000150091
0.000105969
8.49985e-05
7.41303e-05
6.81822e-05
6.5208e-05
6.44366e-05
6.55014e-05
6.81538e-05
7.23861e-05
7.83773e-05
8.64114e-05
9.69782e-05
0.000110886
0.000129406
0.000154494
0.000188884
0.000236196
0.000301342
0.000389227
0.000500351
0.000626269
0.00071959
0.000814592
0.000763864
0.000563905
0.00270599
0.00268454
0.0028365
0.00315862
0.00235089
0.00182114
0.00160103
0.00139455
0.00112695
0.000846476
0.000589341
0.000392367
0.00026016
0.000179717
0.000133297
0.000105853
8.86069e-05
7.74515e-05
7.0588e-05
6.71047e-05
6.63648e-05
6.78915e-05
7.14058e-05
7.69119e-05
8.4279e-05
9.36831e-05
0.000105523
0.000120403
0.000139256
0.000163619
0.000194257
0.000232714
0.000281272
0.000342826
0.000420155
0.000527909
0.000564879
0.000522485
0.000429459
0.000343237
)
;

boundaryField
{
    floor
    {
        Cmu             0.09;
        kappa           0.41;
        E               9.8;
        type            epsilonWallFunction;
        value           nonuniform List<scalar> 
29
(
0.000490964
3.54656e-05
6.03107e-05
8.71236e-05
8.98985e-05
8.25457e-05
7.25668e-05
5.99949e-05
4.87521e-05
3.98292e-05
3.29012e-05
2.74964e-05
2.32341e-05
1.98393e-05
1.71001e-05
1.48195e-05
1.28298e-05
1.0976e-05
9.91685e-06
7.60684e-06
7.60684e-06
1.78741e-05
2.84917e-05
3.9399e-05
0.000490964
3.54656e-05
4.01503e-05
0.000265957
0.000910711
)
;
    }
    ceiling
    {
        Cmu             0.09;
        kappa           0.41;
        E               9.8;
        type            epsilonWallFunction;
        value           nonuniform List<scalar> 
43
(
0.00270599
0.00268454
0.0028365
0.00315862
0.00235089
0.00182114
0.00160103
0.00139455
0.00112695
0.000846476
0.000589341
0.000392367
0.00026016
0.000179717
0.000133297
0.000105853
8.86069e-05
7.74515e-05
7.0588e-05
6.71047e-05
6.63648e-05
6.78915e-05
7.14058e-05
7.69119e-05
8.4279e-05
9.36831e-05
0.000105523
0.000120403
0.000139256
0.000163619
0.000194257
0.000232714
0.000281272
0.000342826
0.000420155
0.000527909
0.000564879
0.000522485
0.000429459
0.000343237
0.00990402
0.0168614
0.0033932
)
;
    }
    sWall
    {
        Cmu             0.09;
        kappa           0.41;
        E               9.8;
        type            epsilonWallFunction;
        value           uniform 0.00270599;
    }
    nWall
    {
        Cmu             0.09;
        kappa           0.41;
        E               9.8;
        type            epsilonWallFunction;
        value           nonuniform List<scalar> 6(0.000184202 0.000210838 0.000317905 0.000536413 0.000563905 0.000343237);
    }
    sideWalls
    {
        type            empty;
    }
    glass1
    {
        Cmu             0.09;
        kappa           0.41;
        E               9.8;
        type            epsilonWallFunction;
        value           nonuniform List<scalar> 9(0.000427853 0.00108058 0.00196773 0.00318506 0.00486065 0.00719437 0.00997344 0.0106558 0.00990402);
    }
    glass2
    {
        Cmu             0.09;
        kappa           0.41;
        E               9.8;
        type            epsilonWallFunction;
        value           nonuniform List<scalar> 2(0.001186 0.000970455);
    }
    sun
    {
        Cmu             0.09;
        kappa           0.41;
        E               9.8;
        type            epsilonWallFunction;
        value           nonuniform List<scalar> 
14
(
0.000427853
0.00055461
0.000586785
0.000674944
0.000764174
0.000855279
0.000952754
0.00105234
0.00112618
0.00115532
0.00112354
0.00102503
0.000867986
0.000676808
)
;
    }
    heatsource1
    {
        Cmu             0.09;
        kappa           0.41;
        E               9.8;
        type            epsilonWallFunction;
        value           nonuniform List<scalar> 3(7.41722e-05 0.000129998 0.000184202);
    }
    heatsource2
    {
        Cmu             0.09;
        kappa           0.41;
        E               9.8;
        type            epsilonWallFunction;
        value           nonuniform List<scalar> 4(0.000518365 0.000125365 0.000125365 0.000568566);
    }
    Table_master
    {
        Cmu             0.09;
        kappa           0.41;
        E               9.8;
        type            epsilonWallFunction;
        value           nonuniform List<scalar> 9(0.000172489 0.000119313 8.51957e-05 6.28462e-05 4.77908e-05 3.73584e-05 2.99472e-05 2.45999e-05 2.0757e-05);
    }
    Table_slave
    {
        Cmu             0.09;
        kappa           0.41;
        E               9.8;
        type            epsilonWallFunction;
        value           nonuniform List<scalar> 9(0.000250435 0.000191844 0.000156223 0.000132297 0.00011389 9.82792e-05 8.46493e-05 7.16916e-05 5.83395e-05);
    }
    inlet
    {
        type            turbulentMixingLengthDissipationRateInlet;
        mixingLength    0.01;
        phi             phi;
        k               k;
        value           uniform 0.000101881;
    }
    outlet
    {
        type            zeroGradient;
    }
}


// ************************************************************************* //
