/*--------------------------------*- C++ -*----------------------------------*\
  =========                 |
  \\      /  F ield         | OpenFOAM: The Open Source CFD Toolbox
   \\    /   O peration     | Website:  https://openfoam.org
    \\  /    A nd           | Version:  6
     \\/     M anipulation  |
\*---------------------------------------------------------------------------*/
FoamFile
{
    version     2.0;
    format      ascii;
    class       volScalarField;
    location    "1900";
    object      nut;
}
// * * * * * * * * * * * * * * * * * * * * * * * * * * * * * * * * * * * * * //

dimensions      [0 2 -1 0 0 0 0];

internalField   nonuniform List<scalar> 
459
(
0.00106531
0.00116156
0.0011836
0.00124013
0.00129254
0.00134199
0.00139114
0.00143802
0.00147089
0.00148347
0.00146974
0.00142547
0.0013486
0.00124127
0.00111531
0.000464495
0.000554426
0.000626744
0.000633329
0.000615569
0.000589691
0.000553456
0.000516468
0.000482813
0.000453018
0.000426714
0.000403417
0.000382725
0.000364232
0.000347261
0.000330967
0.00031419
0.000303741
0.000278044
0.00145077
0.00344319
0.00325948
0.00378135
0.00429297
0.00480574
0.00525079
0.00559749
0.00591929
0.00618648
0.00636241
0.00640953
0.0062828
0.00587564
0.00473806
0.00113568
0.000707572
0.000484107
0.00102091
0.00143275
0.00174583
0.00193223
0.0019431
0.00153443
0.00131773
0.00116407
0.00104679
0.000954191
0.000879243
0.000815809
0.000756803
0.000699534
0.000648568
0.000603675
0.000717347
0.000369647
0.0017716
0.00467077
0.00397685
0.00495403
0.00540338
0.00573014
0.0059853
0.0062103
0.00647108
0.00675348
0.00702407
0.00723231
0.00733257
0.00724855
0.00675944
0.00518441
0.00117122
0.000909178
0.00132735
0.00173341
0.00212894
0.00242439
0.00239692
0.000786984
0.000695998
0.000622087
0.000562089
0.00051305
0.000472616
0.000439033
0.000411171
0.000388538
0.000419732
0.000484545
0.000811719
0.000431802
0.0020801
0.00597465
0.00392648
0.00517486
0.00551474
0.0055972
0.00566596
0.00579337
0.00601218
0.0063066
0.00664459
0.00695428
0.00718588
0.0072733
0.00716864
0.00660638
0.0044229
0.00137037
0.00164379
0.00210068
0.00260373
0.00305433
0.00336698
0.00320959
0.000891135
0.000815382
0.000761424
0.00072038
0.000685289
0.000652428
0.000620754
0.000587311
0.000548318
0.000514575
0.000520136
0.00094408
0.000481068
0.00239484
0.00767593
0.00424406
0.00493537
0.00540317
0.005356
0.00530965
0.00540554
0.00561044
0.00591181
0.00628584
0.0066271
0.00686452
0.00695425
0.0068985
0.00667386
0.00610767
0.00517802
0.00486503
0.00481991
0.00487395
0.00493646
0.004948
0.00479522
0.00407718
0.0037284
0.00352569
0.00336808
0.00320097
0.00296216
0.00263195
0.00222667
0.00177456
0.00132478
0.000978506
0.000966693
0.000655789
0.000594008
0.000716183
0.000804408
0.00272925
0.00954283
0.00583596
0.00477116
0.00522361
0.00537136
0.00522647
0.0053162
0.0054862
0.00576581
0.00613055
0.00648676
0.00672318
0.00677362
0.00665452
0.00645293
0.00626528
0.00615057
0.00616877
0.00620576
0.00618764
0.00610374
0.00595651
0.0057343
0.00539789
0.00509517
0.00482752
0.00457241
0.00431501
0.00404053
0.00369295
0.00325582
0.0027282
0.00214236
0.00161641
0.00119125
0.00091195
0.000777614
0.00110553
0.000841449
0.00304317
0.0108914
0.00836483
0.00605623
0.00565962
0.00568958
0.00554733
0.00546697
0.00554972
0.00581639
0.00620123
0.00657568
0.00680095
0.00680169
0.00661432
0.00639546
0.00634984
0.00653797
0.00676799
0.00684821
0.00674989
0.00652114
0.00620578
0.00583647
0.00544775
0.0050941
0.00477915
0.00449209
0.00422972
0.00399653
0.00379163
0.00351174
0.00310849
0.00260886
0.00212044
0.00166877
0.00134834
0.00125452
0.00128315
0.00096489
0.00311105
0.00988113
0.00857479
0.00760113
0.00700832
0.00634436
0.00578935
0.00555792
0.00566497
0.00602529
0.00649
0.00688347
0.0070531
0.00694953
0.00667006
0.00646078
0.00655788
0.00686507
0.00699693
0.00686062
0.00653018
0.00608074
0.00557979
0.00509299
0.00467122
0.00432975
0.00405227
0.0038247
0.003645
0.00351845
0.00345216
0.00342418
0.00323165
0.00291686
0.00263446
0.00249325
0.00260552
0.00301218
0.00367693
0.00149649
0.0030361
0.00362529
0.00409491
0.00424242
0.00425461
0.00435509
0.00464297
0.00514559
0.00581772
0.00652656
0.00710471
0.00740688
0.00733788
0.00696662
0.0065757
0.00651244
0.00658767
0.00659256
0.00638903
0.00597936
0.00544106
0.00486216
0.00432679
0.00388829
0.00355528
0.00330465
0.00310796
0.00294615
0.00280757
0.0026831
0.00256457
0.00245127
0.00236063
0.00229348
0.00226783
0.00227579
0.0022572
0.00215898
0.00201284
0.00139971
0.00182673
0.00325914
0.00451742
0.00556866
0.00642533
0.00719568
0.00779496
0.00809595
0.00805701
0.00769694
0.00706993
0.00637167
0.00595317
0.00580332
0.00563332
0.00531407
0.00485329
0.00432107
0.00378969
0.00332527
0.00296778
0.00271185
0.00253247
0.00240448
0.00231091
0.0022424
0.00219439
0.002165
0.00215694
0.00217181
0.00219616
0.0022266
0.00225505
0.00225628
0.00219026
0.0020453
0.00183491
0.00114871
0.00212446
0.0045744
0.00626456
0.00706444
0.00760563
0.00798221
0.00794741
0.00744314
0.00667524
0.00585621
0.00517169
0.00468063
0.00435251
0.00405365
0.00369145
0.0032841
0.00288425
0.00254086
0.00227935
0.00209741
0.00197359
0.00189127
0.00184357
0.00182334
0.00182517
0.00184565
0.00188185
0.00192958
0.00199484
0.00207463
0.00216625
0.00226301
0.00234927
0.00240679
0.00238762
0.00240188
0.00237259
0.00116801
0.00197009
0.00196488
0.00200127
0.00207433
0.00187985
0.00172647
0.00165391
0.00157951
0.00147123
0.00133737
0.00118532
0.00103501
0.000902524
0.000797826
0.000722191
0.000668775
0.000630281
0.000602636
0.000584281
0.000574508
0.000572389
0.000576745
0.000586529
0.000601233
0.000619848
0.000642095
0.000668078
0.000698111
0.000732795
0.000773255
0.000818787
0.000869599
0.000926305
0.000989471
0.00105888
0.00114261
0.00116868
0.00113868
0.00106664
0.000989866
)
;

boundaryField
{
    floor
    {
        type            nutkWallFunction;
        Cmu             0.09;
        kappa           0.41;
        E               9.8;
        value           nonuniform List<scalar> 
29
(
0.000134205
5.51514e-05
6.66219e-05
7.56792e-05
7.64973e-05
7.42882e-05
7.10554e-05
6.64995e-05
6.18109e-05
5.75087e-05
5.36686e-05
5.02521e-05
4.72038e-05
4.44776e-05
4.20251e-05
3.97603e-05
3.75724e-05
3.53048e-05
3.38844e-05
3.03634e-05
3.03633e-05
4.27443e-05
5.09143e-05
5.72839e-05
0.000134205
5.51513e-05
5.76745e-05
0.000109979
0.000163493
)
;
    }
    ceiling
    {
        type            nutkWallFunction;
        Cmu             0.09;
        kappa           0.41;
        E               9.8;
        value           nonuniform List<scalar> 
43
(
0.00023009
0.000229438
0.000233399
0.000241425
0.000220256
0.000203377
0.000195335
0.000187046
0.000174898
0.00015974
0.000142314
0.000124835
0.000109187
9.66325e-05
8.74428e-05
8.08841e-05
7.61188e-05
7.26749e-05
7.03778e-05
6.91511e-05
6.88847e-05
6.9432e-05
7.06595e-05
7.24995e-05
7.48211e-05
7.75847e-05
8.0798e-05
8.44935e-05
8.87378e-05
9.36589e-05
9.91608e-05
0.000105259
0.000112015
0.000119485
0.000127631
0.000137377
0.000140395
0.000136922
0.000128538
0.000119532
0.000343887
0.000404791
0.000246654
)
;
    }
    sWall
    {
        type            nutkWallFunction;
        Cmu             0.09;
        kappa           0.41;
        E               9.8;
        value           uniform 0.00023015;
    }
    nWall
    {
        type            nutkWallFunction;
        Cmu             0.09;
        kappa           0.41;
        E               9.8;
        value           nonuniform List<scalar> 6(9.7428e-05 0.000101887 0.000116589 0.000138094 0.000140328 0.000119538);
    }
    sideWalls
    {
        type            empty;
    }
    glass1
    {
        type            nutkWallFunction;
        Cmu             0.09;
        kappa           0.41;
        E               9.8;
        value           nonuniform List<scalar> 9(0.000128482 0.000172811 0.000208689 0.000242519 0.00027648 0.00031205 0.000345028 0.000352121 0.000344315);
    }
    glass2
    {
        type            nutkWallFunction;
        Cmu             0.09;
        kappa           0.41;
        E               9.8;
        value           nonuniform List<scalar> 2(0.000177822 0.000166892);
    }
    sun
    {
        type            nutkWallFunction;
        Cmu             0.09;
        kappa           0.41;
        E               9.8;
        value           nonuniform List<scalar> 
14
(
0.000128384
0.000139569
0.000142115
0.000148624
0.000154627
0.000160267
0.000165851
0.000171154
0.000174863
0.000176279
0.000174733
0.000169735
0.000161018
0.000148753
)
;
    }
    heatsource1
    {
        type            nutkWallFunction;
        Cmu             0.09;
        kappa           0.41;
        E               9.8;
        value           nonuniform List<scalar> 3(7.15977e-05 8.67085e-05 9.74272e-05);
    }
    heatsource2
    {
        type            nutkWallFunction;
        Cmu             0.09;
        kappa           0.41;
        E               9.8;
        value           nonuniform List<scalar> 4(0.000136567 8.56551e-05 8.5655e-05 0.000140681);
    }
    Table_master
    {
        type            nutkWallFunction;
        Cmu             0.09;
        kappa           0.41;
        E               9.8;
        value           nonuniform List<scalar> 9(9.53217e-05 8.42354e-05 7.51022e-05 6.75917e-05 6.13805e-05 5.62038e-05 5.18624e-05 4.82289e-05 4.52543e-05);
    }
    Table_slave
    {
        type            nutkWallFunction;
        Cmu             0.09;
        kappa           0.41;
        E               9.8;
        value           nonuniform List<scalar> 9(0.000107829 9.87502e-05 9.22234e-05 8.72221e-05 8.29193e-05 7.88659e-05 7.49358e-05 7.07596e-05 6.58537e-05);
    }
    inlet
    {
        type            calculated;
        value           uniform 0.000100623;
    }
    outlet
    {
        type            calculated;
        value           nonuniform List<scalar> 2(0.00197009 0.00196488);
    }
}


// ************************************************************************* //
