/*--------------------------------*- C++ -*----------------------------------*\
  =========                 |
  \\      /  F ield         | OpenFOAM: The Open Source CFD Toolbox
   \\    /   O peration     | Website:  https://openfoam.org
    \\  /    A nd           | Version:  6
     \\/     M anipulation  |
\*---------------------------------------------------------------------------*/
FoamFile
{
    version     2.0;
    format      ascii;
    class       volVectorField;
    location    "1900";
    object      U;
}
// * * * * * * * * * * * * * * * * * * * * * * * * * * * * * * * * * * * * * //

dimensions      [0 1 -1 0 0 0 0];

internalField   nonuniform List<vector> 
459
(
(0.034104 0.0859105 0)
(-0.167137 0.0255109 0)
(-0.191935 0.0178447 0)
(-0.222945 0.0121264 0)
(-0.24536 0.00582018 0)
(-0.258078 -0.00088935 0)
(-0.259403 -0.00807071 0)
(-0.248077 -0.0157479 0)
(-0.224703 -0.0232114 0)
(-0.191209 -0.0291243 0)
(-0.151352 -0.0323825 0)
(-0.109556 -0.032448 0)
(-0.0700819 -0.0294712 0)
(-0.0380907 -0.0245781 0)
(-0.027482 -0.0196282 0)
(-0.00657753 0.00896811 0)
(-0.0293235 -0.0166299 0)
(-0.00771653 -0.0265792 0)
(0.0160521 -0.0206301 0)
(0.0316705 -0.0142294 0)
(0.0445826 -0.00927144 0)
(0.0527683 -0.00539675 0)
(0.0570451 -0.00336132 0)
(0.0589769 -0.00254643 0)
(0.0599321 -0.00219649 0)
(0.0605275 -0.00197992 0)
(0.0608678 -0.00180269 0)
(0.0608928 -0.00158884 0)
(0.0604186 -0.00117607 0)
(0.0589185 -0.000188373 0)
(0.0552526 0.00188352 0)
(0.0481777 0.00409104 0)
(0.0416602 0.00590669 0)
(-0.0129275 0.0204152 0)
(0.208599 0.176019 0)
(-0.156279 0.0675019 0)
(-0.154802 0.0530664 0)
(-0.186963 0.0411975 0)
(-0.209238 0.0277229 0)
(-0.222269 0.0125221 0)
(-0.224312 -0.00472217 0)
(-0.213955 -0.0233992 0)
(-0.192404 -0.0408855 0)
(-0.162 -0.0540724 0)
(-0.126631 -0.0608391 0)
(-0.090382 -0.0605669 0)
(-0.0568155 -0.0538632 0)
(-0.0293301 -0.0423574 0)
(-0.0118933 -0.0286085 0)
(0.00195329 -0.010633 0)
(0.000560863 0.0156858 0)
(0.0607027 0.0365611 0)
(0.0244608 -0.0180669 0)
(0.0331833 -0.031493 0)
(0.0443927 -0.0281746 0)
(0.0534381 -0.0204148 0)
(0.0601504 -0.0128918 0)
(0.0630994 -0.00550867 0)
(0.0636832 -0.00126336 0)
(0.0636369 0.000503578 0)
(0.0637474 0.00127873 0)
(0.0639586 0.00174704 0)
(0.0641165 0.00213516 0)
(0.0641739 0.00261135 0)
(0.0640852 0.00347564 0)
(0.0633487 0.00561163 0)
(0.0596541 0.0115487 0)
(0.0502785 0.0165265 0)
(0.0457197 0.0199061 0)
(-0.0491057 0.04428 0)
(0.368757 0.263425 0)
(-0.173129 0.10753 0)
(-0.116262 0.0858941 0)
(-0.147639 0.0647261 0)
(-0.167526 0.0425287 0)
(-0.179723 0.0178314 0)
(-0.181468 -0.0102099 0)
(-0.170466 -0.0401133 0)
(-0.149199 -0.0671948 0)
(-0.120919 -0.0864032 0)
(-0.0897119 -0.0950585 0)
(-0.0590715 -0.0931073 0)
(-0.0312713 -0.0819793 0)
(-0.00836187 -0.0639432 0)
(0.00865504 -0.0404063 0)
(0.0197912 -0.0139968 0)
(0.0239499 0.0232506 0)
(0.110181 -0.0264682 0)
(0.0744906 -0.0375691 0)
(0.0690797 -0.0384162 0)
(0.070613 -0.0331383 0)
(0.0720162 -0.0252726 0)
(0.0734162 -0.018352 0)
(0.0722308 -0.0146435 0)
(0.0675123 -0.0103161 0)
(0.0640621 -0.0079489 0)
(0.0625041 -0.0065924 0)
(0.0618383 -0.00572312 0)
(0.0614928 -0.00511876 0)
(0.0614573 -0.004585 0)
(0.0621708 -0.00376111 0)
(0.0647453 -0.000683418 0)
(0.0627444 0.01614 0)
(0.049745 0.0278588 0)
(0.0519355 0.0358237 0)
(-0.0810582 0.0691045 0)
(0.513368 0.333743 0)
(-0.207882 0.143023 0)
(-0.0753285 0.113877 0)
(-0.105392 0.0848153 0)
(-0.119863 0.0563524 0)
(-0.128894 0.0239336 0)
(-0.127679 -0.0147665 0)
(-0.113632 -0.0564859 0)
(-0.0920132 -0.0923976 0)
(-0.0668281 -0.115964 0)
(-0.0415928 -0.124986 0)
(-0.0186465 -0.120792 0)
(0.00179172 -0.1055 0)
(0.0186039 -0.082674 0)
(0.0328885 -0.055804 0)
(0.0481702 -0.0267384 0)
(0.0697269 0.00516063 0)
(0.100489 0.0164626 0)
(0.105581 -0.022607 0)
(0.0919461 -0.0334413 0)
(0.0829672 -0.0328576 0)
(0.0778564 -0.0288288 0)
(0.074009 -0.022826 0)
(0.0713915 -0.0151595 0)
(0.0725891 -0.00918194 0)
(0.0775815 -0.00685906 0)
(0.0818268 -0.00557307 0)
(0.0846276 -0.00466512 0)
(0.0863349 -0.00365723 0)
(0.0865154 -0.00224971 0)
(0.0840523 -0.000187523 0)
(0.0776878 0.0028409 0)
(0.0649046 0.00736725 0)
(0.0526493 0.0266826 0)
(0.0405507 0.0430056 0)
(0.0559799 0.0559576 0)
(-0.11433 0.0913501 0)
(0.6386 0.388209 0)
(-0.250449 0.172001 0)
(-0.0345679 0.130055 0)
(-0.0611527 0.0963393 0)
(-0.0676134 0.064402 0)
(-0.0706496 0.02685 0)
(-0.0606358 -0.0215953 0)
(-0.0414094 -0.074179 0)
(-0.0208359 -0.115305 0)
(-0.00157297 -0.139427 0)
(0.0146348 -0.14582 0)
(0.0270307 -0.137975 0)
(0.0367519 -0.120048 0)
(0.0446044 -0.0955997 0)
(0.0518865 -0.0681543 0)
(0.060574 -0.0414979 0)
(0.0734026 -0.0219242 0)
(0.0841029 -0.0211245 0)
(0.0852172 -0.0289093 0)
(0.0788309 -0.0297933 0)
(0.0706028 -0.0269496 0)
(0.0638022 -0.0231271 0)
(0.0586415 -0.0185748 0)
(0.0554779 -0.0131845 0)
(0.0552115 -0.00736181 0)
(0.0575329 -0.00452529 0)
(0.0602392 -0.00350011 0)
(0.062815 -0.00271213 0)
(0.0651709 -0.0011278 0)
(0.0669687 0.00186013 0)
(0.0669826 0.00636329 0)
(0.0645986 0.0125522 0)
(0.0592153 0.0210623 0)
(0.0523547 0.0362453 0)
(0.0422849 0.0542582 0)
(0.0643599 0.0743745 0)
(-0.0213536 0.103494 0)
(0.0463591 0.0324103 0)
(-0.0620054 -0.0344524 0)
(-0.272413 -0.0571134 0)
(0.729726 0.433619 0)
(-0.292031 0.191502 0)
(-0.00334233 0.126634 0)
(-0.0159836 0.0975976 0)
(-0.0118854 0.0668337 0)
(-0.00620297 0.0237696 0)
(0.0225411 -0.0388375 0)
(0.0443502 -0.0945356 0)
(0.0598521 -0.132645 0)
(0.0692177 -0.151926 0)
(0.0731213 -0.154342 0)
(0.0729771 -0.143486 0)
(0.0702927 -0.123395 0)
(0.0665787 -0.0980626 0)
(0.0633207 -0.0711583 0)
(0.0619268 -0.0463514 0)
(0.0632481 -0.0279129 0)
(0.0641226 -0.0206642 0)
(0.0608677 -0.020351 0)
(0.0538783 -0.0205035 0)
(0.0459564 -0.0191243 0)
(0.0393047 -0.0169085 0)
(0.0344643 -0.0141998 0)
(0.0317294 -0.0110549 0)
(0.0313667 -0.00809382 0)
(0.0330224 -0.00693545 0)
(0.0356395 -0.00678917 0)
(0.0387566 -0.00641159 0)
(0.0421874 -0.00479571 0)
(0.0456757 -0.00104976 0)
(0.0488578 0.00516938 0)
(0.0505345 0.0135183 0)
(0.0509638 0.0241463 0)
(0.0514999 0.0385668 0)
(0.0503558 0.0563013 0)
(0.0728233 0.0790466 0)
(0.0525336 0.0969836 0)
(0.0932305 0.0678736 0)
(0.116118 0.0446286 0)
(-0.128954 -0.00706323 0)
(0.781798 0.474891 0)
(-0.312973 0.176955 0)
(0.0235203 0.077145 0)
(0.0427008 0.0737833 0)
(0.0578854 0.0521547 0)
(0.0847387 0.000856587 0)
(0.118798 -0.0632239 0)
(0.138015 -0.111956 0)
(0.144356 -0.141355 0)
(0.140507 -0.152874 0)
(0.129218 -0.149485 0)
(0.113416 -0.134945 0)
(0.0956769 -0.113132 0)
(0.0782447 -0.0879449 0)
(0.0627992 -0.0625907 0)
(0.0505807 -0.0401885 0)
(0.0420246 -0.023847 0)
(0.0355847 -0.0156626 0)
(0.0290815 -0.0133871 0)
(0.0220186 -0.0130732 0)
(0.0153246 -0.0125718 0)
(0.00992421 -0.0117661 0)
(0.00613529 -0.0107876 0)
(0.0041369 -0.00970411 0)
(0.00401481 -0.00894014 0)
(0.00540869 -0.00913756 0)
(0.00767226 -0.00978911 0)
(0.0105272 -0.0100301 0)
(0.0139992 -0.0089977 0)
(0.0182148 -0.00567013 0)
(0.0240893 0.000987155 0)
(0.030098 0.010153 0)
(0.0357546 0.0209224 0)
(0.0428971 0.0337844 0)
(0.050678 0.0484299 0)
(0.0727411 0.0668258 0)
(0.0859918 0.0745232 0)
(0.118308 0.0519648 0)
(0.157992 0.0439882 0)
(-0.0351657 0.0939904 0)
(0.886487 0.477547 0)
(-0.0705418 0.156573 0)
(0.106108 0.00381061 0)
(0.169324 -0.0167178 0)
(0.182427 -0.0357135 0)
(0.218098 -0.0697313 0)
(0.239832 -0.102403 0)
(0.242254 -0.125696 0)
(0.228175 -0.137119 0)
(0.202542 -0.136911 0)
(0.170233 -0.126846 0)
(0.135476 -0.109554 0)
(0.101316 -0.0877322 0)
(0.0702435 -0.0646323 0)
(0.0437107 -0.0426648 0)
(0.0230849 -0.0244392 0)
(0.00880835 -0.0124706 0)
(-0.000474481 -0.00718278 0)
(-0.00704556 -0.00629718 0)
(-0.0125678 -0.00685171 0)
(-0.01731 -0.00748121 0)
(-0.0210975 -0.00800091 0)
(-0.0238455 -0.00846069 0)
(-0.0254954 -0.00895074 0)
(-0.0260869 -0.00968773 0)
(-0.0259225 -0.0108217 0)
(-0.0253862 -0.0120815 0)
(-0.0246081 -0.013017 0)
(-0.0234504 -0.0131469 0)
(-0.0215322 -0.0118781 0)
(-0.0178957 -0.00844634 0)
(-0.00918386 -0.0020987 0)
(-0.000363785 0.00627912 0)
(0.0102728 0.0146599 0)
(0.0219797 0.0217765 0)
(0.0417459 0.0290979 0)
(0.0603215 0.0221477 0)
(0.0798231 -0.00525828 0)
(0.138859 0.0403584 0)
(-0.413757 0.206813 0)
(1.03162 0.429935 0)
(0.496744 0.285057 0)
(0.503026 0.191355 0)
(0.511618 0.119831 0)
(0.487078 0.0683182 0)
(0.44415 0.0148946 0)
(0.394069 -0.0333307 0)
(0.340495 -0.0674001 0)
(0.283133 -0.0848758 0)
(0.22441 -0.0878312 0)
(0.167643 -0.0803146 0)
(0.115591 -0.0663235 0)
(0.0692767 -0.04862 0)
(0.0305927 -0.0306082 0)
(-0.000907748 -0.0144921 0)
(-0.0215828 -0.00458995 0)
(-0.0326038 -0.000906456 0)
(-0.0386946 -0.000442514 0)
(-0.0426699 -0.00142876 0)
(-0.0461562 -0.00277886 0)
(-0.0493559 -0.00410119 0)
(-0.052278 -0.00533957 0)
(-0.0548952 -0.00652575 0)
(-0.0572222 -0.00770661 0)
(-0.0593764 -0.00895229 0)
(-0.0616284 -0.0102386 0)
(-0.0643129 -0.0113488 0)
(-0.0677333 -0.0119076 0)
(-0.0722244 -0.0113979 0)
(-0.0782541 -0.00911946 0)
(-0.0864243 -0.00423882 0)
(-0.0967875 0.00386402 0)
(-0.107348 0.0147003 0)
(-0.122637 0.0284359 0)
(-0.146731 0.0451196 0)
(-0.182155 0.0635543 0)
(-0.232185 0.0796749 0)
(-0.289148 0.0908595 0)
(-0.357769 0.0971075 0)
(-0.619897 0.0991044 0)
(-0.147995 0.0826636 0)
(0.134604 0.0614213 0)
(0.217803 0.00561783 0)
(0.201273 -0.0291121 0)
(0.185496 -0.0433037 0)
(0.162923 -0.047824 0)
(0.130389 -0.046072 0)
(0.0918036 -0.0395885 0)
(0.0519416 -0.0297866 0)
(0.0139591 -0.0174894 0)
(-0.0232251 -0.00377976 0)
(-0.0468748 0.00383119 0)
(-0.0612694 0.00720525 0)
(-0.0682536 0.0075896 0)
(-0.0716691 0.00678116 0)
(-0.0739174 0.00577093 0)
(-0.075856 0.00478181 0)
(-0.07779 0.00386291 0)
(-0.0800255 0.00295017 0)
(-0.082604 0.00191547 0)
(-0.0854483 0.000807937 0)
(-0.0885831 -0.000303852 0)
(-0.0920794 -0.00133871 0)
(-0.0960311 -0.0021335 0)
(-0.100516 -0.00243759 0)
(-0.105538 -0.00193842 0)
(-0.111012 -0.000285937 0)
(-0.116724 0.00287881 0)
(-0.122072 0.00799857 0)
(-0.126267 0.0158219 0)
(-0.129745 0.0274717 0)
(-0.132756 0.043331 0)
(-0.136104 0.0625064 0)
(-0.140294 0.0813377 0)
(-0.142138 0.0899395 0)
(-0.124803 0.0674892 0)
(-0.0809848 -0.0256339 0)
(-0.278703 -0.203483 0)
(-0.0202595 0.232375 0)
(0.063662 0.0997607 0)
(0.0377518 0.0191438 0)
(0.0254146 -0.00447917 0)
(0.0158653 -0.00986366 0)
(-0.00290651 -0.0111626 0)
(-0.0279017 -0.00864666 0)
(-0.0535901 -0.00405892 0)
(-0.0753098 0.000435678 0)
(-0.090238 0.00341567 0)
(-0.0973874 0.00363458 0)
(-0.0999098 0.00137086 0)
(-0.100253 -0.00163653 0)
(-0.0996559 -0.00504179 0)
(-0.099206 -0.00851406 0)
(-0.0992954 -0.0118063 0)
(-0.0999469 -0.0147851 0)
(-0.101058 -0.0172406 0)
(-0.102488 -0.0190164 0)
(-0.104155 -0.0200879 0)
(-0.106108 -0.0205592 0)
(-0.108314 -0.0204462 0)
(-0.110771 -0.0199852 0)
(-0.113452 -0.0192266 0)
(-0.116249 -0.0180553 0)
(-0.118933 -0.0162362 0)
(-0.121139 -0.0133938 0)
(-0.12236 -0.00895176 0)
(-0.122067 -0.00270559 0)
(-0.119287 0.00587471 0)
(-0.112577 0.0176588 0)
(-0.100655 0.0333989 0)
(-0.0832298 0.0526517 0)
(-0.0611845 0.0713174 0)
(-0.0373872 0.0822582 0)
(0.00268558 0.0665737 0)
(0.143316 -0.0046019 0)
(-0.207292 -0.114157 0)
(0.940258 -0.000163774 0)
(-0.528952 -0.460993 0)
(-0.317441 0.0893944 0)
(-0.227975 -0.01963 0)
(-0.180421 -0.0410643 0)
(-0.165934 -0.0289603 0)
(-0.163498 -0.0159714 0)
(-0.164785 -0.00563963 0)
(-0.165281 0.002979 0)
(-0.162985 0.0105328 0)
(-0.158236 0.0174702 0)
(-0.151168 0.0237776 0)
(-0.14272 0.0291839 0)
(-0.134324 0.0337151 0)
(-0.126828 0.0379395 0)
(-0.120561 0.0420885 0)
(-0.115528 0.0462397 0)
(-0.11156 0.0501796 0)
(-0.108512 0.0535305 0)
(-0.106288 0.055953 0)
(-0.104808 0.057235 0)
(-0.103995 0.0573672 0)
(-0.10379 0.056467 0)
(-0.104138 0.054644 0)
(-0.104963 0.0523237 0)
(-0.106167 0.0497428 0)
(-0.107587 0.047039 0)
(-0.108957 0.0443065 0)
(-0.109856 0.0415893 0)
(-0.109608 0.0389676 0)
(-0.106963 0.0373068 0)
(-0.100042 0.0372797 0)
(-0.0863803 0.0396659 0)
(-0.06412 0.0453644 0)
(-0.0338657 0.0548599 0)
(0.01448 0.0678125 0)
(0.059096 0.0690532 0)
(0.101631 0.0543849 0)
(0.163784 0.0253867 0)
(-0.219257 -0.029381 0)
)
;

boundaryField
{
    floor
    {
        type            noSlip;
    }
    ceiling
    {
        type            noSlip;
    }
    sWall
    {
        type            noSlip;
    }
    nWall
    {
        type            noSlip;
    }
    sideWalls
    {
        type            empty;
    }
    glass1
    {
        type            noSlip;
    }
    glass2
    {
        type            noSlip;
    }
    sun
    {
        type            noSlip;
    }
    heatsource1
    {
        type            noSlip;
    }
    heatsource2
    {
        type            noSlip;
    }
    Table_master
    {
        type            noSlip;
    }
    Table_slave
    {
        type            noSlip;
    }
    inlet
    {
        type            fixedValue;
        value           uniform (0.3 0 0);
    }
    outlet
    {
        type            zeroGradient;
    }
}


// ************************************************************************* //
