/*--------------------------------*- C++ -*----------------------------------*\
  =========                 |
  \\      /  F ield         | OpenFOAM: The Open Source CFD Toolbox
   \\    /   O peration     | Website:  https://openfoam.org
    \\  /    A nd           | Version:  6
     \\/     M anipulation  |
\*---------------------------------------------------------------------------*/
FoamFile
{
    version     2.0;
    format      ascii;
    class       volScalarField;
    location    "1600";
    object      alphat;
}
// * * * * * * * * * * * * * * * * * * * * * * * * * * * * * * * * * * * * * //

dimensions      [1 -1 -1 0 0 0 0];

internalField   nonuniform List<scalar> 
459
(
0.00123644
0.00134923
0.00137488
0.00144055
0.00150143
0.00155889
0.00161603
0.00167053
0.00170879
0.0017235
0.00170767
0.00165634
0.00156712
0.00144249
0.00129613
0.000539631
0.000644272
0.000728256
0.000735708
0.000715044
0.000684993
0.000642956
0.000600034
0.000560969
0.000526366
0.000495808
0.000468741
0.000444694
0.000423196
0.000403464
0.000384519
0.000365017
0.000352848
0.000322976
0.00168278
0.00399517
0.00378287
0.00438853
0.00498195
0.00557683
0.00609325
0.00649584
0.00686984
0.00718083
0.00738628
0.00744248
0.00729676
0.00682467
0.00550319
0.00131983
0.000821743
0.000562518
0.00118665
0.00166498
0.00202798
0.00224345
0.00225535
0.00178088
0.00152956
0.00135163
0.00121595
0.00110876
0.00102188
0.000948236
0.000879587
0.000812925
0.00075361
0.000701334
0.000832589
0.000429322
0.00205366
0.00541868
0.00461381
0.00574759
0.00626781
0.00664584
0.00694122
0.00720216
0.00750532
0.00783421
0.00815012
0.00839442
0.00851375
0.00841875
0.00785246
0.00602349
0.00136113
0.00105664
0.00154223
0.00201395
0.002473
0.00281528
0.00278263
0.000914142
0.00080848
0.00072266
0.000653005
0.000596078
0.000549129
0.00051012
0.000477746
0.000451442
0.000487578
0.000562748
0.000941301
0.000501415
0.00240983
0.00693132
0.0045545
0.00600192
0.00639403
0.00648766
0.00656659
0.00671464
0.00696934
0.00731219
0.0077062
0.00806814
0.00834032
0.00844538
0.00832671
0.00767538
0.00513916
0.00159238
0.00190937
0.00243953
0.00302324
0.00354573
0.00390792
0.00372465
0.00103486
0.000946878
0.000884247
0.00083663
0.000795922
0.00075778
0.000721002
0.000682155
0.000636855
0.000597518
0.000603713
0.00109401
0.000558524
0.00277284
0.00890518
0.00492323
0.005723
0.00626271
0.00620573
0.00615225
0.00626436
0.00650316
0.00685404
0.00728931
0.00768713
0.00796535
0.00807272
0.00801101
0.0077521
0.00709504
0.006014
0.00564845
0.00559401
0.00565502
0.00572642
0.00573947
0.00556248
0.00473007
0.00432653
0.00409266
0.00391085
0.00371754
0.00344077
0.00305747
0.00258663
0.00206133
0.00153873
0.00113598
0.00112029
0.000760407
0.000689743
0.000831519
0.00093389
0.00315835
0.0110698
0.0067714
0.00553368
0.00605564
0.00622546
0.00605826
0.00616293
0.00636131
0.00668678
0.00711076
0.0075252
0.00780122
0.00786214
0.00772642
0.00749409
0.0072762
0.00714093
0.00715893
0.00719894
0.00717592
0.00707785
0.0069078
0.00665185
0.00626388
0.00591476
0.00560546
0.0053098
0.00501102
0.0046924
0.00428892
0.00378121
0.00316822
0.00248755
0.00187612
0.0013809
0.00105689
0.000901716
0.00128191
0.000976834
0.00351991
0.012629
0.0097042
0.00702582
0.00656493
0.00659944
0.00643299
0.0063404
0.0064378
0.00674851
0.00719589
0.00763086
0.00789313
0.00789525
0.00767938
0.00742611
0.00737185
0.00758686
0.00785013
0.00794069
0.00782572
0.00756122
0.00719792
0.00677282
0.0063243
0.00591497
0.0055489
0.00521436
0.00490862
0.00463713
0.00439883
0.0040739
0.00360551
0.00302538
0.00245848
0.001934
0.00156259
0.00145481
0.00148903
0.00112056
0.00359581
0.0114425
0.00993507
0.00880999
0.00812473
0.00735471
0.00671314
0.00644764
0.00657461
0.00699473
0.00753491
0.00799157
0.00818848
0.00806864
0.00774429
0.0075002
0.00760952
0.00796163
0.00811204
0.0079536
0.0075719
0.00705351
0.00647573
0.00591308
0.00542358
0.00502537
0.0047006
0.00443424
0.00422454
0.00407744
0.00400066
0.00396823
0.00374533
0.00338025
0.00305332
0.0028908
0.00302312
0.00349786
0.00427078
0.0017372
0.00350562
0.0041898
0.00473626
0.00491016
0.00492691
0.00504718
0.00538625
0.00597436
0.00675818
0.00758299
0.00825425
0.00860336
0.00852159
0.00808972
0.00763284
0.00755505
0.00763864
0.00764283
0.00740776
0.00693544
0.00631413
0.00564499
0.00502423
0.00451341
0.0041234
0.00382896
0.00359846
0.00341035
0.00325091
0.00310867
0.00297336
0.00284368
0.00273958
0.00266222
0.00263262
0.00264186
0.00262016
0.00250595
0.00233604
0.00162405
0.00216474
0.00383446
0.00529541
0.00651629
0.00750578
0.00839204
0.00907808
0.00941843
0.00936547
0.00893924
0.0082056
0.00739261
0.00690419
0.00672914
0.00653259
0.00616514
0.00563429
0.00501914
0.00440253
0.00386101
0.00344188
0.0031404
0.0029288
0.00277876
0.00267064
0.00259315
0.00254009
0.00250868
0.00250158
0.00252052
0.00254991
0.00258587
0.00261906
0.0026203
0.00254327
0.00237458
0.00213
0.00133279
0.00251455
0.0053779
0.00734057
0.00825527
0.00886779
0.009289
0.00923475
0.00864127
0.00774596
0.00679373
0.00599966
0.00542911
0.00504841
0.00470408
0.00428781
0.00381899
0.00335634
0.00295584
0.00264776
0.00243129
0.00228298
0.00218445
0.00212774
0.00210441
0.00210785
0.0021337
0.002178
0.0022356
0.00231319
0.00240733
0.00251488
0.00262808
0.00272874
0.00279565
0.00277315
0.00278921
0.00275567
0.00135531
0.0023024
0.00230936
0.00235264
0.00242375
0.00218979
0.00200804
0.00192218
0.00183486
0.00170873
0.00155297
0.00137624
0.00120154
0.00104755
0.000925857
0.000838046
0.000776182
0.000731722
0.000699821
0.00067858
0.000667162
0.000664533
0.000669384
0.000680546
0.000697441
0.000718922
0.000744663
0.000774784
0.000809632
0.000849901
0.000896885
0.00094978
0.00100881
0.0010747
0.0011481
0.00122876
0.00132603
0.0013563
0.00132144
0.00123778
0.00114843
)
;

boundaryField
{
    floor
    {
        type            compressible::alphatWallFunction;
        Prt             0.85;
        value           nonuniform List<scalar> 
29
(
0.000183355
7.52816e-05
9.09752e-05
0.000103344
0.000104433
0.000101411
9.69959e-05
9.07801e-05
8.43821e-05
7.851e-05
7.32663e-05
6.85997e-05
6.44359e-05
6.07113e-05
5.73597e-05
5.42643e-05
5.1274e-05
4.81758e-05
4.62317e-05
4.14221e-05
4.14215e-05
5.83172e-05
6.9459e-05
7.81416e-05
0.000183353
7.52807e-05
7.87434e-05
0.000150247
0.000223369
)
;
    }
    ceiling
    {
        type            compressible::alphatWallFunction;
        Prt             0.85;
        value           nonuniform List<scalar> 
43
(
0.000316217
0.000316997
0.000322538
0.000331743
0.000301781
0.000278252
0.000267061
0.000255617
0.000238972
0.000218225
0.000194397
0.000170499
0.000149103
0.000131936
0.000119384
0.000110448
0.000103973
9.92982e-05
9.61712e-05
9.44854e-05
9.40968e-05
9.48139e-05
9.64617e-05
9.89491e-05
0.000102101
0.000105864
0.000110247
0.000115292
0.00012109
0.000127814
0.000135334
0.000143669
0.000152906
0.000163118
0.000174255
0.000187576
0.000191698
0.000186951
0.000175497
0.000163169
0.000467259
0.00055048
0.000343062
)
;
    }
    sWall
    {
        type            compressible::alphatWallFunction;
        Prt             0.85;
        value           uniform 0.000315046;
    }
    nWall
    {
        type            compressible::alphatWallFunction;
        Prt             0.85;
        value           nonuniform List<scalar> 6(0.000132754 0.000138829 0.000158953 0.000188168 0.000191231 0.000162842);
    }
    sideWalls
    {
        type            empty;
    }
    glass1
    {
        type            compressible::alphatWallFunction;
        Prt             0.85;
        value           nonuniform List<scalar> 9(0.000170871 0.000230291 0.000278463 0.000323929 0.000369603 0.000417469 0.000461857 0.000471247 0.00046047);
    }
    glass2
    {
        type            compressible::alphatWallFunction;
        Prt             0.85;
        value           nonuniform List<scalar> 2(0.00024098 0.000226086);
    }
    sun
    {
        type            compressible::alphatWallFunction;
        Prt             0.85;
        value           nonuniform List<scalar> 
14
(
0.000175193
0.000190601
0.000194088
0.000202981
0.000211185
0.000218894
0.00022653
0.000233783
0.000238861
0.000240809
0.00023871
0.000231894
0.000219992
0.000203238
)
;
    }
    heatsource1
    {
        type            compressible::alphatWallFunction;
        Prt             0.85;
        value           nonuniform List<scalar> 3(9.78087e-05 0.000118439 0.000133072);
    }
    heatsource2
    {
        type            compressible::alphatWallFunction;
        Prt             0.85;
        value           nonuniform List<scalar> 4(0.00018672 0.000117031 0.00011703 0.000192343);
    }
    Table_master
    {
        type            compressible::alphatWallFunction;
        Prt             0.85;
        value           nonuniform List<scalar> 9(0.000130262 0.000115115 0.000102638 9.23804e-05 8.38975e-05 7.68262e-05 7.08936e-05 6.59266e-05 6.18596e-05);
    }
    Table_slave
    {
        type            compressible::alphatWallFunction;
        Prt             0.85;
        value           nonuniform List<scalar> 9(0.00014732 0.000134914 0.000126001 0.000119175 0.000113302 0.000107767 0.000102398 9.66908e-05 8.99855e-05);
    }
    inlet
    {
        type            fixedValue;
        value           uniform 1.94e-05;
    }
    outlet
    {
        type            zeroGradient;
    }
}


// ************************************************************************* //
