/*--------------------------------*- C++ -*----------------------------------*\
  =========                 |
  \\      /  F ield         | OpenFOAM: The Open Source CFD Toolbox
   \\    /   O peration     | Website:  https://openfoam.org
    \\  /    A nd           | Version:  6
     \\/     M anipulation  |
\*---------------------------------------------------------------------------*/
FoamFile
{
    version     2.0;
    format      ascii;
    class       volScalarField;
    location    "1600";
    object      epsilon;
}
// * * * * * * * * * * * * * * * * * * * * * * * * * * * * * * * * * * * * * //

dimensions      [0 2 -3 0 0 0 0];

internalField   nonuniform List<scalar> 
459
(
0.000427613
0.000554197
0.000586335
0.0006744
0.000763538
0.000854568
0.000951986
0.00105152
0.00112534
0.00115452
0.00112285
0.00102451
0.000867659
0.000676666
0.000490924
3.54598e-05
6.03347e-05
8.71318e-05
8.98364e-05
8.24803e-05
7.2515e-05
5.99692e-05
4.87449e-05
3.98324e-05
3.2908e-05
2.75041e-05
2.32418e-05
1.98459e-05
1.71052e-05
1.4823e-05
1.28319e-05
1.09774e-05
9.91616e-06
7.60635e-06
0.00107997
0.00157853
0.000520302
0.000503484
0.000526031
0.00056564
0.00062671
0.000707786
0.000785267
0.000833442
0.000831979
0.000775282
0.000671913
0.000544266
0.000438979
0.000518254
0.00012508
4.01694e-05
9.49107e-05
0.000106029
9.9479e-05
8.68529e-05
7.41898e-05
6.80375e-05
5.50186e-05
4.34021e-05
3.42391e-05
2.72121e-05
2.18471e-05
1.7743e-05
1.46184e-05
1.23241e-05
1.09142e-05
1.03106e-05
2.61924e-05
1.78637e-05
0.00196675
0.00387996
0.00063888
0.000476622
0.000497348
0.000557954
0.000650518
0.000768259
0.000876607
0.00094109
0.000944193
0.000887272
0.000781979
0.00065404
0.000535515
0.000477314
0.000568475
0.000266123
0.000209703
0.00016737
0.000134507
0.000108872
9.33605e-05
0.000172362
0.000119236
8.51536e-05
6.28277e-05
4.77871e-05
3.73615e-05
2.99516e-05
2.46034e-05
2.07594e-05
1.58352e-05
1.32785e-05
4.93701e-05
2.84586e-05
0.0031839
0.00807261
0.00100726
0.000478554
0.000482104
0.000567126
0.000706816
0.00088268
0.00102024
0.00108645
0.00107773
0.00100535
0.000879954
0.000733407
0.000604364
0.000520704
0.000502335
0.000910435
0.000527399
0.000324918
0.000221814
0.000162586
0.000125559
0.00010827
0.00025016
0.000191646
0.000156089
0.000132216
0.000113847
9.8256e-05
8.46358e-05
7.16811e-05
5.83287e-05
3.47036e-05
2.24501e-05
8.18344e-05
3.93347e-05
0.00485949
0.0144403
0.00199145
0.000559085
0.000484502
0.000597491
0.000849501
0.0011129
0.00125903
0.00130142
0.00125989
0.00115264
0.00099407
0.00081039
0.000633297
0.000488819
0.000390731
0.000349907
0.000287979
0.000231578
0.000186042
0.000150163
0.000122268
0.000102885
9.93021e-05
9.2825e-05
8.6559e-05
8.0321e-05
7.35705e-05
6.61699e-05
5.87593e-05
5.17026e-05
4.52036e-05
3.62855e-05
2.78383e-05
5.88062e-05
4.53775e-05
7.41395e-05
0.000129958
0.00018412
0.0071934
0.0215085
0.00449697
0.00104428
0.000681672
0.000797217
0.0013041
0.00156916
0.00164602
0.00161862
0.00152189
0.00136374
0.0011516
0.000910367
0.000676588
0.000484995
0.000354172
0.000281318
0.000237384
0.000201945
0.000169295
0.00014067
0.000117458
0.000100971
9.26872e-05
8.93054e-05
8.75541e-05
8.53782e-05
8.15532e-05
7.51338e-05
6.59743e-05
5.63365e-05
4.74803e-05
3.95505e-05
3.43234e-05
4.48228e-05
4.69e-05
5.72921e-05
0.000240123
0.000210636
0.00997273
0.0257619
0.00938844
0.00345544
0.00222011
0.00220379
0.00240816
0.00238163
0.00225019
0.00208149
0.00188272
0.00163882
0.00134569
0.00102831
0.000728907
0.000491495
0.000337077
0.000254368
0.000210463
0.000178812
0.000150714
0.000127047
0.000109437
9.87955e-05
9.5224e-05
9.65392e-05
9.97614e-05
0.000103108
0.000105349
0.00010479
9.81768e-05
8.70066e-05
7.58395e-05
6.63468e-05
6.25425e-05
6.98316e-05
8.90057e-05
0.000142253
0.000326494
0.00031792
0.0106555
0.0287032
0.015609
0.00995293
0.00707789
0.00547443
0.0043399
0.00357729
0.00305932
0.00267423
0.00232869
0.00195976
0.00154866
0.00112845
0.00074741
0.000463539
0.000295702
0.000213739
0.00017406
0.000147259
0.000125781
0.000110075
0.00010069
9.75258e-05
9.98813e-05
0.00010635
0.00011562
0.000127269
0.000141377
0.000157862
0.000175702
0.000187333
0.000197258
0.000218578
0.000262912
0.000395628
0.000731303
0.00137899
0.00400717
0.00118648
0.00990443
0.016861
0.013529
0.0102202
0.00780118
0.00615312
0.00504005
0.00428012
0.00373239
0.00326769
0.00278701
0.0022442
0.00165143
0.00109497
0.000618787
0.000332837
0.000213293
0.000160217
0.000132218
0.000113442
0.000100416
9.27786e-05
9.02993e-05
9.25019e-05
9.87856e-05
0.000108654
0.00012209
0.000139796
0.000163164
0.000194244
0.000235779
0.000291766
0.000368735
0.000484141
0.000653918
0.00088394
0.00114657
0.00137525
0.00155166
0.000970866
0.00493164
0.00663352
0.00668833
0.00619935
0.00552731
0.00488526
0.00424357
0.00353727
0.0027553
0.00191853
0.00105319
0.000560646
0.000301218
0.000181193
0.000128697
0.000102799
8.7993e-05
7.88436e-05
7.35017e-05
7.14841e-05
7.2465e-05
7.60828e-05
8.21355e-05
9.06876e-05
0.000102169
0.000117436
0.000137859
0.000165506
0.000203626
0.000257172
0.00033152
0.000433793
0.000567316
0.000719428
0.00084943
0.000903311
0.00084769
0.000536533
0.00339181
0.00675132
0.00666785
0.00536625
0.00453127
0.00385091
0.00299626
0.00209337
0.00133065
0.00077936
0.000430928
0.000243969
0.00015006
0.000105894
8.49256e-05
7.40858e-05
6.81782e-05
6.52428e-05
6.44972e-05
6.55666e-05
6.82064e-05
7.24143e-05
7.83741e-05
8.63735e-05
9.69073e-05
0.000110785
0.000129277
0.000154338
0.000188708
0.000236008
0.000301163
0.000389091
0.000500306
0.000626355
0.000719781
0.000814788
0.000764181
0.000564124
0.00270629
0.00268365
0.00283495
0.00315524
0.00234709
0.00181784
0.00159845
0.00139279
0.00112627
0.000846247
0.000589325
0.000392351
0.00026008
0.000179595
0.000133205
0.000105839
8.86784e-05
7.75817e-05
7.07321e-05
6.72231e-05
6.6433e-05
6.78999e-05
7.13552e-05
7.68036e-05
8.41225e-05
9.34877e-05
0.000105299
0.000120158
0.000138995
0.000163347
0.00019399
0.000232461
0.000281056
0.000342675
0.000420112
0.000528047
0.000565087
0.000522661
0.000429555
0.000343218
)
;

boundaryField
{
    floor
    {
        Cmu             0.09;
        kappa           0.41;
        E               9.8;
        type            epsilonWallFunction;
        value           nonuniform List<scalar> 
29
(
0.000490924
3.54598e-05
6.03347e-05
8.71318e-05
8.98364e-05
8.24803e-05
7.2515e-05
5.99692e-05
4.87449e-05
3.98324e-05
3.2908e-05
2.75041e-05
2.32418e-05
1.98459e-05
1.71052e-05
1.4823e-05
1.28319e-05
1.09774e-05
9.91616e-06
7.60635e-06
7.60635e-06
1.78637e-05
2.84586e-05
3.93347e-05
0.000490924
3.54598e-05
4.01694e-05
0.000266123
0.000910435
)
;
    }
    ceiling
    {
        Cmu             0.09;
        kappa           0.41;
        E               9.8;
        type            epsilonWallFunction;
        value           nonuniform List<scalar> 
43
(
0.00270629
0.00268365
0.00283495
0.00315524
0.00234709
0.00181784
0.00159845
0.00139279
0.00112627
0.000846247
0.000589325
0.000392351
0.00026008
0.000179595
0.000133205
0.000105839
8.86784e-05
7.75817e-05
7.07321e-05
6.72231e-05
6.6433e-05
6.78999e-05
7.13552e-05
7.68036e-05
8.41225e-05
9.34877e-05
0.000105299
0.000120158
0.000138995
0.000163347
0.00019399
0.000232461
0.000281056
0.000342675
0.000420112
0.000528047
0.000565087
0.000522661
0.000429555
0.000343218
0.00990443
0.016861
0.00339181
)
;
    }
    sWall
    {
        Cmu             0.09;
        kappa           0.41;
        E               9.8;
        type            epsilonWallFunction;
        value           uniform 0.00270629;
    }
    nWall
    {
        Cmu             0.09;
        kappa           0.41;
        E               9.8;
        type            epsilonWallFunction;
        value           nonuniform List<scalar> 6(0.00018412 0.000210636 0.00031792 0.000536533 0.000564124 0.000343218);
    }
    sideWalls
    {
        type            empty;
    }
    glass1
    {
        Cmu             0.09;
        kappa           0.41;
        E               9.8;
        type            epsilonWallFunction;
        value           nonuniform List<scalar> 9(0.000427613 0.00107997 0.00196675 0.0031839 0.00485949 0.0071934 0.00997273 0.0106555 0.00990443);
    }
    glass2
    {
        Cmu             0.09;
        kappa           0.41;
        E               9.8;
        type            epsilonWallFunction;
        value           nonuniform List<scalar> 2(0.00118648 0.000970866);
    }
    sun
    {
        Cmu             0.09;
        kappa           0.41;
        E               9.8;
        type            epsilonWallFunction;
        value           nonuniform List<scalar> 
14
(
0.000427613
0.000554197
0.000586335
0.0006744
0.000763538
0.000854568
0.000951986
0.00105152
0.00112534
0.00115452
0.00112285
0.00102451
0.000867659
0.000676666
)
;
    }
    heatsource1
    {
        Cmu             0.09;
        kappa           0.41;
        E               9.8;
        type            epsilonWallFunction;
        value           nonuniform List<scalar> 3(7.41395e-05 0.000129958 0.00018412);
    }
    heatsource2
    {
        Cmu             0.09;
        kappa           0.41;
        E               9.8;
        type            epsilonWallFunction;
        value           nonuniform List<scalar> 4(0.000518254 0.00012508 0.00012508 0.000568475);
    }
    Table_master
    {
        Cmu             0.09;
        kappa           0.41;
        E               9.8;
        type            epsilonWallFunction;
        value           nonuniform List<scalar> 9(0.000172362 0.000119236 8.51536e-05 6.28277e-05 4.77871e-05 3.73615e-05 2.99516e-05 2.46034e-05 2.07594e-05);
    }
    Table_slave
    {
        Cmu             0.09;
        kappa           0.41;
        E               9.8;
        type            epsilonWallFunction;
        value           nonuniform List<scalar> 9(0.00025016 0.000191646 0.000156089 0.000132216 0.000113847 9.8256e-05 8.46358e-05 7.16811e-05 5.83287e-05);
    }
    inlet
    {
        type            turbulentMixingLengthDissipationRateInlet;
        mixingLength    0.01;
        phi             phi;
        k               k;
        value           uniform 0.000101881;
    }
    outlet
    {
        type            zeroGradient;
    }
}


// ************************************************************************* //
