/*--------------------------------*- C++ -*----------------------------------*\
  =========                 |
  \\      /  F ield         | OpenFOAM: The Open Source CFD Toolbox
   \\    /   O peration     | Website:  https://openfoam.org
    \\  /    A nd           | Version:  6
     \\/     M anipulation  |
\*---------------------------------------------------------------------------*/
FoamFile
{
    version     2.0;
    format      ascii;
    class       volScalarField;
    location    "1400";
    object      alphat;
}
// * * * * * * * * * * * * * * * * * * * * * * * * * * * * * * * * * * * * * //

dimensions      [1 -1 -1 0 0 0 0];

internalField   nonuniform List<scalar> 
459
(
0.00123575
0.00134843
0.00137394
0.00143952
0.0015003
0.00155763
0.00161458
0.00166903
0.00170733
0.00172219
0.00170662
0.00165565
0.00156692
0.001443
0.00129747
0.000539113
0.000643658
0.000727347
0.000734484
0.00071369
0.000683573
0.000641579
0.000598729
0.000559733
0.000525201
0.000494708
0.000467698
0.000443708
0.000422261
0.000402576
0.000383676
0.000364223
0.000352224
0.000322481
0.00168226
0.00399469
0.00378057
0.00438539
0.00497802
0.0055724
0.00608925
0.00649126
0.00686516
0.00717665
0.00738293
0.00743968
0.00729367
0.00681913
0.00548566
0.00132095
0.00081965
0.00056227
0.00118427
0.00166047
0.00202189
0.00223643
0.00224868
0.00177751
0.00152716
0.00134957
0.00121397
0.00110681
0.00102005
0.000946545
0.000878155
0.000811858
0.000752913
0.000700921
0.000833672
0.000429358
0.0020533
0.00541868
0.00461111
0.00574506
0.00626555
0.00664382
0.00693926
0.00719935
0.00750205
0.00783096
0.0081473
0.00839167
0.00851057
0.00841597
0.00784922
0.00602298
0.00136019
0.00105734
0.00154135
0.00201019
0.00246607
0.00280605
0.00277364
0.000912346
0.000806982
0.000721395
0.000651919
0.000595135
0.000548309
0.000509414
0.00047714
0.000450912
0.000486952
0.000562124
0.000943043
0.000501829
0.00240963
0.006932
0.00455168
0.00599999
0.00639319
0.00648708
0.00656487
0.00671143
0.00696542
0.00730806
0.00770282
0.00806517
0.00833728
0.00844295
0.00832395
0.00767429
0.00515096
0.00159178
0.00190926
0.00243816
0.00301874
0.00353748
0.00389672
0.00371361
0.00103283
0.000945085
0.00088259
0.000835064
0.000794456
0.000756429
0.000719812
0.000681171
0.000636119
0.000596663
0.000603111
0.00109656
0.000559201
0.00277274
0.0089057
0.00491978
0.00571996
0.00626086
0.00620338
0.00614749
0.00625798
0.00649671
0.0068473
0.00728413
0.00768338
0.00796287
0.00807087
0.00800882
0.0077492
0.00709206
0.00600829
0.00564159
0.00558524
0.00564353
0.00571206
0.00572268
0.00554449
0.00471432
0.00431058
0.00407555
0.00389295
0.00369996
0.00342493
0.00304443
0.00257711
0.00205558
0.00153614
0.00113569
0.00112255
0.000762905
0.000690328
0.000832295
0.000935022
0.0031583
0.0110692
0.00676558
0.00552612
0.00604777
0.00621549
0.00604751
0.00615302
0.0063523
0.00667827
0.00710324
0.00751964
0.00779794
0.00786046
0.00772475
0.00749058
0.00726955
0.00713075
0.0071459
0.00718312
0.007157
0.00705569
0.00688235
0.00662334
0.00623336
0.00588293
0.00557398
0.00528093
0.00498664
0.00467341
0.0042752
0.00377283
0.00316494
0.00248841
0.00187956
0.00138501
0.00106114
0.000904812
0.00128678
0.000978337
0.00352002
0.0126276
0.00969651
0.00701212
0.00654475
0.00658117
0.00641986
0.00633
0.00642777
0.00673819
0.00718616
0.00762323
0.00788838
0.00789266
0.00767688
0.00742087
0.00736149
0.00757145
0.00783113
0.00791805
0.00779858
0.00752905
0.00716104
0.00673272
0.00628404
0.00587818
0.00551915
0.00519423
0.00489876
0.00463619
0.00440451
0.004085
0.00362039
0.0030412
0.00247228
0.00194311
0.00156675
0.00145475
0.00148879
0.00112191
0.00359595
0.0114437
0.00993314
0.00880372
0.00811159
0.00734934
0.00670873
0.00644087
0.00656471
0.00698266
0.00752279
0.00798179
0.00818209
0.00806446
0.00773957
0.00749133
0.0075941
0.00794146
0.00808778
0.00792286
0.00753395
0.00700998
0.00643054
0.00587153
0.00539087
0.00500518
0.0046946
0.00444161
0.00424224
0.00410157
0.00402813
0.00399797
0.00377697
0.00340938
0.00307598
0.0029022
0.00302211
0.00348828
0.00426063
0.00173743
0.0035057
0.0041902
0.00473753
0.00491294
0.00493143
0.00504771
0.00538157
0.005964
0.00674334
0.00756638
0.00823904
0.00859255
0.00851583
0.00808554
0.00762468
0.00754316
0.00762167
0.00761963
0.00737598
0.00689446
0.00626744
0.00559949
0.00498777
0.00449194
0.00411942
0.00384159
0.00362406
0.00344343
0.0032854
0.00313959
0.00299774
0.00286058
0.0027499
0.00266724
0.00263324
0.00263895
0.00261513
0.00250098
0.00233248
0.00162456
0.00216869
0.00383868
0.0052907
0.00650292
0.00748631
0.00836843
0.00905618
0.00940174
0.00935523
0.00893742
0.00821199
0.00739431
0.00689587
0.0067132
0.00650888
0.00613235
0.0055939
0.00497663
0.00436584
0.00383837
0.00343744
0.00315395
0.00295704
0.00281656
0.00271231
0.00263345
0.00257517
0.00253643
0.00252159
0.0025336
0.00255712
0.00258822
0.00261752
0.00261602
0.00253779
0.00236951
0.00212629
0.00133362
0.00252008
0.0053642
0.00732557
0.00824008
0.00885202
0.00927196
0.00923643
0.00865258
0.0077596
0.00680312
0.00600113
0.00542216
0.0050334
0.00468137
0.00425676
0.00378181
0.00331917
0.00292604
0.00263065
0.00242831
0.00229297
0.00220449
0.00215502
0.00213549
0.00213974
0.00216394
0.00220481
0.0022578
0.00233055
0.00241984
0.00252276
0.00263166
0.00272845
0.0027923
0.00276807
0.00278366
0.00274916
0.00135591
0.00215224
0.00226703
0.00235167
0.00241913
0.00218823
0.00200757
0.00192094
0.00183388
0.00170784
0.00155276
0.00137594
0.0012007
0.00104582
0.000923184
0.000834516
0.000771972
0.000727103
0.000695167
0.000674304
0.000663603
0.000661881
0.000667679
0.000679748
0.00069747
0.000719597
0.000745878
0.000776434
0.000811625
0.000852154
0.000899332
0.000952319
0.00101135
0.00107716
0.00115039
0.00123081
0.0013278
0.00135781
0.00132288
0.00123927
0.00114995
)
;

boundaryField
{
    floor
    {
        type            compressible::alphatWallFunction;
        Prt             0.85;
        value           nonuniform List<scalar> 
29
(
0.000183538
7.52028e-05
9.08839e-05
0.000103211
0.000104255
0.000101212
9.67865e-05
9.05757e-05
8.41866e-05
7.83234e-05
7.30889e-05
6.84309e-05
6.42747e-05
6.05579e-05
5.72134e-05
5.41244e-05
5.11403e-05
4.8049e-05
4.61317e-05
4.13417e-05
4.13411e-05
5.83227e-05
6.95223e-05
7.82438e-05
0.000183536
7.52019e-05
7.87058e-05
0.000150345
0.000223289
)
;
    }
    ceiling
    {
        type            compressible::alphatWallFunction;
        Prt             0.85;
        value           nonuniform List<scalar> 
43
(
0.000296765
0.000311556
0.000322414
0.000331153
0.000301579
0.00027819
0.000266898
0.000255487
0.000238854
0.000218197
0.000194357
0.000170384
0.00014886
0.000131556
0.000118876
0.000109837
0.000103298
9.86139e-05
9.554e-05
9.39589e-05
9.37044e-05
9.45618e-05
9.63437e-05
9.89533e-05
0.0001022
0.000106041
0.000110486
0.000115579
0.000121413
0.000128163
0.000135693
0.000144026
0.000153248
0.000163435
0.000174537
0.000187817
0.000191904
0.000187148
0.000175702
0.000163379
0.000467269
0.000550529
0.000343765
)
;
    }
    sWall
    {
        type            compressible::alphatWallFunction;
        Prt             0.85;
        value           uniform 0.000295546;
    }
    nWall
    {
        type            compressible::alphatWallFunction;
        Prt             0.85;
        value           nonuniform List<scalar> 6(0.000132915 0.000139041 0.00015914 0.000188281 0.000191313 0.000163052);
    }
    sideWalls
    {
        type            empty;
    }
    glass1
    {
        type            compressible::alphatWallFunction;
        Prt             0.85;
        value           nonuniform List<scalar> 9(0.000170778 0.000230223 0.000278417 0.000323903 0.00036959 0.000417464 0.00046187 0.000471264 0.00046048);
    }
    glass2
    {
        type            compressible::alphatWallFunction;
        Prt             0.85;
        value           nonuniform List<scalar> 2(0.000241009 0.000226152);
    }
    sun
    {
        type            compressible::alphatWallFunction;
        Prt             0.85;
        value           nonuniform List<scalar> 
14
(
0.000175099
0.000190493
0.00019396
0.000202842
0.000211033
0.000218725
0.000226336
0.000233584
0.000238666
0.000240635
0.000238571
0.000231802
0.000219965
0.000203307
)
;
    }
    heatsource1
    {
        type            compressible::alphatWallFunction;
        Prt             0.85;
        value           nonuniform List<scalar> 3(9.78948e-05 0.000118551 0.000133232);
    }
    heatsource2
    {
        type            compressible::alphatWallFunction;
        Prt             0.85;
        value           nonuniform List<scalar> 4(0.000186873 0.000116729 0.000116728 0.000192215);
    }
    Table_master
    {
        type            compressible::alphatWallFunction;
        Prt             0.85;
        value           nonuniform List<scalar> 9(0.000130006 0.000114898 0.000102453 9.22194e-05 8.37561e-05 7.6702e-05 7.07856e-05 6.58331e-05 6.17774e-05);
    }
    Table_slave
    {
        type            compressible::alphatWallFunction;
        Prt             0.85;
        value           nonuniform List<scalar> 9(0.000147035 0.00013466 0.000125764 0.000118949 0.00011309 0.00010757 0.000102224 9.65458e-05 8.98761e-05);
    }
    inlet
    {
        type            fixedValue;
        value           uniform 1.94e-05;
    }
    outlet
    {
        type            zeroGradient;
    }
}


// ************************************************************************* //
