// -*- C++ -*-
// File generated by PyFoam - sorry for the ugliness

FoamFile
{
 version 2.0;
 format ascii;
 class volScalarField;
 location "200";
 object T;
}

dimensions [ 0 0 0 1 0 0 0 ];

internalField nonuniform List<scalar> 459
(
  303.71
  303.461
  303.441
  303.431
  303.422
  303.413
  303.403
  303.39
  303.376
  303.365
  303.361
  303.366
  303.392
  303.424
  303.466
  303.663
  303.646
  303.636
  303.632
  303.634
  303.637
  303.626
  303.591
  303.546
  303.507
  303.478
  303.456
  303.435
  303.411
  303.385
  303.372
  303.389
  303.37
  303.353
  303.87
  303.501
  303.471
  303.465
  303.459
  303.449
  303.433
  303.406
  303.373
  303.345
  303.332
  303.336
  303.358
  303.384
  303.42
  303.433
  303.459
  303.657
  303.628
  303.601
  303.597
  303.603
  303.611
  303.619
  303.621
  303.616
  303.607
  303.596
  303.583
  303.568
  303.551
  303.532
  303.512
  303.463
  303.383
  303.363
  304.042
  303.553
  303.513
  303.517
  303.521
  303.518
  303.497
  303.447
  303.385
  303.334
  303.31
  303.313
  303.334
  303.359
  303.386
  303.408
  303.434
  303.644
  303.602
  303.577
  303.571
  303.58
  303.593
  303.604
  303.615
  303.624
  303.63
  303.634
  303.634
  303.632
  303.628
  303.618
  303.601
  303.567
  303.534
  303.505
  304.22
  303.618
  303.561
  303.579
  303.604
  303.617
  303.586
  303.499
  303.399
  303.323
  303.288
  303.292
  303.316
  303.344
  303.37
  303.394
  303.418
  303.43
  303.456
  303.477
  303.504
  303.534
  303.566
  303.594
  303.616
  303.637
  303.656
  303.675
  303.692
  303.708
  303.723
  303.736
  303.746
  303.719
  303.679
  303.632
  303.563
  304.397
  303.7
  303.616
  303.64
  303.69
  303.725
  303.671
  303.533
  303.398
  303.305
  303.266
  303.273
  303.305
  303.343
  303.375
  303.4
  303.423
  303.444
  303.471
  303.503
  303.54
  303.579
  303.618
  303.653
  303.685
  303.713
  303.739
  303.762
  303.782
  303.799
  303.81
  303.816
  303.813
  303.794
  303.757
  303.706
  303.638
  303.626
  303.628
  303.691
  304.561
  303.804
  303.695
  303.71
  303.777
  303.803
  303.699
  303.531
  303.372
  303.269
  303.234
  303.256
  303.308
  303.364
  303.409
  303.442
  303.471
  303.503
  303.541
  303.583
  303.626
  303.669
  303.709
  303.745
  303.777
  303.806
  303.831
  303.853
  303.872
  303.888
  303.897
  303.897
  303.887
  303.866
  303.831
  303.785
  303.735
  303.706
  303.682
  303.7
  304.717
  303.965
  303.856
  303.865
  303.921
  303.851
  303.668
  303.453
  303.281
  303.193
  303.19
  303.248
  303.335
  303.419
  303.484
  303.532
  303.568
  303.606
  303.65
  303.698
  303.744
  303.786
  303.823
  303.854
  303.881
  303.905
  303.928
  303.948
  303.968
  303.983
  303.993
  303.989
  303.971
  303.944
  303.91
  303.87
  303.833
  303.805
  303.772
  303.754
  304.931
  304.372
  304.246
  304.208
  304.08
  303.81
  303.497
  303.241
  303.1
  303.082
  303.155
  303.277
  303.415
  303.53
  303.615
  303.665
  303.7
  303.738
  303.781
  303.827
  303.869
  303.906
  303.936
  303.962
  303.984
  304.006
  304.027
  304.048
  304.065
  304.077
  304.079
  304.069
  304.047
  304.014
  303.981
  303.947
  303.918
  303.885
  303.853
  303.9
  305.239
  304.971
  304.723
  304.464
  303.879
  303.301
  302.925
  302.782
  302.828
  302.996
  303.205
  303.407
  303.598
  303.716
  303.775
  303.811
  303.843
  303.878
  303.916
  303.954
  303.989
  304.018
  304.043
  304.064
  304.084
  304.104
  304.126
  304.145
  304.159
  304.16
  304.151
  304.135
  304.117
  304.102
  304.091
  304.089
  304.097
  304.112
  304.135
  304.217
  296.333
  297.376
  298.813
  300.222
  301.319
  302.155
  302.776
  303.26
  303.557
  303.723
  303.823
  303.884
  303.923
  303.953
  303.982
  304.013
  304.044
  304.074
  304.101
  304.123
  304.142
  304.158
  304.174
  304.189
  304.204
  304.217
  304.224
  304.225
  304.218
  304.205
  304.189
  304.173
  304.161
  304.157
  304.163
  304.18
  304.221
  304.393
  296.692
  298.395
  299.945
  301.676
  302.592
  303.146
  303.499
  303.723
  303.857
  303.941
  303.995
  304.032
  304.061
  304.086
  304.111
  304.135
  304.159
  304.18
  304.199
  304.214
  304.227
  304.238
  304.247
  304.255
  304.263
  304.269
  304.273
  304.274
  304.271
  304.264
  304.253
  304.241
  304.228
  304.22
  304.224
  304.255
  304.33
  304.375
  300.063
  299.981
  299.974
  302.264
  303.131
  303.495
  303.719
  303.867
  303.972
  304.046
  304.096
  304.133
  304.161
  304.183
  304.201
  304.218
  304.234
  304.248
  304.261
  304.272
  304.28
  304.287
  304.292
  304.296
  304.299
  304.301
  304.303
  304.305
  304.307
  304.308
  304.308
  304.307
  304.305
  304.301
  304.295
  304.294
  304.306
  304.338
  304.407
  304.554
)
;

boundaryField
{
  floor
  {
    type wallHeatTransfer;
    Tinf uniform 305.2;
    alphaWall uniform 0.24;
    value nonuniform List<scalar> 29
(
  303.665
  303.967
  303.925
  303.894
  303.878
  303.88
  303.894
  303.925
  303.945
  303.947
  303.944
  303.943
  303.944
  303.944
  303.941
  303.931
  303.904
  303.831
  303.706
  303.743
  303.743
  303.725
  303.789
  303.828
  303.665
  303.967
  303.953
  303.913
  303.583
)
;
  }
  ceiling
  {
    type wallHeatTransfer;
    Tinf uniform 303.2;
    alphaWall uniform 0.24;
    value nonuniform List<scalar> 43
(
  300.293
  300.207
  300.194
  302.324
  303.136
  303.475
  303.683
  303.819
  303.914
  303.977
  304.019
  304.048
  304.07
  304.087
  304.103
  304.116
  304.129
  304.14
  304.15
  304.158
  304.164
  304.168
  304.171
  304.173
  304.174
  304.175
  304.177
  304.179
  304.181
  304.183
  304.184
  304.185
  304.185
  304.184
  304.181
  304.18
  304.188
  304.207
  304.265
  304.417
  305.143
  304.898
  297.129
)
;
  }
  sWall
  {
    type wallHeatTransfer;
    Tinf uniform 315.2;
    alphaWall uniform 0.36;
    value uniform 301.672;
  }
  nWall
  {
    type wallHeatTransfer;
    Tinf uniform 307.2;
    alphaWall uniform 0.36;
    value nonuniform List<scalar> 6
(
  304.335
  304.337
  304.288
  304.811
  304.784
  304.935
)
;
  }
  sideWalls
  {
    type empty;
  }
  glass1
  {
    type wallHeatTransfer;
    Tinf uniform 315.2;
    alphaWall uniform 4.3;
    value nonuniform List<scalar> 9
(
  311.377
  310.834
  310.493
  310.234
  310.016
  309.813
  309.665
  309.736
  309.955
)
;
  }
  glass2
  {
    type wallHeatTransfer;
    Tinf uniform 307.2;
    alphaWall uniform 4.3;
    value nonuniform List<scalar> 2
(
  306.113
  306.215
)
;
  }
  sun
  {
    type wallHeatTransfer;
    Tinf uniform 305.2;
    alphaWall uniform 0.24;
    value nonuniform List<scalar> 14
(
  303.858
  303.62
  303.598
  303.583
  303.569
  303.555
  303.541
  303.526
  303.512
  303.502
  303.502
  303.513
  303.552
  303.602
)
;
  }
  heatsource1
  {
    type fixedGradient;
    gradient uniform 0;
  }
  heatsource2
  {
    type fixedGradient;
    gradient uniform 0;
  }
  Table_master
  {
    type zeroGradient;
  }
  Table_slave
  {
    type zeroGradient;
  }
  inlet
  {
    type fixedValue;
    value uniform 293.15;
  }
  outlet
  {
    type zeroGradient;
  }
} 	// ************************************************************************* //

