/*--------------------------------*- C++ -*----------------------------------*\
  =========                 |
  \\      /  F ield         | OpenFOAM: The Open Source CFD Toolbox
   \\    /   O peration     | Website:  https://openfoam.org
    \\  /    A nd           | Version:  6
     \\/     M anipulation  |
\*---------------------------------------------------------------------------*/
FoamFile
{
    version     2.0;
    format      ascii;
    class       volScalarField;
    location    "100";
    object      epsilon;
}
// * * * * * * * * * * * * * * * * * * * * * * * * * * * * * * * * * * * * * //

dimensions      [0 2 -3 0 0 0 0];

internalField   nonuniform List<scalar> 
459
(
0.000146215
0.000155501
8.2139e-05
7.88595e-05
8.58439e-05
9.42254e-05
0.000103724
0.000114542
0.000127004
0.000139504
0.000150987
0.000159997
0.00016477
0.000163233
0.00015137
1.3065e-05
1.88157e-05
6.67805e-06
3.2718e-06
2.44993e-06
2.32142e-06
2.60666e-06
3.25495e-06
4.25197e-06
5.66139e-06
7.56424e-06
1.00405e-05
1.30796e-05
1.70392e-05
2.33606e-05
3.23686e-05
3.55201e-05
2.88854e-05
1.87413e-05
0.000877659
0.00191069
0.000187647
6.56644e-05
6.02855e-05
6.45393e-05
7.05532e-05
7.76821e-05
8.61726e-05
9.5758e-05
0.000106423
0.000117917
0.000129225
0.000138119
0.000145869
0.000194116
6.37896e-05
2.55972e-05
7.62616e-05
1.41641e-05
5.41767e-06
3.60796e-06
2.68207e-06
2.11875e-06
2.88444e-06
4.30862e-06
6.68909e-06
1.02973e-05
1.52827e-05
2.18246e-05
3.05325e-05
4.03018e-05
4.47467e-05
4.29311e-05
4.45785e-05
3.24236e-05
0.00234404
0.00639825
0.000666674
0.000114954
7.28252e-05
7.23546e-05
7.80964e-05
8.59384e-05
9.53817e-05
0.000106282
0.000118478
0.000131685
0.00014497
0.000156457
0.000165225
0.000178611
0.000224752
8.44016e-05
8.43512e-05
3.69825e-05
3.02009e-05
3.09858e-05
2.93459e-05
3.55281e-06
4.33115e-06
7.10808e-06
1.20682e-05
1.98211e-05
3.10151e-05
4.71268e-05
7.21164e-05
0.000116953
8.58084e-05
8.82702e-05
9.87496e-05
0.000136497
0.00460631
0.0134914
0.00181047
0.000255764
0.00010933
9.39586e-05
9.69378e-05
0.000104768
0.000115011
0.00012706
0.000140363
0.000154479
0.000168325
0.000180093
0.0001889
0.000199219
0.000228068
0.00030699
0.000126742
8.38812e-05
7.88123e-05
8.64846e-05
0.000100175
0.000123923
0.000168964
0.000165381
0.000162013
0.000158918
0.000157664
0.000160687
0.000171821
0.000197824
0.000253627
0.000145613
0.000166612
0.000200525
0.000336186
0.00754933
0.0218779
0.0039721
0.000677265
0.000228312
0.000152509
0.000138998
0.000141409
0.0001501
0.000162181
0.00017659
0.000192953
0.00020979
0.000223716
0.00022974
0.000223296
0.000203696
0.000171556
0.000125377
0.000105373
0.000101424
0.000104513
0.000109966
0.000114889
0.000117979
0.000117525
0.000117095
0.000117682
0.000120395
0.000126762
0.000138725
0.000158269
0.000186148
0.000217943
0.000269424
0.000333636
0.000406624
0.000579697
0.000376903
0.000243168
0.011082
0.0285112
0.00755539
0.00197778
0.000738503
0.000375166
0.000266532
0.000231377
0.000221817
0.000222922
0.000231345
0.00024664
0.000267361
0.000289634
0.000306809
0.000310536
0.000294009
0.000258012
0.000215061
0.000182632
0.000167145
0.000162522
0.00016197
0.000162576
0.000162283
0.000160809
0.000159257
0.000158433
0.000159419
0.000164032
0.000175181
0.000196967
0.000234109
0.000290494
0.000368597
0.000462986
0.000548978
0.00059103
0.000416214
0.000280603
0.014674
0.0302731
0.0132675
0.00583268
0.00288522
0.00135336
0.000762868
0.000521769
0.000407343
0.000349494
0.000323045
0.000319021
0.000332315
0.000357237
0.00038534
0.000404841
0.000403762
0.000378694
0.000338899
0.000300442
0.000273068
0.000257098
0.000248772
0.00024435
0.000241029
0.00023778
0.000234747
0.000232325
0.000231304
0.000233386
0.000241955
0.000262897
0.000304334
0.000373686
0.000473328
0.000596293
0.000717627
0.00079299
0.000756904
0.000305337
0.0146078
0.0316387
0.0226381
0.016371
0.00954175
0.00502503
0.00268122
0.00153283
0.000955747
0.000659636
0.000514265
0.000444582
0.000421809
0.000430935
0.000459961
0.000494177
0.000513217
0.000508169
0.000482032
0.000447454
0.000416084
0.000392635
0.000376802
0.000366268
0.000358514
0.000352129
0.000346702
0.000342257
0.000339274
0.000339123
0.000345003
0.000363525
0.000406437
0.000489044
0.000620466
0.000796658
0.00101228
0.00128306
0.00161863
0.00126855
0.0124956
0.0189139
0.0664631
0.0464348
0.0241664
0.0120229
0.00612993
0.00331792
0.0019464
0.00124854
0.000876221
0.000680751
0.000590273
0.00056323
0.000575211
0.00060719
0.000639643
0.000657633
0.000655553
0.000638323
0.000614853
0.000591734
0.000571948
0.000555656
0.000541979
0.000530126
0.000519664
0.000510386
0.000502336
0.000496095
0.000493394
0.000498048
0.000516723
0.000559135
0.000636644
0.000756454
0.000913782
0.0011352
0.00258193
0.0016589
0.201811
0.15772
0.0303072
0.0115911
0.00598229
0.00350795
0.00226936
0.00160942
0.00124553
0.00104418
0.000936335
0.00088803
0.000880097
0.000898368
0.000929172
0.000959325
0.000978704
0.000983518
0.000975872
0.000960359
0.0009411
0.000919801
0.00089801
0.000876714
0.000856429
0.000837324
0.000819291
0.000802082
0.000785569
0.000770089
0.000756567
0.000747068
0.000745312
0.000753375
0.000777714
0.000865738
0.00137115
0.00156578
0.127279
0.080897
0.0270146
0.0116343
0.00624304
0.00394767
0.00284376
0.00228165
0.00199822
0.00187057
0.00183276
0.00184461
0.00187996
0.00192167
0.00195706
0.00197664
0.00197599
0.00195672
0.00192436
0.00188526
0.00184425
0.00180099
0.00175689
0.00171326
0.00167069
0.00162873
0.00158594
0.00153996
0.00148805
0.00142822
0.00136107
0.00129166
0.00122928
0.00118443
0.00116457
0.00118789
0.00208361
0.00141444
0.00120211
0.00277415
0.0428247
0.0314428
0.0182969
0.0107577
0.00675162
0.00454554
0.0032653
0.00249036
0.00201027
0.00171324
0.0015349
0.00143498
0.00138671
0.0013713
0.00137482
0.00138636
0.00139726
0.00140149
0.00139617
0.00138117
0.00135856
0.00133364
0.00130606
0.00127642
0.00124564
0.00121456
0.00118368
0.00115301
0.00112193
0.00108925
0.00105325
0.00101208
0.000964116
0.000907864
0.000841388
0.000764887
0.000767816
0.000538768
)
;

boundaryField
{
    floor
    {
        Cmu             0.09;
        kappa           0.41;
        E               9.8;
        type            epsilonWallFunction;
        value           nonuniform List<scalar> 
29
(
0.00015137
1.3065e-05
1.88157e-05
6.67805e-06
3.2718e-06
2.44993e-06
2.32142e-06
2.60666e-06
3.25495e-06
4.25197e-06
5.66139e-06
7.56424e-06
1.00405e-05
1.30796e-05
1.70392e-05
2.33606e-05
3.23686e-05
3.55201e-05
2.88854e-05
1.87413e-05
1.87413e-05
3.24236e-05
0.000136497
0.000336186
0.00015137
1.3065e-05
2.55972e-05
8.44016e-05
0.00030699
)
;
    }
    ceiling
    {
        Cmu             0.09;
        kappa           0.41;
        E               9.8;
        type            epsilonWallFunction;
        value           nonuniform List<scalar> 
43
(
0.00120211
0.00277415
0.0428247
0.0314428
0.0182969
0.0107577
0.00675162
0.00454554
0.0032653
0.00249036
0.00201027
0.00171324
0.0015349
0.00143498
0.00138671
0.0013713
0.00137482
0.00138636
0.00139726
0.00140149
0.00139617
0.00138117
0.00135856
0.00133364
0.00130606
0.00127642
0.00124564
0.00121456
0.00118368
0.00115301
0.00112193
0.00108925
0.00105325
0.00101208
0.000964116
0.000907864
0.000841388
0.000764887
0.000767816
0.000538768
0.0124956
0.0189139
0.127279
)
;
    }
    sWall
    {
        Cmu             0.09;
        kappa           0.41;
        E               9.8;
        type            epsilonWallFunction;
        value           uniform 0.00120211;
    }
    nWall
    {
        Cmu             0.09;
        kappa           0.41;
        E               9.8;
        type            epsilonWallFunction;
        value           nonuniform List<scalar> 6(0.000243168 0.000280603 0.000305337 0.00156578 0.00141444 0.000538768);
    }
    sideWalls
    {
        type            empty;
    }
    glass1
    {
        Cmu             0.09;
        kappa           0.41;
        E               9.8;
        type            epsilonWallFunction;
        value           nonuniform List<scalar> 9(0.000146215 0.000877659 0.00234404 0.00460631 0.00754933 0.011082 0.014674 0.0146078 0.0124956);
    }
    glass2
    {
        Cmu             0.09;
        kappa           0.41;
        E               9.8;
        type            epsilonWallFunction;
        value           nonuniform List<scalar> 2(0.00126855 0.0016589);
    }
    sun
    {
        Cmu             0.09;
        kappa           0.41;
        E               9.8;
        type            epsilonWallFunction;
        value           nonuniform List<scalar> 
14
(
0.000146215
0.000155501
8.2139e-05
7.88595e-05
8.58439e-05
9.42254e-05
0.000103724
0.000114542
0.000127004
0.000139504
0.000150987
0.000159997
0.00016477
0.000163233
)
;
    }
    heatsource1
    {
        Cmu             0.09;
        kappa           0.41;
        E               9.8;
        type            epsilonWallFunction;
        value           nonuniform List<scalar> 3(0.000579697 0.000376903 0.000243168);
    }
    heatsource2
    {
        Cmu             0.09;
        kappa           0.41;
        E               9.8;
        type            epsilonWallFunction;
        value           nonuniform List<scalar> 4(0.000194116 6.37896e-05 6.37896e-05 0.000224752);
    }
    Table_master
    {
        Cmu             0.09;
        kappa           0.41;
        E               9.8;
        type            epsilonWallFunction;
        value           nonuniform List<scalar> 9(3.55281e-06 4.33115e-06 7.10808e-06 1.20682e-05 1.98211e-05 3.10151e-05 4.71268e-05 7.21164e-05 0.000116953);
    }
    Table_slave
    {
        Cmu             0.09;
        kappa           0.41;
        E               9.8;
        type            epsilonWallFunction;
        value           nonuniform List<scalar> 9(0.000168964 0.000165381 0.000162013 0.000158918 0.000157664 0.000160687 0.000171821 0.000197824 0.000253627);
    }
    inlet
    {
        type            turbulentMixingLengthDissipationRateInlet;
        mixingLength    0.01;
        phi             phi;
        k               k;
        value           uniform 0.201811;
    }
    outlet
    {
        type            zeroGradient;
    }
}


// ************************************************************************* //
