/*--------------------------------*- C++ -*----------------------------------*\
  =========                 |
  \\      /  F ield         | OpenFOAM: The Open Source CFD Toolbox
   \\    /   O peration     | Website:  https://openfoam.org
    \\  /    A nd           | Version:  6
     \\/     M anipulation  |
\*---------------------------------------------------------------------------*/
FoamFile
{
    version     2.0;
    format      ascii;
    class       volScalarField;
    location    "700";
    object      epsilon;
}
// * * * * * * * * * * * * * * * * * * * * * * * * * * * * * * * * * * * * * //

dimensions      [0 2 -3 0 0 0 0];

internalField   nonuniform List<scalar> 
459
(
0.000500108
0.000657586
0.000705119
0.00081558
0.000929708
0.00105014
0.00118583
0.00130235
0.00137226
0.0013722
0.00129061
0.00112946
0.000897111
0.000577846
0.00027414
4.22879e-05
6.99807e-05
0.000105552
0.000120542
0.000116061
0.000104691
8.5928e-05
6.87425e-05
5.53067e-05
4.50775e-05
3.72438e-05
3.11731e-05
2.63871e-05
2.25865e-05
1.94659e-05
1.67805e-05
1.4313e-05
1.26099e-05
9.51451e-06
0.0012142
0.00170182
0.000615948
0.000603044
0.000639142
0.000703254
0.000800953
0.000907462
0.00098699
0.00100861
0.000961212
0.000852919
0.000706702
0.0005345
0.000411513
0.000560107
0.000201915
4.27574e-05
9.4167e-05
0.000118168
0.000118585
0.000108928
9.74127e-05
9.3886e-05
7.54729e-05
5.86818e-05
4.55968e-05
3.57317e-05
2.83331e-05
2.27395e-05
1.85197e-05
1.53775e-05
1.33714e-05
1.24047e-05
2.63406e-05
1.9133e-05
0.00215437
0.00399834
0.000738138
0.000577358
0.000620526
0.000720947
0.000866147
0.00101635
0.00111856
0.00114414
0.00109331
0.000977935
0.000826952
0.000664143
0.000535586
0.000475075
0.000612522
0.000208804
0.000196502
0.000175931
0.000154077
0.00013275
0.000120766
0.000239321
0.000159103
0.000109436
7.80579e-05
5.7618e-05
4.3874e-05
3.43613e-05
2.76974e-05
2.30996e-05
1.73832e-05
1.4519e-05
4.83909e-05
2.90636e-05
0.00341058
0.0081415
0.00112292
0.000589601
0.000625579
0.000775269
0.00100542
0.00120518
0.0013125
0.00132261
0.00125279
0.00111091
0.000936492
0.000763107
0.000620797
0.000534395
0.000520719
0.000931653
0.000561633
0.000364172
0.000261253
0.000200954
0.00016185
0.000145434
0.000352104
0.000261256
0.000205849
0.000168423
0.000140074
0.000117737
9.84841e-05
8.07549e-05
6.33182e-05
3.60898e-05
2.29483e-05
8.24024e-05
3.91964e-05
0.00511032
0.0144315
0.00215565
0.000699453
0.000672184
0.000920921
0.00131178
0.00153361
0.00160651
0.00157367
0.00146067
0.00128
0.0010586
0.000832318
0.000638526
0.000499738
0.000424131
0.00040137
0.000344804
0.000290299
0.000244274
0.000204669
0.000170393
0.000144187
0.000138736
0.000126699
0.000114741
0.000103119
9.15496e-05
8.02494e-05
6.92152e-05
5.88196e-05
4.92823e-05
3.76544e-05
2.81132e-05
5.95306e-05
4.49032e-05
7.32104e-05
0.000128416
0.000183097
0.00745766
0.0214816
0.0048035
0.00130199
0.00101449
0.00156023
0.00196581
0.00207651
0.00204416
0.00193445
0.00175541
0.00150716
0.00121168
0.000912114
0.000657958
0.000478252
0.00037583
0.000330404
0.000303004
0.000274288
0.00024046
0.000204737
0.000170975
0.00014313
0.00012551
0.000114794
0.000107035
9.95634e-05
9.12606e-05
8.14906e-05
7.04331e-05
5.94055e-05
4.94753e-05
4.06174e-05
3.52867e-05
4.58677e-05
4.82529e-05
5.78795e-05
0.000237913
0.000211167
0.0101731
0.025755
0.00986669
0.00411953
0.0030696
0.00328036
0.00316262
0.00292826
0.00268171
0.00243103
0.0021415
0.0017897
0.00139311
0.00100175
0.000681393
0.000467469
0.000355352
0.000309554
0.000284981
0.000257637
0.000224183
0.000189457
0.000158292
0.000134274
0.000119658
0.000112726
0.000109476
0.000107382
0.000105344
0.000102251
9.5198e-05
8.5584e-05
7.60431e-05
6.80368e-05
6.61312e-05
7.44424e-05
9.30053e-05
0.000140711
0.000334444
0.000323073
0.0107996
0.0279569
0.0155146
0.0103458
0.00787357
0.00603317
0.0048049
0.0040106
0.00347474
0.00304531
0.00260456
0.00210311
0.00156552
0.00105135
0.000659012
0.000423972
0.000314521
0.000273502
0.000247955
0.000219642
0.00018854
0.000159792
0.000136863
0.000121534
0.000114053
0.000112867
0.000115934
0.000122435
0.000132546
0.000146518
0.000163826
0.00017908
0.000193395
0.000219799
0.000269144
0.000396785
0.00068315
0.0012434
0.00413872
0.00108766
0.0100151
0.0168336
0.0134584
0.0102517
0.00796302
0.00643675
0.0054311
0.0047572
0.00423653
0.00370659
0.00306079
0.00231567
0.00157012
0.000878128
0.000481509
0.000319486
0.000251832
0.000218411
0.000193346
0.000169215
0.000146792
0.000128039
0.000114489
0.000106886
0.000105051
0.000108305
0.000116289
0.00012956
0.000149524
0.000178287
0.000218734
0.000275019
0.000353548
0.000466558
0.000630349
0.000852449
0.00111481
0.00136445
0.00156253
0.000859859
0.00451504
0.0061247
0.0067462
0.00641021
0.0059191
0.00536737
0.00464248
0.00370631
0.00250069
0.00142907
0.000806042
0.000466232
0.000299971
0.000223146
0.00018479
0.000160541
0.000140786
0.000123433
0.000109097
9.84485e-05
9.17065e-05
8.85928e-05
8.87966e-05
9.22204e-05
9.91782e-05
0.000110485
0.000127555
0.000152463
0.000188286
0.000239566
0.00031188
0.000412652
0.000548466
0.000716086
0.000892462
0.00103868
0.000967403
0.000433273
0.00307282
0.006683
0.00684905
0.00550068
0.004536
0.00360446
0.00260135
0.00172977
0.00108084
0.000653062
0.000405903
0.00027505
0.000208915
0.000174838
0.000155453
0.000142538
0.000132718
0.000124935
0.000118963
0.000114728
0.000112144
0.000111096
0.000111562
0.000113701
0.000117968
0.00012523
0.000136779
0.000154439
0.000180739
0.0002191
0.00027395
0.000349864
0.000448109
0.000561278
0.000664948
0.000778476
0.000446872
0.000461945
0.00202426
0.00236262
0.00262749
0.00298255
0.00236131
0.00201249
0.00180689
0.00154164
0.00121808
0.000910957
0.000662238
0.000482841
0.000365762
0.000293152
0.000246082
0.000212228
0.000185155
0.000162043
0.000142257
0.000126086
0.000113761
0.000105095
9.96364e-05
9.69467e-05
9.68019e-05
9.92721e-05
0.000104684
0.000113555
0.000126611
0.00014474
0.000168955
0.000200668
0.000241786
0.000294583
0.000360565
0.000441297
0.000446791
0.000318423
0.000275387
0.000468247
)
;

boundaryField
{
    floor
    {
        Cmu             0.09;
        kappa           0.41;
        E               9.8;
        type            epsilonWallFunction;
        value           nonuniform List<scalar> 
29
(
0.00027414
4.22879e-05
6.99807e-05
0.000105552
0.000120542
0.000116061
0.000104691
8.5928e-05
6.87425e-05
5.53067e-05
4.50775e-05
3.72438e-05
3.11731e-05
2.63871e-05
2.25865e-05
1.94659e-05
1.67805e-05
1.4313e-05
1.26099e-05
9.51451e-06
9.51451e-06
1.9133e-05
2.90636e-05
3.91964e-05
0.00027414
4.22879e-05
4.27574e-05
0.000208804
0.000931653
)
;
    }
    ceiling
    {
        Cmu             0.09;
        kappa           0.41;
        E               9.8;
        type            epsilonWallFunction;
        value           nonuniform List<scalar> 
43
(
0.00202426
0.00236262
0.00262749
0.00298255
0.00236131
0.00201249
0.00180689
0.00154164
0.00121808
0.000910957
0.000662238
0.000482841
0.000365762
0.000293152
0.000246082
0.000212228
0.000185155
0.000162043
0.000142257
0.000126086
0.000113761
0.000105095
9.96364e-05
9.69467e-05
9.68019e-05
9.92721e-05
0.000104684
0.000113555
0.000126611
0.00014474
0.000168955
0.000200668
0.000241786
0.000294583
0.000360565
0.000441297
0.000446791
0.000318423
0.000275387
0.000468247
0.0100151
0.0168336
0.00307282
)
;
    }
    sWall
    {
        Cmu             0.09;
        kappa           0.41;
        E               9.8;
        type            epsilonWallFunction;
        value           uniform 0.00202426;
    }
    nWall
    {
        Cmu             0.09;
        kappa           0.41;
        E               9.8;
        type            epsilonWallFunction;
        value           nonuniform List<scalar> 6(0.000183097 0.000211167 0.000323073 0.000433273 0.000461945 0.000468247);
    }
    sideWalls
    {
        type            empty;
    }
    glass1
    {
        Cmu             0.09;
        kappa           0.41;
        E               9.8;
        type            epsilonWallFunction;
        value           nonuniform List<scalar> 9(0.000500108 0.0012142 0.00215437 0.00341058 0.00511032 0.00745766 0.0101731 0.0107996 0.0100151);
    }
    glass2
    {
        Cmu             0.09;
        kappa           0.41;
        E               9.8;
        type            epsilonWallFunction;
        value           nonuniform List<scalar> 2(0.00108766 0.000859859);
    }
    sun
    {
        Cmu             0.09;
        kappa           0.41;
        E               9.8;
        type            epsilonWallFunction;
        value           nonuniform List<scalar> 
14
(
0.000500108
0.000657586
0.000705119
0.00081558
0.000929708
0.00105014
0.00118583
0.00130235
0.00137226
0.0013722
0.00129061
0.00112946
0.000897111
0.000577846
)
;
    }
    heatsource1
    {
        Cmu             0.09;
        kappa           0.41;
        E               9.8;
        type            epsilonWallFunction;
        value           nonuniform List<scalar> 3(7.32104e-05 0.000128416 0.000183097);
    }
    heatsource2
    {
        Cmu             0.09;
        kappa           0.41;
        E               9.8;
        type            epsilonWallFunction;
        value           nonuniform List<scalar> 4(0.000560107 0.000201915 0.000201915 0.000612522);
    }
    Table_master
    {
        Cmu             0.09;
        kappa           0.41;
        E               9.8;
        type            epsilonWallFunction;
        value           nonuniform List<scalar> 9(0.000239321 0.000159103 0.000109436 7.80579e-05 5.7618e-05 4.3874e-05 3.43613e-05 2.76974e-05 2.30996e-05);
    }
    Table_slave
    {
        Cmu             0.09;
        kappa           0.41;
        E               9.8;
        type            epsilonWallFunction;
        value           nonuniform List<scalar> 9(0.000352104 0.000261256 0.000205849 0.000168423 0.000140074 0.000117737 9.84841e-05 8.07549e-05 6.33182e-05);
    }
    inlet
    {
        type            turbulentMixingLengthDissipationRateInlet;
        mixingLength    0.01;
        phi             phi;
        k               k;
        value           uniform 0.000101881;
    }
    outlet
    {
        type            zeroGradient;
    }
}


// ************************************************************************* //
