// -*- C++ -*-
// File generated by PyFoam - sorry for the ugliness

FoamFile
{
 version 2.0;
 format ascii;
 class volScalarField;
 location "700";
 object T;
}

dimensions [ 0 0 0 1 0 0 0 ];

internalField nonuniform List<scalar> 459
(
  303.301
  303.041
  303.029
  303.025
  303.022
  303.018
  303.014
  303.007
  302.997
  302.985
  302.976
  302.97
  302.97
  302.978
  303.008
  303.12
  303.098
  303.09
  303.095
  303.103
  303.11
  303.116
  303.123
  303.129
  303.135
  303.141
  303.147
  303.154
  303.16
  303.167
  303.173
  303.181
  303.191
  303.216
  303.474
  303.082
  303.059
  303.062
  303.064
  303.064
  303.06
  303.047
  303.025
  302.999
  302.976
  302.963
  302.959
  302.963
  302.971
  302.97
  302.968
  303.123
  303.075
  303.071
  303.078
  303.089
  303.099
  303.104
  303.108
  303.111
  303.115
  303.119
  303.122
  303.126
  303.131
  303.136
  303.142
  303.152
  303.166
  303.202
  303.656
  303.132
  303.096
  303.107
  303.121
  303.13
  303.13
  303.111
  303.07
  303.022
  302.982
  302.959
  302.953
  302.958
  302.964
  302.967
  302.967
  303.074
  303.058
  303.062
  303.076
  303.094
  303.111
  303.112
  303.113
  303.115
  303.118
  303.12
  303.123
  303.126
  303.129
  303.132
  303.139
  303.147
  303.16
  303.198
  303.842
  303.194
  303.134
  303.155
  303.187
  303.213
  303.222
  303.19
  303.121
  303.044
  302.986
  302.953
  302.947
  302.955
  302.965
  302.972
  302.975
  302.985
  303.002
  303.029
  303.059
  303.091
  303.121
  303.146
  303.166
  303.184
  303.199
  303.213
  303.225
  303.236
  303.245
  303.253
  303.258
  303.223
  303.192
  303.177
  303.202
  304.025
  303.272
  303.177
  303.198
  303.248
  303.3
  303.317
  303.264
  303.16
  303.055
  302.982
  302.945
  302.94
  302.954
  302.973
  302.989
  303.001
  303.019
  303.044
  303.075
  303.11
  303.146
  303.179
  303.207
  303.234
  303.255
  303.273
  303.289
  303.3
  303.307
  303.309
  303.308
  303.3
  303.273
  303.234
  303.201
  303.205
  303.31
  303.364
  303.367
  304.191
  303.374
  303.246
  303.248
  303.303
  303.384
  303.382
  303.295
  303.168
  303.047
  302.964
  302.927
  302.931
  302.958
  302.991
  303.022
  303.048
  303.075
  303.108
  303.144
  303.182
  303.218
  303.251
  303.279
  303.303
  303.323
  303.34
  303.353
  303.362
  303.364
  303.36
  303.352
  303.337
  303.312
  303.273
  303.234
  303.219
  303.26
  303.284
  303.322
  304.344
  303.536
  303.403
  303.386
  303.423
  303.475
  303.417
  303.279
  303.12
  302.989
  302.914
  302.896
  302.922
  302.973
  303.03
  303.079
  303.12
  303.157
  303.194
  303.23
  303.266
  303.299
  303.327
  303.351
  303.371
  303.387
  303.4
  303.409
  303.414
  303.412
  303.404
  303.39
  303.372
  303.346
  303.312
  303.274
  303.252
  303.26
  303.273
  303.304
  304.564
  303.959
  303.806
  303.728
  303.707
  303.592
  303.387
  303.16
  302.972
  302.859
  302.828
  302.861
  302.931
  303.021
  303.104
  303.17
  303.221
  303.259
  303.292
  303.323
  303.352
  303.377
  303.399
  303.416
  303.43
  303.441
  303.448
  303.451
  303.451
  303.446
  303.437
  303.423
  303.405
  303.382
  303.356
  303.329
  303.315
  303.326
  303.344
  303.466
  304.879
  304.592
  304.334
  304.107
  303.832
  303.399
  303.007
  302.748
  302.637
  302.649
  302.744
  302.873
  303.004
  303.138
  303.233
  303.287
  303.323
  303.354
  303.381
  303.406
  303.427
  303.444
  303.458
  303.469
  303.476
  303.48
  303.481
  303.479
  303.475
  303.47
  303.465
  303.461
  303.459
  303.461
  303.469
  303.487
  303.515
  303.545
  303.568
  303.629
  296.663
  298.287
  299.205
  300.149
  300.961
  301.631
  302.155
  302.554
  302.878
  303.095
  303.218
  303.296
  303.348
  303.383
  303.41
  303.434
  303.455
  303.473
  303.487
  303.497
  303.504
  303.508
  303.509
  303.509
  303.507
  303.505
  303.502
  303.5
  303.498
  303.497
  303.497
  303.502
  303.511
  303.525
  303.546
  303.568
  303.591
  303.645
  297.073
  298.745
  299.948
  301.106
  301.937
  302.458
  302.807
  303.042
  303.197
  303.297
  303.362
  303.405
  303.436
  303.46
  303.479
  303.496
  303.509
  303.519
  303.527
  303.531
  303.533
  303.533
  303.532
  303.531
  303.529
  303.526
  303.524
  303.522
  303.52
  303.519
  303.519
  303.522
  303.527
  303.536
  303.549
  303.569
  303.596
  303.622
  299.592
  299.518
  299.513
  301.482
  302.404
  302.815
  303.034
  303.179
  303.283
  303.358
  303.411
  303.448
  303.474
  303.494
  303.508
  303.519
  303.527
  303.534
  303.538
  303.541
  303.542
  303.542
  303.541
  303.54
  303.539
  303.538
  303.536
  303.535
  303.534
  303.533
  303.532
  303.531
  303.531
  303.532
  303.534
  303.54
  303.548
  303.558
  303.621
  303.714
)
;

boundaryField
{
  floor
  {
    type wallHeatTransfer;
    Tinf uniform 305.2;
    alphaWall uniform 0.24;
    value nonuniform List<scalar> 29
(
  303.269
  303.504
  303.445
  303.406
  303.401
  303.41
  303.424
  303.444
  303.467
  303.489
  303.511
  303.532
  303.553
  303.573
  303.592
  303.61
  303.629
  303.651
  303.67
  303.716
  303.716
  303.64
  303.599
  303.577
  303.269
  303.504
  303.506
  303.344
  303.178
)
;
  }
  ceiling
  {
    type wallHeatTransfer;
    Tinf uniform 303.2;
    alphaWall uniform 0.24;
    value nonuniform List<scalar> 43
(
  299.847
  299.767
  299.756
  301.592
  302.458
  302.842
  303.046
  303.18
  303.276
  303.344
  303.39
  303.422
  303.444
  303.459
  303.47
  303.479
  303.485
  303.489
  303.491
  303.492
  303.491
  303.49
  303.489
  303.488
  303.487
  303.486
  303.486
  303.486
  303.486
  303.487
  303.488
  303.489
  303.491
  303.493
  303.497
  303.504
  303.511
  303.517
  303.571
  303.66
  304.801
  304.537
  297.457
)
;
  }
  sWall
  {
    type wallHeatTransfer;
    Tinf uniform 315.2;
    alphaWall uniform 0.36;
    value uniform 301.194;
  }
  nWall
  {
    type wallHeatTransfer;
    Tinf uniform 307.2;
    alphaWall uniform 0.36;
    value nonuniform List<scalar> 6
(
  304.078
  304.018
  303.937
  304.184
  304.157
  304.233
)
;
  }
  sideWalls
  {
    type empty;
  }
  glass1
  {
    type wallHeatTransfer;
    Tinf uniform 315.2;
    alphaWall uniform 4.3;
    value nonuniform List<scalar> 9
(
  311.352
  310.731
  310.343
  310.05
  309.806
  309.583
  309.415
  309.487
  309.714
)
;
  }
  glass2
  {
    type wallHeatTransfer;
    Tinf uniform 307.2;
    alphaWall uniform 4.3;
    value nonuniform List<scalar> 2
(
  305.793
  305.91
)
;
  }
  sun
  {
    type wallHeatTransfer;
    Tinf uniform 305.2;
    alphaWall uniform 0.24;
    value nonuniform List<scalar> 14
(
  303.496
  303.248
  303.233
  303.222
  303.212
  303.203
  303.193
  303.182
  303.171
  303.16
  303.154
  303.155
  303.167
  303.198
)
;
  }
  heatsource1
  {
    type fixedGradient;
    gradient uniform 0;
  }
  heatsource2
  {
    type fixedGradient;
    gradient uniform 0;
  }
  Table_master
  {
    type zeroGradient;
  }
  Table_slave
  {
    type zeroGradient;
  }
  inlet
  {
    type fixedValue;
    value uniform 293.15;
  }
  outlet
  {
    type zeroGradient;
  }
} 	// ************************************************************************* //

