/*--------------------------------*- C++ -*----------------------------------*\
  =========                 |
  \\      /  F ield         | OpenFOAM: The Open Source CFD Toolbox
   \\    /   O peration     | Website:  https://openfoam.org
    \\  /    A nd           | Version:  6
     \\/     M anipulation  |
\*---------------------------------------------------------------------------*/
FoamFile
{
    version     2.0;
    format      ascii;
    class       volScalarField;
    location    "1600";
    object      epsilon;
}
// * * * * * * * * * * * * * * * * * * * * * * * * * * * * * * * * * * * * * //

dimensions      [0 2 -3 0 0 0 0];

internalField   nonuniform List<scalar> 
459
(
0.000427699
0.000554303
0.000586305
0.000674303
0.000763343
0.00085422
0.000951411
0.00105082
0.00112461
0.00115394
0.00112256
0.00102461
0.000868201
0.00067765
0.000492161
3.54888e-05
6.04418e-05
8.72893e-05
8.99817e-05
8.2627e-05
7.26534e-05
6.00951e-05
4.88558e-05
3.99286e-05
3.29916e-05
2.75757e-05
2.33019e-05
1.9896e-05
1.71463e-05
1.48561e-05
1.2858e-05
1.09966e-05
9.92904e-06
7.61219e-06
0.00108061
0.0015793
0.000520381
0.00050356
0.000526103
0.000565626
0.000626493
0.00070736
0.000784705
0.000832901
0.000831609
0.000775124
0.000671948
0.000544456
0.000439312
0.000519514
0.000124704
4.02442e-05
9.50501e-05
0.000106087
9.95127e-05
8.68721e-05
7.42087e-05
6.80679e-05
5.50581e-05
4.34416e-05
3.42745e-05
2.72415e-05
2.18698e-05
1.77605e-05
1.46315e-05
1.23344e-05
1.09234e-05
1.03185e-05
2.62123e-05
1.78783e-05
0.0019684
0.00388272
0.000639216
0.000476785
0.000497496
0.000557985
0.000650292
0.000767747
0.000875971
0.000940539
0.000943877
0.00088717
0.000782082
0.000654327
0.000535693
0.000477504
0.000568352
0.000267302
0.000210129
0.000167519
0.000134557
0.000108897
9.33995e-05
0.000172635
0.000119437
8.53078e-05
6.29489e-05
4.78842e-05
3.74407e-05
3.00176e-05
2.46591e-05
2.08072e-05
1.58622e-05
1.32903e-05
4.93617e-05
2.84537e-05
0.00318695
0.00807823
0.00100804
0.00047877
0.000482288
0.00056714
0.000706373
0.000881875
0.00101943
0.00108585
0.00107745
0.00100531
0.00088022
0.00073364
0.000604504
0.000520719
0.000502304
0.000910941
0.000527422
0.000324814
0.000221729
0.000162539
0.000125549
0.00010832
0.000250619
0.000192066
0.000156506
0.000132635
0.000114256
9.86361e-05
8.4977e-05
7.19715e-05
5.85552e-05
3.47912e-05
2.24742e-05
8.17764e-05
3.92859e-05
0.00486412
0.0144482
0.0019928
0.000559299
0.000484633
0.000597285
0.000848144
0.00111145
0.0012579
0.00130072
0.00125962
0.00115271
0.000994379
0.000810766
0.000633604
0.000488978
0.000390721
0.000349839
0.000287906
0.00023151
0.000185985
0.00015013
0.000122268
0.00010293
9.94184e-05
9.29654e-05
8.67132e-05
8.04842e-05
7.37341e-05
6.63226e-05
5.88975e-05
5.18264e-05
4.53119e-05
3.63565e-05
2.78694e-05
5.87764e-05
4.53153e-05
7.4112e-05
0.000129953
0.000184138
0.00719954
0.0215165
0.00449806
0.00104417
0.000681258
0.000795597
0.00130079
0.00156685
0.00164449
0.00161772
0.00152153
0.00136387
0.00115209
0.000910979
0.000677112
0.000485303
0.000354263
0.000281283
0.000237315
0.000201871
0.00016923
0.000140634
0.000117464
0.000101027
9.27922e-05
8.94449e-05
8.77175e-05
8.55576e-05
8.1737e-05
7.53075e-05
6.61246e-05
5.6461e-05
4.75778e-05
3.96165e-05
3.43598e-05
4.48264e-05
4.68687e-05
5.72922e-05
0.00024019
0.00021074
0.00997962
0.0257692
0.0093876
0.00345321
0.00221605
0.00219499
0.00240304
0.00237853
0.00224821
0.00208029
0.00188223
0.00163901
0.00134635
0.00102915
0.000729629
0.000491919
0.000337218
0.000254342
0.000210385
0.000178731
0.000150652
0.000127024
0.000109466
9.88794e-05
9.53564e-05
9.67074e-05
9.99574e-05
0.000103323
0.000105571
0.000104995
9.83345e-05
8.71071e-05
7.58746e-05
6.63183e-05
6.24719e-05
6.97909e-05
8.91657e-05
0.000143014
0.000328419
0.000320426
0.0106619
0.0287121
0.0156127
0.00995372
0.00707287
0.00547093
0.0043372
0.00357495
0.00305732
0.00267279
0.00232805
0.00195998
0.00154948
0.00112949
0.000748317
0.000464038
0.00029587
0.000213718
0.000173989
0.000147198
0.000125754
0.000110095
0.000100761
9.76456e-05
0.00010004
0.000106538
0.000115827
0.00012748
0.000141575
0.00015802
0.000175778
0.0001872
0.000196894
0.00021796
0.000262166
0.000395464
0.000733996
0.00138717
0.00402512
0.00119387
0.0099091
0.0168683
0.0135341
0.0102231
0.00780188
0.00615193
0.00503769
0.0042772
0.0037295
0.00326549
0.00278602
0.00224457
0.00165243
0.00109622
0.00062024
0.000333334
0.000213422
0.000160215
0.000132179
0.000113418
0.000100432
9.28427e-05
9.04086e-05
9.26464e-05
9.89496e-05
0.000108819
0.000122235
0.000139898
0.000163195
0.000194163
0.000235536
0.00029132
0.000368149
0.000483826
0.000654491
0.000886094
0.00115063
0.00138085
0.00155853
0.000975763
0.00493798
0.00664075
0.00669064
0.00619996
0.0055268
0.00488372
0.00424194
0.00353677
0.00275663
0.00192331
0.00105652
0.000562528
0.000302118
0.000181445
0.000128768
0.000102816
8.80112e-05
7.88774e-05
7.35493e-05
7.15456e-05
7.25312e-05
7.61401e-05
8.21691e-05
9.06845e-05
0.00010212
0.000117334
0.000137697
0.000165277
0.000203324
0.000256801
0.000331125
0.000433556
0.000567573
0.000720526
0.000851374
0.000905577
0.000849645
0.000537762
0.00341132
0.00672751
0.00665202
0.00535576
0.00452745
0.00385212
0.00299951
0.00209729
0.00133416
0.000782054
0.000432186
0.000244605
0.000150317
0.000105941
8.48852e-05
7.40127e-05
6.80982e-05
6.51631e-05
6.44154e-05
6.54705e-05
6.80874e-05
7.22662e-05
7.81923e-05
8.61552e-05
9.66543e-05
0.000110501
0.000128964
0.000153995
0.000188339
0.000235629
0.000300819
0.000388888
0.000500436
0.000627046
0.000721101
0.000816395
0.000765403
0.000565849
0.00217036
0.00253464
0.00282887
0.00313431
0.00234073
0.00181758
0.00159837
0.00139355
0.0011276
0.000848237
0.000591287
0.000393969
0.000261244
0.00018041
0.000133786
0.000106259
8.89668e-05
7.77453e-05
7.07728e-05
6.71495e-05
6.62605e-05
6.76422e-05
7.10278e-05
7.64158e-05
8.3676e-05
9.29926e-05
0.000104767
0.000119606
0.000138445
0.000162832
0.000193592
0.000232274
0.000281204
0.000343319
0.000421441
0.000530323
0.000567814
0.000525037
0.000431009
0.000343744
)
;

boundaryField
{
    floor
    {
        Cmu             0.09;
        kappa           0.41;
        E               9.8;
        type            epsilonWallFunction;
        value           nonuniform List<scalar> 
29
(
0.000492161
3.54888e-05
6.04418e-05
8.72893e-05
8.99817e-05
8.2627e-05
7.26534e-05
6.00951e-05
4.88558e-05
3.99286e-05
3.29916e-05
2.75757e-05
2.33019e-05
1.9896e-05
1.71463e-05
1.48561e-05
1.2858e-05
1.09966e-05
9.92904e-06
7.61219e-06
7.61219e-06
1.78783e-05
2.84537e-05
3.92859e-05
0.000492161
3.54888e-05
4.02442e-05
0.000267302
0.000910941
)
;
    }
    ceiling
    {
        Cmu             0.09;
        kappa           0.41;
        E               9.8;
        type            epsilonWallFunction;
        value           nonuniform List<scalar> 
43
(
0.00217036
0.00253464
0.00282887
0.00313431
0.00234073
0.00181758
0.00159837
0.00139355
0.0011276
0.000848237
0.000591287
0.000393969
0.000261244
0.00018041
0.000133786
0.000106259
8.89668e-05
7.77453e-05
7.07728e-05
6.71495e-05
6.62605e-05
6.76422e-05
7.10278e-05
7.64158e-05
8.3676e-05
9.29926e-05
0.000104767
0.000119606
0.000138445
0.000162832
0.000193592
0.000232274
0.000281204
0.000343319
0.000421441
0.000530323
0.000567814
0.000525037
0.000431009
0.000343744
0.0099091
0.0168683
0.00341132
)
;
    }
    sWall
    {
        Cmu             0.09;
        kappa           0.41;
        E               9.8;
        type            epsilonWallFunction;
        value           uniform 0.00217036;
    }
    nWall
    {
        Cmu             0.09;
        kappa           0.41;
        E               9.8;
        type            epsilonWallFunction;
        value           nonuniform List<scalar> 6(0.000184138 0.00021074 0.000320426 0.000537762 0.000565849 0.000343744);
    }
    sideWalls
    {
        type            empty;
    }
    glass1
    {
        Cmu             0.09;
        kappa           0.41;
        E               9.8;
        type            epsilonWallFunction;
        value           nonuniform List<scalar> 9(0.000427699 0.00108061 0.0019684 0.00318695 0.00486412 0.00719954 0.00997962 0.0106619 0.0099091);
    }
    glass2
    {
        Cmu             0.09;
        kappa           0.41;
        E               9.8;
        type            epsilonWallFunction;
        value           nonuniform List<scalar> 2(0.00119387 0.000975763);
    }
    sun
    {
        Cmu             0.09;
        kappa           0.41;
        E               9.8;
        type            epsilonWallFunction;
        value           nonuniform List<scalar> 
14
(
0.000427699
0.000554303
0.000586305
0.000674303
0.000763343
0.00085422
0.000951411
0.00105082
0.00112461
0.00115394
0.00112256
0.00102461
0.000868201
0.00067765
)
;
    }
    heatsource1
    {
        Cmu             0.09;
        kappa           0.41;
        E               9.8;
        type            epsilonWallFunction;
        value           nonuniform List<scalar> 3(7.4112e-05 0.000129953 0.000184138);
    }
    heatsource2
    {
        Cmu             0.09;
        kappa           0.41;
        E               9.8;
        type            epsilonWallFunction;
        value           nonuniform List<scalar> 4(0.000519514 0.000124704 0.000124704 0.000568352);
    }
    Table_master
    {
        Cmu             0.09;
        kappa           0.41;
        E               9.8;
        type            epsilonWallFunction;
        value           nonuniform List<scalar> 9(0.000172635 0.000119437 8.53078e-05 6.29489e-05 4.78842e-05 3.74407e-05 3.00176e-05 2.46591e-05 2.08072e-05);
    }
    Table_slave
    {
        Cmu             0.09;
        kappa           0.41;
        E               9.8;
        type            epsilonWallFunction;
        value           nonuniform List<scalar> 9(0.000250619 0.000192066 0.000156506 0.000132635 0.000114256 9.86361e-05 8.4977e-05 7.19715e-05 5.85552e-05);
    }
    inlet
    {
        type            turbulentMixingLengthDissipationRateInlet;
        mixingLength    0.01;
        phi             phi;
        k               k;
        value           uniform 0.000101881;
    }
    outlet
    {
        type            zeroGradient;
    }
}


// ************************************************************************* //
