/*--------------------------------*- C++ -*----------------------------------*\
  =========                 |
  \\      /  F ield         | OpenFOAM: The Open Source CFD Toolbox
   \\    /   O peration     | Website:  https://openfoam.org
    \\  /    A nd           | Version:  6
     \\/     M anipulation  |
\*---------------------------------------------------------------------------*/
FoamFile
{
    version     2.0;
    format      ascii;
    class       volScalarField;
    location    "600";
    object      alphat;
}
// * * * * * * * * * * * * * * * * * * * * * * * * * * * * * * * * * * * * * //

dimensions      [1 -1 -1 0 0 0 0];

internalField   nonuniform List<scalar> 
459
(
0.0014086
0.00155477
0.00160284
0.00168903
0.00177404
0.00186294
0.00193987
0.00198866
0.00199873
0.00196352
0.00187225
0.0016808
0.00149913
0.00129546
0.00110549
0.000619013
0.000725839
0.000850725
0.000923098
0.000932185
0.000909712
0.000853308
0.000792742
0.00073808
0.000690404
0.000648935
0.000612757
0.000580889
0.000552671
0.000527011
0.00050253
0.000477261
0.00045246
0.000409569
0.00185568
0.00474503
0.00464509
0.0053953
0.00613358
0.00671875
0.0072062
0.00762311
0.00793102
0.00809627
0.008065
0.00773516
0.00709618
0.00584329
0.00388791
0.00134762
0.00108097
0.000608377
0.00151254
0.0024233
0.00318431
0.00364882
0.00359918
0.00252019
0.00208039
0.00179661
0.00159224
0.00143757
0.0013164
0.00121994
0.00113079
0.0010367
0.00094622
0.000866065
0.000923326
0.00047648
0.0022201
0.00643315
0.0057354
0.00666142
0.00710997
0.00744981
0.00777684
0.0081365
0.00852578
0.00890348
0.00915433
0.00914819
0.00886633
0.00820362
0.00673928
0.00436053
0.00131733
0.000809274
0.00160517
0.0026318
0.00374686
0.00454902
0.00436695
0.00116645
0.00101329
0.000889853
0.000791253
0.000712126
0.000648055
0.000595729
0.000553744
0.000522441
0.000587334
0.000702546
0.00105908
0.000522855
0.00256317
0.00799369
0.00588054
0.00687363
0.0070319
0.00716516
0.00735531
0.00765811
0.00809663
0.00860767
0.00899678
0.00917403
0.00913081
0.00883779
0.00806921
0.00652616
0.00352196
0.0014811
0.00175756
0.00258101
0.00382628
0.00509735
0.00595681
0.00556242
0.00132665
0.00120041
0.00110381
0.0010253
0.000957322
0.000893791
0.000830735
0.000764939
0.0006911
0.000633832
0.000684974
0.00120997
0.000559341
0.00290892
0.00995837
0.00645878
0.00701156
0.00710233
0.00706217
0.00710592
0.00735273
0.00781578
0.00835078
0.00877961
0.00898682
0.00897475
0.00880356
0.00843944
0.00770477
0.00634996
0.0055551
0.0059396
0.00664722
0.00743846
0.00806029
0.00834959
0.00807617
0.00655906
0.00574333
0.00520299
0.00472266
0.00420344
0.00363998
0.00303673
0.00241043
0.00179254
0.0012608
0.000975708
0.00117446
0.000705149
0.00066494
0.000803716
0.000904018
0.0032741
0.0121378
0.00854477
0.00769126
0.00763611
0.00729873
0.00713853
0.00730261
0.00777005
0.00834374
0.00878944
0.00896659
0.00890445
0.00875852
0.00866779
0.00863035
0.00851223
0.00871686
0.00936007
0.0099033
0.0102305
0.0102981
0.0101062
0.00963921
0.00883535
0.00806106
0.00735186
0.00664562
0.00591961
0.00516001
0.00436353
0.00353882
0.00271944
0.00198188
0.00149357
0.00129399
0.000977806
0.000856417
0.0012334
0.000945973
0.00359564
0.0136028
0.0114687
0.00951139
0.00846973
0.00758611
0.00722377
0.00739403
0.0079427
0.00859115
0.00905424
0.00919248
0.00910644
0.00910491
0.0094673
0.0100182
0.0105278
0.011085
0.0116043
0.0117919
0.0116854
0.0113364
0.0107996
0.0101146
0.00930281
0.00849558
0.00772012
0.00696852
0.00622113
0.00548316
0.00475814
0.00403491
0.00331399
0.00262118
0.00210315
0.00175043
0.00146015
0.00140863
0.00146003
0.00110596
0.00365224
0.0116863
0.0105789
0.00921707
0.00788646
0.00712517
0.00705213
0.00754915
0.00835636
0.00912121
0.00955705
0.00961942
0.00959861
0.0100994
0.0109114
0.0114811
0.0119075
0.0122461
0.0123956
0.0122259
0.0117648
0.0110895
0.0102688
0.00935535
0.00840503
0.00750075
0.0066637
0.00589147
0.0052165
0.00467273
0.00425597
0.00389609
0.00352261
0.00311212
0.00285064
0.00279084
0.00299454
0.00353789
0.00435059
0.00168872
0.00355357
0.00419628
0.00460499
0.00471853
0.00500737
0.00574173
0.00686313
0.00815849
0.00931768
0.0100031
0.0101103
0.0100563
0.0104911
0.0111036
0.0115844
0.0118488
0.0119761
0.0119552
0.0117075
0.0111894
0.0104352
0.00951174
0.00848267
0.00741726
0.00638926
0.00544714
0.00462256
0.00394247
0.00342007
0.00305195
0.00281206
0.00266738
0.00258456
0.00254654
0.00254718
0.00256564
0.00254376
0.00243288
0.00226785
0.00157997
0.00174954
0.00356764
0.00674602
0.0089733
0.0103513
0.0110472
0.0111696
0.0107769
0.0102122
0.0100554
0.010345
0.0106054
0.0106869
0.0106392
0.0104679
0.0101159
0.00953832
0.00874903
0.00781947
0.00684354
0.00590573
0.00506567
0.004351
0.00376496
0.00330461
0.00296392
0.00273008
0.0025863
0.00251506
0.00250026
0.00252695
0.00258049
0.00264126
0.002678
0.00265389
0.0025707
0.00237527
0.00134657
0.00234499
0.0070288
0.00969591
0.0106428
0.010534
0.00991501
0.00914367
0.0085023
0.00811208
0.00792658
0.00781142
0.00768354
0.0075474
0.00738332
0.00714081
0.00677499
0.00628196
0.00570821
0.00512723
0.00460243
0.00416506
0.00381636
0.00354096
0.00331946
0.00313527
0.00297724
0.00284149
0.00273187
0.00265747
0.0026274
0.0026442
0.00269764
0.00276293
0.00281649
0.00277869
0.00283375
0.0028966
0.00137964
0.00225359
0.00224758
0.00228988
0.00243042
0.00224903
0.00211527
0.00198958
0.00184071
0.00168651
0.00154923
0.00144211
0.00136836
0.00131976
0.00128599
0.00125878
0.00123187
0.00120107
0.00116483
0.00112465
0.00108388
0.00104597
0.00101297
0.000985381
0.000962664
0.000944152
0.000929699
0.000920028
0.00091667
0.000921591
0.000936657
0.000963229
0.00100211
0.00105367
0.00111755
0.00119193
0.00127741
0.00129276
0.00124226
0.0011774
0.00110553
)
;

boundaryField
{
    floor
    {
        type            compressible::alphatWallFunction;
        Prt             0.85;
        value           nonuniform List<scalar> 
29
(
0.000157058
8.72204e-05
0.000102993
0.000121084
0.000131423
0.000132716
0.000129522
0.000121461
0.000112733
0.000104788
9.7801e-05
9.16758e-05
8.62931e-05
8.15195e-05
7.72655e-05
7.3374e-05
6.96391e-05
6.576e-05
6.19273e-05
5.52352e-05
5.52345e-05
6.56384e-05
7.27395e-05
7.82713e-05
0.000157056
8.72194e-05
8.5631e-05
0.0001151
0.000208425
)
;
    }
    ceiling
    {
        type            compressible::alphatWallFunction;
        Prt             0.85;
        value           nonuniform List<scalar> 
43
(
0.000309987
0.000309095
0.000314519
0.000332652
0.00030947
0.000292224
0.000275903
0.000256421
0.000236059
0.000217759
0.000203356
0.000193371
0.000186759
0.000182148
0.000178424
0.00017473
0.00017049
0.000165486
0.000159914
0.000154238
0.000148936
0.000144304
0.000140416
0.000137205
0.000134582
0.000132528
0.000131152
0.000130671
0.000131368
0.000133505
0.000137267
0.00014275
0.000149987
0.000158896
0.000169197
0.000180947
0.000183047
0.000176126
0.00016719
0.000157229
0.000473124
0.00055124
0.000321368
)
;
    }
    sWall
    {
        type            compressible::alphatWallFunction;
        Prt             0.85;
        value           uniform 0.00030884;
    }
    nWall
    {
        type            compressible::alphatWallFunction;
        Prt             0.85;
        value           nonuniform List<scalar> 6(0.000128525 0.00013448 0.000156935 0.000190078 0.000194571 0.000156915);
    }
    sideWalls
    {
        type            empty;
    }
    glass1
    {
        type            compressible::alphatWallFunction;
        Prt             0.85;
        value           nonuniform List<scalar> 9(0.000193852 0.00025266 0.000299562 0.000343045 0.000386308 0.000431465 0.000470841 0.000477872 0.000466094);
    }
    glass2
    {
        type            compressible::alphatWallFunction;
        Prt             0.85;
        value           nonuniform List<scalar> 2(0.000234687 0.000220353);
    }
    sun
    {
        type            compressible::alphatWallFunction;
        Prt             0.85;
        value           nonuniform List<scalar> 
14
(
0.000198662
0.000218331
0.000224758
0.00023623
0.000247482
0.000259187
0.000269264
0.000275633
0.000276943
0.000272347
0.00026039
0.00023513
0.000210857
0.000183253
)
;
    }
    heatsource1
    {
        type            compressible::alphatWallFunction;
        Prt             0.85;
        value           nonuniform List<scalar> 3(9.4146e-05 0.000114425 0.000128818);
    }
    heatsource2
    {
        type            compressible::alphatWallFunction;
        Prt             0.85;
        value           nonuniform List<scalar> 4(0.000190509 0.000153778 0.000153776 0.000186374);
    }
    Table_master
    {
        type            compressible::alphatWallFunction;
        Prt             0.85;
        value           nonuniform List<scalar> 9(0.000165657 0.000144296 0.000126806 0.00011263 0.000101101 9.16521e-05 8.38503e-05 7.75293e-05 7.27779e-05);
    }
    Table_slave
    {
        type            compressible::alphatWallFunction;
        Prt             0.85;
        value           nonuniform List<scalar> 9(0.000187661 0.000170352 0.000156966 0.000145986 0.000136401 0.00012737 0.000118332 0.000108813 9.80118e-05);
    }
    inlet
    {
        type            fixedValue;
        value           uniform 1.94e-05;
    }
    outlet
    {
        type            zeroGradient;
    }
}


// ************************************************************************* //
