// -*- C++ -*-
// File generated by PyFoam - sorry for the ugliness

FoamFile
{
 version 2.0;
 format ascii;
 class volVectorField;
 location "100";
 object U;
}

dimensions [ 0 1 -1 0 0 0 0 ];

internalField nonuniform List<vector> 459
(
  (-0.000124077 0.0909655 0)
  (-0.189603 0.0240225 0)
  (-0.216751 -0.000964527 0)
  (-0.220883 -0.0216368 0)
  (-0.189506 -0.0455505 0)
  (-0.127575 -0.0723765 0)
  (-0.0460716 -0.0930191 0)
  (0.0639873 -0.0747919 0)
  (0.126357 -0.0539115 0)
  (0.174037 -0.0355311 0)
  (0.2014 -0.0202144 0)
  (0.207922 -0.00677182 0)
  (0.193421 0.00812448 0)
  (0.154984 0.0311013 0)
  (0.116604 0.0842655 0)
  (-0.0427439 0.017563 0)
  (-0.0557249 -0.0104848 0)
  (-0.0330492 -0.030064 0)
  (-0.00242623 -0.0374432 0)
  (0.0333461 -0.0308817 0)
  (0.0601399 -0.0222088 0)
  (0.0793476 -0.0131349 0)
  (0.091166 -0.00818584 0)
  (0.0973207 -0.00622251 0)
  (0.100785 -0.00534511 0)
  (0.103317 -0.0047314 0)
  (0.105303 -0.00417898 0)
  (0.106595 -0.0035474 0)
  (0.106703 -0.00253709 0)
  (0.104519 -0.000528119 0)
  (0.0979542 0.00337028 0)
  (0.0845656 0.00852259 0)
  (0.0625107 0.0160421 0)
  (0.0337183 0.0304761 0)
  (0.158942 0.193186 0)
  (-0.162872 0.0833411 0)
  (-0.169764 0.036767 0)
  (-0.177753 -0.00847818 0)
  (-0.15242 -0.0619177 0)
  (-0.0992439 -0.114647 0)
  (-0.0315576 -0.143702 0)
  (0.0449162 -0.121443 0)
  (0.0988129 -0.0852991 0)
  (0.139295 -0.0507852 0)
  (0.162909 -0.0202777 0)
  (0.171283 0.00724835 0)
  (0.166911 0.0337896 0)
  (0.155425 0.0637573 0)
  (0.148585 0.10696 0)
  (0.140277 0.0970438 0)
  (0.0873566 0.0847424 0)
  (-0.00587732 0.0503212 0)
  (-0.00583679 -0.00321415 0)
  (0.0312908 -0.0469523 0)
  (0.0485381 -0.0527218 0)
  (0.0667159 -0.0452946 0)
  (0.0823391 -0.0326728 0)
  (0.0899469 -0.0157091 0)
  (0.0922641 -0.00555799 0)
  (0.0926297 -0.00171592 0)
  (0.093058 -0.000292663 0)
  (0.0936501 0.000487314 0)
  (0.0941233 0.00112541 0)
  (0.0944093 0.00206311 0)
  (0.0943751 0.0040083 0)
  (0.0931233 0.00823833 0)
  (0.0870224 0.0184413 0)
  (0.0725859 0.0288123 0)
  (0.05038 0.0412515 0)
  (0.015917 0.0614624 0)
  (0.301346 0.287207 0)
  (-0.162635 0.127382 0)
  (-0.130075 0.0570921 0)
  (-0.139553 -0.0163666 0)
  (-0.116267 -0.0993489 0)
  (-0.0684162 -0.175202 0)
  (-0.013505 -0.206286 0)
  (0.0399979 -0.177561 0)
  (0.0825668 -0.129037 0)
  (0.114054 -0.0799338 0)
  (0.132345 -0.0363544 0)
  (0.139935 0.0017363 0)
  (0.139629 0.036689 0)
  (0.135767 0.0704953 0)
  (0.132741 0.103466 0)
  (0.119339 0.106027 0)
  (0.0928286 0.135772 0)
  (0.0417606 0.00379796 0)
  (0.075357 -0.0466728 0)
  (0.0888059 -0.0666559 0)
  (0.0954747 -0.0676165 0)
  (0.101298 -0.0578003 0)
  (0.107315 -0.0458547 0)
  (0.105093 -0.0349727 0)
  (0.0921961 -0.0226094 0)
  (0.0822486 -0.0158388 0)
  (0.0772582 -0.0119781 0)
  (0.0744767 -0.00946326 0)
  (0.0723438 -0.00768151 0)
  (0.070775 -0.00614879 0)
  (0.07083 -0.00399577 0)
  (0.0750396 0.00185342 0)
  (0.0723273 0.0259878 0)
  (0.0567502 0.0440784 0)
  (0.0387377 0.0632432 0)
  (-0.000961473 0.0921585 0)
  (0.42755 0.3622 0)
  (-0.178021 0.166182 0)
  (-0.0935961 0.0781253 0)
  (-0.100192 -0.0205059 0)
  (-0.0727319 -0.133411 0)
  (-0.0292736 -0.227434 0)
  (0.0110821 -0.255029 0)
  (0.0454133 -0.221069 0)
  (0.0743472 -0.161909 0)
  (0.0944184 -0.100058 0)
  (0.104815 -0.0458426 0)
  (0.108464 -0.000746078 0)
  (0.108574 0.0373279 0)
  (0.109256 0.0703734 0)
  (0.11537 0.0998408 0)
  (0.128007 0.116803 0)
  (0.149444 0.147282 0)
  (0.18767 0.112532 0)
  (0.165778 0.0331204 0)
  (0.155128 -0.0244338 0)
  (0.144407 -0.0548664 0)
  (0.132794 -0.0617349 0)
  (0.122562 -0.0545875 0)
  (0.113923 -0.0403863 0)
  (0.113191 -0.0228368 0)
  (0.120382 -0.0130714 0)
  (0.12233 -0.00711322 0)
  (0.117709 -0.00309844 0)
  (0.109232 -1.73055e-05 0)
  (0.0983793 0.00263566 0)
  (0.0851824 0.00529615 0)
  (0.0686922 0.00863603 0)
  (0.0411391 0.0140888 0)
  (0.031783 0.0406711 0)
  (0.029174 0.0576189 0)
  (0.0281862 0.078723 0)
  (-0.0137022 0.117534 0)
  (0.536684 0.419611 0)
  (-0.200804 0.196723 0)
  (-0.0596494 0.0911403 0)
  (-0.0518302 -0.0287915 0)
  (-0.0147693 -0.167789 0)
  (0.0209227 -0.26726 0)
  (0.0425178 -0.285388 0)
  (0.0588551 -0.246822 0)
  (0.0707451 -0.179429 0)
  (0.0763488 -0.108281 0)
  (0.0761952 -0.047672 0)
  (0.0734031 -0.000138919 0)
  (0.0726245 0.0365927 0)
  (0.0769893 0.0653482 0)
  (0.0893219 0.0883131 0)
  (0.109293 0.100261 0)
  (0.137447 0.100074 0)
  (0.159631 0.0420617 0)
  (0.162155 -0.00738954 0)
  (0.155908 -0.03571 0)
  (0.143113 -0.0487038 0)
  (0.126845 -0.0497704 0)
  (0.110872 -0.0423087 0)
  (0.097381 -0.0289748 0)
  (0.0890031 -0.0105296 0)
  (0.0839472 0.00174964 0)
  (0.0776891 0.00862107 0)
  (0.0696318 0.0127545 0)
  (0.0605707 0.0158481 0)
  (0.0509556 0.0187293 0)
  (0.040694 0.0220171 0)
  (0.0299154 0.0264339 0)
  (0.015866 0.0325125 0)
  (0.00921859 0.0456313 0)
  (0.0144258 0.0585018 0)
  (0.0334372 0.0788939 0)
  (0.0277775 0.114027 0)
  (0.0611531 0.0683923 0)
  (0.0965452 0.0294675 0)
  (-0.228061 0.0290159 0)
  (0.62431 0.464083 0)
  (-0.226365 0.21314 0)
  (-0.0258876 0.0833522 0)
  (0.0178185 -0.0669278 0)
  (0.0584065 -0.207562 0)
  (0.0783506 -0.287837 0)
  (0.0821718 -0.2976 0)
  (0.0774703 -0.252837 0)
  (0.0681375 -0.178754 0)
  (0.0559701 -0.101869 0)
  (0.0432008 -0.0395374 0)
  (0.0330776 0.00514145 0)
  (0.0319297 0.0351208 0)
  (0.0388755 0.0560081 0)
  (0.0535604 0.0701569 0)
  (0.0740392 0.0737907 0)
  (0.0998432 0.0633921 0)
  (0.11901 0.0282773 0)
  (0.124107 -0.00113028 0)
  (0.11819 -0.0206156 0)
  (0.105215 -0.0307067 0)
  (0.0891783 -0.0319427 0)
  (0.0729712 -0.0261915 0)
  (0.0584953 -0.0154986 0)
  (0.046911 -0.00172386 0)
  (0.038081 0.00883425 0)
  (0.0310405 0.0151937 0)
  (0.0240893 0.0192833 0)
  (0.017117 0.0226247 0)
  (0.0102306 0.0260073 0)
  (0.00370777 0.0299536 0)
  (-0.00146447 0.0348782 0)
  (-0.00540923 0.0394921 0)
  (-0.00413131 0.0424373 0)
  (0.00714269 0.0476267 0)
  (0.0305884 0.0629851 0)
  (0.0441363 0.0792902 0)
  (0.0662883 0.0321845 0)
  (0.104983 0.0219385 0)
  (-0.166423 0.0550707 0)
  (0.717112 0.502385 0)
  (-0.233147 0.189963 0)
  (0.0302448 0.00242405 0)
  (0.113813 -0.135325 0)
  (0.146768 -0.241175 0)
  (0.147179 -0.294909 0)
  (0.126967 -0.287628 0)
  (0.0952589 -0.234328 0)
  (0.0599164 -0.156003 0)
  (0.0276094 -0.0785001 0)
  (0.00306635 -0.0212115 0)
  (-0.00990806 0.0128911 0)
  (-0.00922703 0.031509 0)
  (-0.000710271 0.0439579 0)
  (0.0144843 0.0513633 0)
  (0.0334984 0.0511157 0)
  (0.0542277 0.0415932 0)
  (0.0678067 0.0210578 0)
  (0.0702132 0.00187314 0)
  (0.0644669 -0.0112519 0)
  (0.0526517 -0.0173241 0)
  (0.0381506 -0.0168755 0)
  (0.0233133 -0.0113311 0)
  (0.0095944 -0.00224469 0)
  (-0.00156757 0.00830921 0)
  (-0.00830489 0.0161906 0)
  (-0.013271 0.0212678 0)
  (-0.0175771 0.0249082 0)
  (-0.0214198 0.0280013 0)
  (-0.0245504 0.0309314 0)
  (-0.026184 0.0337048 0)
  (-0.0248631 0.0358605 0)
  (-0.0199669 0.0359821 0)
  (-0.0113211 0.0324807 0)
  (0.00324343 0.0299137 0)
  (0.024032 0.0393401 0)
  (0.0459032 0.0451421 0)
  (0.0747076 0.0150369 0)
  (0.124373 0.0258012 0)
  (-0.0942396 0.100569 0)
  (0.83888 0.48085 0)
  (0.012476 0.157716 0)
  (0.161746 -0.071581 0)
  (0.259117 -0.184924 0)
  (0.26317 -0.249509 0)
  (0.224568 -0.270694 0)
  (0.165855 -0.244766 0)
  (0.0985972 -0.185349 0)
  (0.0331693 -0.108106 0)
  (-0.0172001 -0.0376208 0)
  (-0.0426483 -0.000873337 0)
  (-0.0508604 0.0165034 0)
  (-0.0484463 0.0258255 0)
  (-0.0400389 0.0318595 0)
  (-0.0272418 0.035069 0)
  (-0.0122885 0.0340594 0)
  (0.00223481 0.0276402 0)
  (0.0102227 0.0158777 0)
  (0.0100406 0.0047765 0)
  (0.00431257 -0.00259121 0)
  (-0.00595661 -0.00505858 0)
  (-0.0181192 -0.00304886 0)
  (-0.0300335 0.0020173 0)
  (-0.0396314 0.00856237 0)
  (-0.0458014 0.0150918 0)
  (-0.0493166 0.0203601 0)
  (-0.0513487 0.0243091 0)
  (-0.0524782 0.0273041 0)
  (-0.0527443 0.0295532 0)
  (-0.0517733 0.0309253 0)
  (-0.0486981 0.0308521 0)
  (-0.0422084 0.0283016 0)
  (-0.0318226 0.0220612 0)
  (-0.0192311 0.0121306 0)
  (-0.00693187 0.0033743 0)
  (0.00570933 0.00696066 0)
  (0.0163907 0.0103398 0)
  (0.0318183 0.00154942 0)
  (0.0174003 0.0879955 0)
  (-0.423159 0.168059 0)
  (1.01259 0.408554 0)
  (0.480395 0.258508 0)
  (0.481584 0.114762 0)
  (0.456597 -0.0452672 0)
  (0.376603 -0.148345 0)
  (0.270614 -0.18214 0)
  (0.160012 -0.158218 0)
  (0.0563879 -0.10402 0)
  (-0.0344791 -0.0353916 0)
  (-0.0749866 -0.000768075 0)
  (-0.0902509 0.0122107 0)
  (-0.0925496 0.0176181 0)
  (-0.0887713 0.0206356 0)
  (-0.0814327 0.0228149 0)
  (-0.0719842 0.0239251 0)
  (-0.0620736 0.0231115 0)
  (-0.0537786 0.0198956 0)
  (-0.0499022 0.014545 0)
  (-0.0511388 0.00939134 0)
  (-0.056174 0.00621021 0)
  (-0.0632692 0.00569923 0)
  (-0.0705294 0.00737749 0)
  (-0.0766477 0.0104838 0)
  (-0.0808305 0.0143089 0)
  (-0.0828086 0.0182217 0)
  (-0.0829523 0.0216217 0)
  (-0.0818172 0.024306 0)
  (-0.0797619 0.0262332 0)
  (-0.0769642 0.027283 0)
  (-0.0735914 0.0271486 0)
  (-0.0699872 0.0253368 0)
  (-0.0671549 0.0214953 0)
  (-0.0681601 0.0167498 0)
  (-0.0773755 0.015608 0)
  (-0.0936619 0.022653 0)
  (-0.112753 0.0370093 0)
  (-0.139322 0.0540979 0)
  (-0.177412 0.0656211 0)
  (-0.236931 0.0628674 0)
  (-0.435269 0.0214181 0)
  (0.0791343 -0.0246362 0)
  (0.173544 -0.0991084 0)
  (0.159626 -0.128453 0)
  (0.0788599 -0.10695 0)
  (-0.0206721 -0.049501 0)
  (-0.0908893 -0.00506084 0)
  (-0.127182 0.0149834 0)
  (-0.137757 0.0193549 0)
  (-0.139039 0.0192589 0)
  (-0.136269 0.0186217 0)
  (-0.131442 0.0185277 0)
  (-0.125449 0.0189973 0)
  (-0.118939 0.0195775 0)
  (-0.112743 0.0197062 0)
  (-0.107937 0.0190494 0)
  (-0.105629 0.0176691 0)
  (-0.105988 0.016385 0)
  (-0.108226 0.0159653 0)
  (-0.111168 0.0168021 0)
  (-0.113691 0.0187615 0)
  (-0.115047 0.0214853 0)
  (-0.11486 0.0245938 0)
  (-0.113064 0.0277528 0)
  (-0.109859 0.0306494 0)
  (-0.105554 0.0330917 0)
  (-0.100441 0.0349817 0)
  (-0.0948251 0.0362724 0)
  (-0.0891071 0.0369776 0)
  (-0.0838603 0.0372046 0)
  (-0.0798872 0.0371304 0)
  (-0.0781837 0.036992 0)
  (-0.0790589 0.037803 0)
  (-0.0806965 0.0427214 0)
  (-0.0804299 0.0555375 0)
  (-0.0777919 0.0745401 0)
  (-0.0715034 0.0867424 0)
  (-0.0650711 0.0662791 0)
  (-0.0577646 -0.170792 0)
  (0.19572 0.0606606 0)
  (-0.0230921 -0.0180542 0)
  (-0.0681939 -0.0475435 0)
  (-0.131764 -0.0393303 0)
  (-0.174645 -0.0262508 0)
  (-0.191277 -0.021657 0)
  (-0.193175 -0.0216255 0)
  (-0.190032 -0.024893 0)
  (-0.185509 -0.0281119 0)
  (-0.180647 -0.0299005 0)
  (-0.175595 -0.0302778 0)
  (-0.170299 -0.0298293 0)
  (-0.164792 -0.0292805 0)
  (-0.159334 -0.0293272 0)
  (-0.154392 -0.0305065 0)
  (-0.150474 -0.0330539 0)
  (-0.147732 -0.0366852 0)
  (-0.145884 -0.0408607 0)
  (-0.144379 -0.0450131 0)
  (-0.142636 -0.0487579 0)
  (-0.140199 -0.0519185 0)
  (-0.136783 -0.0544995 0)
  (-0.132275 -0.0566433 0)
  (-0.126722 -0.0585669 0)
  (-0.120276 -0.0604362 0)
  (-0.113146 -0.0623251 0)
  (-0.10558 -0.0642265 0)
  (-0.0978405 -0.0660346 0)
  (-0.0901792 -0.0674752 0)
  (-0.0827959 -0.0680254 0)
  (-0.0756997 -0.0667895 0)
  (-0.0680529 -0.0621486 0)
  (-0.057152 -0.0518431 0)
  (-0.0392989 -0.0353173 0)
  (-0.0140498 -0.0178605 0)
  (0.026011 -0.028744 0)
  (0.0834845 -0.102788 0)
  (-0.0124856 -0.162582 0)
  (-0.0779298 -0.29676 0)
  (-0.374266 -0.0948152 0)
  (-0.312473 0.0911217 0)
  (-0.308572 0.0971467 0)
  (-0.287625 0.108249 0)
  (-0.282676 0.117491 0)
  (-0.275558 0.126083 0)
  (-0.265149 0.132564 0)
  (-0.253929 0.137126 0)
  (-0.244289 0.140557 0)
  (-0.236828 0.143009 0)
  (-0.230951 0.144733 0)
  (-0.225753 0.14627 0)
  (-0.220452 0.148251 0)
  (-0.214556 0.151228 0)
  (-0.207914 0.155598 0)
  (-0.200693 0.161567 0)
  (-0.193252 0.1691 0)
  (-0.185917 0.17789 0)
  (-0.178833 0.187423 0)
  (-0.171955 0.19712 0)
  (-0.165116 0.206511 0)
  (-0.158098 0.215336 0)
  (-0.150694 0.223549 0)
  (-0.142758 0.231252 0)
  (-0.134233 0.238589 0)
  (-0.125149 0.245671 0)
  (-0.115583 0.252568 0)
  (-0.10562 0.259338 0)
  (-0.0953232 0.26602 0)
  (-0.0847106 0.272558 0)
  (-0.0737306 0.278692 0)
  (-0.0621773 0.283805 0)
  (-0.0495147 0.28685 0)
  (-0.0350231 0.286985 0)
  (-0.0186274 0.285893 0)
  (0.00159433 0.287036 0)
  (0.0268211 0.29969 0)
  (0.0601248 0.353213 0)
  (-0.140197 0.40433 0)
)
;

boundaryField
{
  floor
  {
    type noSlip;
  }
  ceiling
  {
    type noSlip;
  }
  sWall
  {
    type noSlip;
  }
  nWall
  {
    type noSlip;
  }
  sideWalls
  {
    type empty;
  }
  glass1
  {
    type noSlip;
  }
  glass2
  {
    type noSlip;
  }
  sun
  {
    type noSlip;
  }
  heatsource1
  {
    type noSlip;
  }
  heatsource2
  {
    type noSlip;
  }
  Table_master
  {
    type noSlip;
  }
  Table_slave
  {
    type noSlip;
  }
  inlet
  {
    type fixedValue;
    value uniform (0.3 0 0);
  }
  outlet
  {
    type zeroGradient;
  }
} 	// ************************************************************************* //

