/*--------------------------------*- C++ -*----------------------------------*\
  =========                 |
  \\      /  F ield         | OpenFOAM: The Open Source CFD Toolbox
   \\    /   O peration     | Website:  https://openfoam.org
    \\  /    A nd           | Version:  6
     \\/     M anipulation  |
\*---------------------------------------------------------------------------*/
FoamFile
{
    version     2.0;
    format      ascii;
    class       volScalarField;
    location    "800";
    object      nut;
}
// * * * * * * * * * * * * * * * * * * * * * * * * * * * * * * * * * * * * * //

dimensions      [0 2 -1 0 0 0 0];

internalField   nonuniform List<scalar> 
459
(
0.0010881
0.00118846
0.00121283
0.00127158
0.00132638
0.00137858
0.00143126
0.00147858
0.0015097
0.00151793
0.00149743
0.00144427
0.00135499
0.00122841
0.00107559
0.000472263
0.000560999
0.000637258
0.000652109
0.000636623
0.000611402
0.000572918
0.000533141
0.000497013
0.000465159
0.000437155
0.000412458
0.000390564
0.000371088
0.000353299
0.000336321
0.000319008
0.000308116
0.000282043
0.00147468
0.00354875
0.00337713
0.003919
0.0044552
0.00498521
0.00542576
0.00578599
0.00611355
0.00637739
0.00654279
0.00657936
0.00645058
0.00606708
0.00505629
0.0011269
0.000747798
0.000485814
0.00106351
0.00151956
0.0018754
0.00209355
0.00210135
0.00161655
0.00137317
0.00120411
0.00107678
0.000977186
0.000897097
0.000830516
0.000768687
0.000708403
0.000654242
0.000607477
0.000723914
0.000371266
0.00179498
0.00481185
0.00413651
0.00510074
0.00555
0.00588006
0.00613993
0.00638725
0.00666893
0.00696831
0.00724682
0.00746011
0.00756555
0.00746174
0.00694353
0.00526611
0.00118701
0.00088265
0.00133783
0.00180131
0.00226809
0.00262037
0.00258413
0.000813819
0.000715279
0.000635676
0.000571451
0.000519262
0.000476448
0.000441047
0.000411847
0.000388355
0.000420747
0.000487936
0.000826196
0.000433531
0.00210145
0.00611847
0.00410442
0.00531414
0.00562435
0.00570827
0.00580116
0.00596165
0.00620988
0.00653531
0.006888
0.00720804
0.00744602
0.00751187
0.00738554
0.00674927
0.00428378
0.00137696
0.00165451
0.00214631
0.00271726
0.00324594
0.003614
0.00343066
0.000924222
0.000840693
0.000780615
0.00073458
0.000695374
0.00065946
0.000624914
0.000588705
0.000546979
0.000512146
0.000522424
0.000971563
0.000482612
0.00241338
0.00781447
0.00443204
0.00510617
0.00551074
0.00546711
0.00545794
0.00558968
0.0058167
0.00615704
0.00654345
0.00688848
0.00711675
0.00719402
0.00713369
0.0069037
0.00630851
0.00539257
0.00510169
0.00509487
0.00519172
0.00528584
0.00530456
0.00511586
0.00428666
0.00387294
0.00362677
0.00343778
0.00324568
0.00298095
0.00263079
0.00221043
0.00174945
0.00130198
0.000967952
0.00097728
0.000663811
0.000597577
0.000719166
0.000808708
0.00274479
0.0096788
0.00604002
0.00501289
0.00542313
0.00552974
0.00542523
0.00551503
0.00569911
0.00600974
0.00640026
0.00675953
0.00697742
0.00700675
0.00689018
0.00672897
0.00660867
0.00656196
0.0066268
0.00668958
0.00667939
0.00658586
0.00641141
0.00614115
0.00572955
0.00535595
0.00502764
0.00471917
0.00441267
0.00408968
0.00370242
0.00323781
0.00269748
0.00211533
0.00160867
0.00119656
0.000932577
0.000798437
0.00112762
0.000847476
0.00305368
0.0110124
0.00856107
0.00634699
0.00600694
0.00593982
0.00572932
0.00563924
0.00575564
0.00607061
0.00649012
0.00686671
0.00706608
0.00704051
0.00686729
0.00673325
0.00682853
0.00712792
0.00739279
0.00746748
0.0073503
0.00709646
0.00674923
0.00633267
0.00587032
0.00542766
0.00502141
0.0046482
0.0043093
0.00401163
0.00375771
0.00346677
0.00307332
0.00259079
0.0021319
0.0017093
0.00141336
0.00130962
0.00129787
0.000970085
0.00311904
0.00991705
0.00865217
0.00773736
0.00708286
0.00635108
0.00583176
0.00568069
0.00587881
0.00631399
0.00681672
0.0072007
0.0073319
0.00720454
0.00697617
0.00691868
0.00720133
0.00757375
0.00768649
0.00753888
0.00719933
0.0067301
0.00618252
0.00560891
0.0050667
0.00459625
0.00420141
0.00387757
0.00362552
0.00344826
0.00334685
0.00330245
0.00318915
0.00291498
0.00267884
0.00257025
0.00266548
0.00295173
0.00364247
0.00146264
0.00304288
0.00362713
0.00408704
0.00420914
0.00424242
0.00440498
0.00478629
0.00539833
0.00616233
0.00691793
0.00748959
0.00773097
0.00759313
0.00722636
0.00704813
0.00712345
0.00726871
0.00728102
0.00707345
0.00667349
0.00612988
0.0054991
0.00485507
0.00426901
0.00378654
0.00341194
0.00312545
0.00290651
0.00273873
0.00260739
0.00249909
0.00240434
0.00233402
0.00228464
0.00226567
0.00227066
0.00224921
0.00215816
0.00201006
0.0013554
0.00178228
0.00320855
0.00464478
0.00586063
0.00685315
0.00769485
0.00826687
0.00848658
0.00835647
0.00791018
0.00725246
0.00669551
0.00647789
0.0064186
0.0062773
0.00596974
0.0055065
0.00493852
0.00433521
0.00376745
0.00328378
0.00290583
0.00263105
0.00243786
0.0023044
0.00221531
0.00216025
0.00213253
0.00213006
0.00215315
0.00218812
0.00223105
0.00227652
0.00230726
0.00229567
0.00222911
0.00196342
0.00108087
0.00210719
0.00466765
0.00660101
0.00744806
0.00806174
0.0083292
0.00807401
0.00746143
0.00669354
0.00596495
0.005406
0.00503509
0.00479062
0.00453172
0.0041987
0.00380109
0.00337316
0.00296258
0.00261299
0.0023453
0.0021562
0.00203044
0.00194757
0.00189511
0.00186804
0.00186602
0.00188489
0.00192081
0.00197642
0.00204863
0.00213437
0.00222725
0.00231289
0.00237051
0.00238191
0.00232549
0.00168377
0.00110491
0.00181818
0.00191447
0.00198501
0.00205868
0.00187884
0.00174349
0.00168696
0.00160528
0.00148997
0.00134918
0.0012006
0.00105968
0.000939125
0.000845655
0.00077707
0.000725539
0.000684621
0.000651012
0.000623976
0.000604006
0.000591458
0.000585988
0.000586844
0.000593351
0.000605075
0.000622002
0.000644065
0.000670901
0.000703019
0.000741244
0.000785061
0.000834516
0.000889947
0.000951561
0.0010186
0.00109049
0.00109988
0.000983461
0.000932777
0.00110494
)
;

boundaryField
{
    floor
    {
        type            nutkWallFunction;
        Cmu             0.09;
        kappa           0.41;
        E               9.8;
        value           nonuniform List<scalar> 
29
(
0.000129577
5.61533e-05
6.74517e-05
7.6986e-05
7.88264e-05
7.69076e-05
7.37703e-05
6.89524e-05
6.39306e-05
5.93296e-05
5.52383e-05
5.16124e-05
4.83904e-05
4.55136e-05
4.29371e-05
4.05687e-05
3.82937e-05
3.59585e-05
3.44807e-05
3.09148e-05
3.09147e-05
4.29597e-05
5.11397e-05
5.74824e-05
0.000129577
5.61532e-05
5.78942e-05
0.000106817
0.00016424
)
;
    }
    ceiling
    {
        type            nutkWallFunction;
        Cmu             0.09;
        kappa           0.41;
        E               9.8;
        value           nonuniform List<scalar> 
43
(
0.000213375
0.00022393
0.000231629
0.000239731
0.000220151
0.000205264
0.000199011
0.000189927
0.00017701
0.000161086
0.000144078
0.000127725
0.000113538
0.000102393
9.41241e-05
8.78548e-05
8.28388e-05
7.8692e-05
7.53373e-05
7.28479e-05
7.12785e-05
7.05929e-05
7.06998e-05
7.15144e-05
7.29796e-05
7.50893e-05
7.7829e-05
8.11461e-05
8.50955e-05
8.97679e-05
9.5089e-05
0.000101053
0.000107689
0.000115009
0.000122911
0.000131321
0.000132415
0.000118777
0.000112784
0.000133005
0.000344592
0.000404974
0.00024478
)
;
    }
    sWall
    {
        type            nutkWallFunction;
        Cmu             0.09;
        kappa           0.41;
        E               9.8;
        value           uniform 0.000213435;
    }
    nWall
    {
        type            nutkWallFunction;
        Cmu             0.09;
        kappa           0.41;
        E               9.8;
        value           nonuniform List<scalar> 6(9.7947e-05 0.000102611 0.000117203 0.000130208 0.000133009 0.000133014);
    }
    sideWalls
    {
        type            empty;
    }
    glass1
    {
        type            nutkWallFunction;
        Cmu             0.09;
        kappa           0.41;
        E               9.8;
        value           nonuniform List<scalar> 9(0.000131149 0.000175514 0.000211273 0.000244839 0.000278464 0.00031369 0.000346124 0.000352951 0.000345022);
    }
    glass2
    {
        type            nutkWallFunction;
        Cmu             0.09;
        kappa           0.41;
        E               9.8;
        value           nonuniform List<scalar> 2(0.000174008 0.000161859);
    }
    sun
    {
        type            nutkWallFunction;
        Cmu             0.09;
        kappa           0.41;
        E               9.8;
        value           nonuniform List<scalar> 
14
(
0.000131043
0.000142677
0.000145486
0.00015223
0.00015849
0.000164426
0.000170392
0.00017573
0.000179229
0.000180153
0.000177849
0.000171859
0.000161744
0.000147274
)
;
    }
    heatsource1
    {
        type            nutkWallFunction;
        Cmu             0.09;
        kappa           0.41;
        E               9.8;
        value           nonuniform List<scalar> 3(7.20441e-05 8.70733e-05 9.7946e-05);
    }
    heatsource2
    {
        type            nutkWallFunction;
        Cmu             0.09;
        kappa           0.41;
        E               9.8;
        value           nonuniform List<scalar> 4(0.000135548 9.05689e-05 9.05689e-05 0.000142503);
    }
    Table_master
    {
        type            nutkWallFunction;
        Cmu             0.09;
        kappa           0.41;
        E               9.8;
        value           nonuniform List<scalar> 9(9.85633e-05 8.65996e-05 7.67919e-05 6.87709e-05 6.21721e-05 5.66976e-05 5.21248e-05 4.83181e-05 4.52309e-05);
    }
    Table_slave
    {
        type            nutkWallFunction;
        Cmu             0.09;
        kappa           0.41;
        E               9.8;
        value           nonuniform List<scalar> 9(0.000111768 0.000101796 9.45522e-05 8.89573e-05 8.41595e-05 7.97362e-05 7.5454e-05 7.09348e-05 6.56849e-05);
    }
    inlet
    {
        type            calculated;
        value           uniform 0.000100623;
    }
    outlet
    {
        type            calculated;
        value           nonuniform List<scalar> 2(0.00181818 0.00191447);
    }
}


// ************************************************************************* //
