// -*- C++ -*-
// File generated by PyFoam - sorry for the ugliness

FoamFile
{
 version 2.0;
 format ascii;
 class volVectorField;
 location "1400";
 object U;
}

dimensions [ 0 1 -1 0 0 0 0 ];

internalField nonuniform List<vector> 459
(
  (0.0341836 0.0858968 0)
  (-0.167102 0.0254948 0)
  (-0.191867 0.0178529 0)
  (-0.222885 0.0121506 0)
  (-0.245334 0.00586163 0)
  (-0.25812 -0.000828884 0)
  (-0.259555 -0.00799051 0)
  (-0.248365 -0.0156489 0)
  (-0.22514 -0.0231083 0)
  (-0.191777 -0.0290372 0)
  (-0.152008 -0.0323329 0)
  (-0.110234 -0.0324563 0)
  (-0.070705 -0.0295645 0)
  (-0.0385918 -0.0247998 0)
  (-0.0277963 -0.0200076 0)
  (-0.00644568 0.00894536 0)
  (-0.0292439 -0.0166479 0)
  (-0.00762356 -0.0265536 0)
  (0.0160618 -0.0205556 0)
  (0.0316363 -0.0141545 0)
  (0.0444829 -0.00921282 0)
  (0.0526171 -0.00536594 0)
  (0.0568637 -0.00334254 0)
  (0.0587825 -0.00253242 0)
  (0.0597331 -0.00218384 0)
  (0.0603252 -0.00196688 0)
  (0.0606617 -0.00179083 0)
  (0.0606838 -0.00157857 0)
  (0.0602062 -0.00116338 0)
  (0.0587042 -0.000179754 0)
  (0.055049 0.00187949 0)
  (0.0480055 0.00406993 0)
  (0.0415853 0.00585202 0)
  (-0.0131145 0.0203723 0)
  (0.208739 0.175991 0)
  (-0.156279 0.0674498 0)
  (-0.154752 0.0530576 0)
  (-0.186918 0.0412244 0)
  (-0.209221 0.0277928 0)
  (-0.222314 0.0126433 0)
  (-0.224462 -0.00454595 0)
  (-0.21423 -0.0231837 0)
  (-0.192809 -0.0406677 0)
  (-0.162512 -0.0538948 0)
  (-0.127205 -0.060739 0)
  (-0.0909659 -0.0605649 0)
  (-0.0573618 -0.0539765 0)
  (-0.0298201 -0.042601 0)
  (-0.0123182 -0.02893 0)
  (0.001552 -0.0109165 0)
  (0.000246571 0.0156687 0)
  (0.0609303 0.0364965 0)
  (0.024552 -0.0180325 0)
  (0.0332078 -0.031419 0)
  (0.0443884 -0.0280672 0)
  (0.0533945 -0.0202993 0)
  (0.0600579 -0.0127935 0)
  (0.0629741 -0.00546858 0)
  (0.0635487 -0.0012547 0)
  (0.0635038 0.000498972 0)
  (0.0636148 0.00127057 0)
  (0.0638227 0.00174258 0)
  (0.0639749 0.0021313 0)
  (0.0640291 0.0026039 0)
  (0.0639412 0.00347239 0)
  (0.0632075 0.00560026 0)
  (0.059522 0.011513 0)
  (0.0501669 0.0164614 0)
  (0.0457054 0.0197965 0)
  (-0.0493608 0.0442057 0)
  (0.368942 0.263387 0)
  (-0.173178 0.107462 0)
  (-0.116223 0.0858841 0)
  (-0.147609 0.0647702 0)
  (-0.167516 0.0426416 0)
  (-0.179769 0.0180271 0)
  (-0.181626 -0.00992933 0)
  (-0.170749 -0.0397773 0)
  (-0.149595 -0.0668717 0)
  (-0.121394 -0.0861583 0)
  (-0.0902146 -0.0949417 0)
  (-0.059562 -0.0931322 0)
  (-0.0317211 -0.0821546 0)
  (-0.00877945 -0.0642694 0)
  (0.00831094 -0.0407754 0)
  (0.0195031 -0.0143386 0)
  (0.0237444 0.0229164 0)
  (0.110239 -0.0266424 0)
  (0.074471 -0.0375968 0)
  (0.0690386 -0.0383493 0)
  (0.0705638 -0.0330179 0)
  (0.0719524 -0.0251274 0)
  (0.0733226 -0.0182011 0)
  (0.0721075 -0.014538 0)
  (0.0674169 -0.0102484 0)
  (0.0639958 -0.00790376 0)
  (0.0624498 -0.00656035 0)
  (0.0617899 -0.00569651 0)
  (0.0614521 -0.00509771 0)
  (0.0614223 -0.004572 0)
  (0.0621389 -0.00374993 0)
  (0.0647116 -0.000684535 0)
  (0.0627097 0.0160984 0)
  (0.0497093 0.0277776 0)
  (0.0519912 0.0356911 0)
  (-0.0813336 0.0689966 0)
  (0.513575 0.333699 0)
  (-0.207975 0.142948 0)
  (-0.0752987 0.113863 0)
  (-0.105381 0.0848694 0)
  (-0.119863 0.0565011 0)
  (-0.128949 0.0242044 0)
  (-0.127875 -0.0143687 0)
  (-0.113951 -0.0560223 0)
  (-0.092414 -0.0919815 0)
  (-0.0672704 -0.115673 0)
  (-0.0420182 -0.124874 0)
  (-0.0190389 -0.12085 0)
  (0.00143144 -0.105739 0)
  (0.0182926 -0.0830207 0)
  (0.0325963 -0.0562074 0)
  (0.0478854 -0.0271479 0)
  (0.0694843 0.00469829 0)
  (0.100237 0.0161825 0)
  (0.105398 -0.022767 0)
  (0.0917748 -0.0334671 0)
  (0.0828159 -0.0327899 0)
  (0.0777362 -0.0287106 0)
  (0.0739229 -0.022684 0)
  (0.0713468 -0.0150147 0)
  (0.0725633 -0.00909284 0)
  (0.0775236 -0.00680766 0)
  (0.0817472 -0.0055447 0)
  (0.0845485 -0.00465187 0)
  (0.086269 -0.0036541 0)
  (0.0864721 -0.00225537 0)
  (0.0840338 -0.000197028 0)
  (0.0776942 0.00282833 0)
  (0.0649431 0.00735118 0)
  (0.0526946 0.0266335 0)
  (0.0405711 0.0429304 0)
  (0.0560775 0.0558497 0)
  (-0.11467 0.091223 0)
  (0.638808 0.388165 0)
  (-0.250568 0.171931 0)
  (-0.0345457 0.130038 0)
  (-0.061167 0.0963996 0)
  (-0.0676277 0.0645771 0)
  (-0.0707282 0.0271959 0)
  (-0.0609283 -0.0210527 0)
  (-0.0417811 -0.0736003 0)
  (-0.0212301 -0.114839 0)
  (-0.00196523 -0.139137 0)
  (0.0143107 -0.145757 0)
  (0.0267515 -0.138088 0)
  (0.0365148 -0.12031 0)
  (0.0443914 -0.095969 0)
  (0.0516821 -0.0685724 0)
  (0.0603648 -0.0419078 0)
  (0.0731742 -0.0222613 0)
  (0.0838816 -0.0213057 0)
  (0.0850219 -0.029005 0)
  (0.0786542 -0.0298153 0)
  (0.0704507 -0.0269094 0)
  (0.063684 -0.0230448 0)
  (0.0585604 -0.0184743 0)
  (0.0554346 -0.0130952 0)
  (0.055192 -0.00731882 0)
  (0.0575192 -0.00451366 0)
  (0.0602299 -0.0035063 0)
  (0.0628175 -0.00273192 0)
  (0.0651915 -0.00115789 0)
  (0.0670112 0.00182322 0)
  (0.067047 0.00632567 0)
  (0.0646848 0.0125147 0)
  (0.0593229 0.021028 0)
  (0.0524709 0.036203 0)
  (0.0423776 0.0542036 0)
  (0.0644723 0.0743116 0)
  (-0.021424 0.10337 0)
  (0.0464075 0.0324027 0)
  (-0.0619569 -0.0344056 0)
  (-0.272431 -0.0570781 0)
  (0.729917 0.433582 0)
  (-0.292159 0.191447 0)
  (-0.00332945 0.126623 0)
  (-0.0160358 0.0976663 0)
  (-0.0119413 0.0670157 0)
  (-0.00639671 0.0242467 0)
  (0.0221144 -0.0381326 0)
  (0.0439506 -0.093926 0)
  (0.0594985 -0.132217 0)
  (0.0689319 -0.151706 0)
  (0.0729089 -0.154329 0)
  (0.0728264 -0.143649 0)
  (0.0701895 -0.123694 0)
  (0.0664992 -0.0984472 0)
  (0.0632434 -0.0715775 0)
  (0.0618346 -0.0467505 0)
  (0.0631289 -0.0282422 0)
  (0.0639881 -0.0208806 0)
  (0.060734 -0.0204747 0)
  (0.0537536 -0.0205553 0)
  (0.0458501 -0.0191176 0)
  (0.0392263 -0.0168597 0)
  (0.0344177 -0.0141336 0)
  (0.0317144 -0.0109974 0)
  (0.0313761 -0.00806409 0)
  (0.0330457 -0.00692831 0)
  (0.0356707 -0.00680125 0)
  (0.0387949 -0.00644201 0)
  (0.0422348 -0.00483951 0)
  (0.0457298 -0.00110594 0)
  (0.0489383 0.00510864 0)
  (0.0506432 0.0134593 0)
  (0.0510993 0.0240966 0)
  (0.0516532 0.0385262 0)
  (0.0505044 0.0562653 0)
  (0.0729493 0.0790188 0)
  (0.0525989 0.0969066 0)
  (0.0932664 0.0678478 0)
  (0.116107 0.0446095 0)
  (-0.128892 -0.00702415 0)
  (0.781918 0.474863 0)
  (-0.313104 0.176918 0)
  (0.0234934 0.0771655 0)
  (0.0425744 0.0739523 0)
  (0.0576753 0.0525107 0)
  (0.0840613 0.00156944 0)
  (0.118278 -0.0625301 0)
  (0.137617 -0.11141 0)
  (0.144076 -0.141014 0)
  (0.140345 -0.152745 0)
  (0.129161 -0.149552 0)
  (0.11344 -0.135174 0)
  (0.0957539 -0.11347 0)
  (0.0783402 -0.0883406 0)
  (0.0628855 -0.0630019 0)
  (0.0506374 -0.0405646 0)
  (0.0420387 -0.0241456 0)
  (0.0355597 -0.0158614 0)
  (0.0290312 -0.0135018 0)
  (0.0219594 -0.0131283 0)
  (0.0152717 -0.0125811 0)
  (0.00989052 -0.0117408 0)
  (0.00612701 -0.0107474 0)
  (0.00415288 -0.00967053 0)
  (0.00404768 -0.00892542 0)
  (0.00544876 -0.0091387 0)
  (0.00771138 -0.00980606 0)
  (0.010559 -0.0100658 0)
  (0.014025 -0.00904554 0)
  (0.0182378 -0.00573632 0)
  (0.0241061 0.000890183 0)
  (0.0301583 0.0100537 0)
  (0.0358569 0.0208382 0)
  (0.0430283 0.0337218 0)
  (0.0508212 0.0483943 0)
  (0.0728572 0.0668173 0)
  (0.0860687 0.0745099 0)
  (0.118337 0.0519862 0)
  (0.158001 0.043993 0)
  (-0.0351955 0.0940268 0)
  (0.886586 0.477556 0)
  (-0.0706738 0.156555 0)
  (0.106032 0.00390309 0)
  (0.169141 -0.0163451 0)
  (0.182076 -0.0350133 0)
  (0.217538 -0.0690817 0)
  (0.239406 -0.101863 0)
  (0.242002 -0.125322 0)
  (0.22809 -0.136937 0)
  (0.202609 -0.136916 0)
  (0.170416 -0.127012 0)
  (0.135741 -0.109851 0)
  (0.101621 -0.088103 0)
  (0.0705471 -0.065028 0)
  (0.0439819 -0.0430552 0)
  (0.023295 -0.0247725 0)
  (0.00894204 -0.0127109 0)
  (-0.000411496 -0.00732945 0)
  (-0.00702953 -0.00638033 0)
  (-0.0125713 -0.00689567 0)
  (-0.0173166 -0.00749445 0)
  (-0.0210949 -0.00799026 0)
  (-0.0238272 -0.00843801 0)
  (-0.0254636 -0.00893142 0)
  (-0.0260491 -0.00967693 0)
  (-0.0258873 -0.0108196 0)
  (-0.0253586 -0.0120881 0)
  (-0.0245931 -0.013038 0)
  (-0.0234461 -0.0131767 0)
  (-0.0215346 -0.0119239 0)
  (-0.0179104 -0.00853155 0)
  (-0.00927009 -0.00223729 0)
  (-0.000351788 0.00613129 0)
  (0.0102989 0.0145573 0)
  (0.0220217 0.0217367 0)
  (0.0417917 0.0291127 0)
  (0.0603692 0.0221852 0)
  (0.0798704 -0.00521752 0)
  (0.13898 0.040389 0)
  (-0.414006 0.206902 0)
  (1.03168 0.429967 0)
  (0.496787 0.285083 0)
  (0.503036 0.191481 0)
  (0.511461 0.120117 0)
  (0.486646 0.0686821 0)
  (0.443992 0.0153948 0)
  (0.394102 -0.0328589 0)
  (0.340686 -0.0670888 0)
  (0.283469 -0.0847692 0)
  (0.224866 -0.0879099 0)
  (0.168167 -0.0805342 0)
  (0.116151 -0.0666551 0)
  (0.0698259 -0.0489952 0)
  (0.0310923 -0.0309851 0)
  (-0.000466807 -0.0148464 0)
  (-0.0212894 -0.00482079 0)
  (-0.0324197 -0.00104525 0)
  (-0.0385847 -0.000523826 0)
  (-0.0426055 -0.00147611 0)
  (-0.0461157 -0.00280424 0)
  (-0.0493267 -0.00410746 0)
  (-0.0522499 -0.00532982 0)
  (-0.0548613 -0.00650544 0)
  (-0.0571807 -0.00768593 0)
  (-0.0593274 -0.00893339 0)
  (-0.0615718 -0.0102241 0)
  (-0.0642476 -0.0113404 0)
  (-0.0676598 -0.0119106 0)
  (-0.0721424 -0.0114124 0)
  (-0.0781645 -0.00915223 0)
  (-0.0863409 -0.00430382 0)
  (-0.0967638 0.00377343 0)
  (-0.107442 0.0146193 0)
  (-0.122771 0.0283927 0)
  (-0.146894 0.0451222 0)
  (-0.182341 0.0635911 0)
  (-0.232397 0.0797276 0)
  (-0.289371 0.0909097 0)
  (-0.357983 0.0971337 0)
  (-0.62013 0.099074 0)
  (-0.148336 0.0829868 0)
  (0.134907 0.0621193 0)
  (0.218258 0.00649174 0)
  (0.201776 -0.0284671 0)
  (0.186084 -0.0429253 0)
  (0.163604 -0.0477063 0)
  (0.131158 -0.0461489 0)
  (0.0926223 -0.0397997 0)
  (0.0527455 -0.0300953 0)
  (0.0148117 -0.0179116 0)
  (-0.0225462 -0.00411599 0)
  (-0.0463753 0.00359291 0)
  (-0.0609508 0.00703827 0)
  (-0.0680855 0.00748265 0)
  (-0.0715509 0.00669764 0)
  (-0.0738257 0.00569836 0)
  (-0.0757723 0.00470694 0)
  (-0.0777102 0.00377635 0)
  (-0.0799471 0.00284511 0)
  (-0.0825181 0.00179165 0)
  (-0.0853472 0.000667324 0)
  (-0.0884616 -0.000458133 0)
  (-0.091936 -0.00149591 0)
  (-0.0958685 -0.00228583 0)
  (-0.100343 -0.00258136 0)
  (-0.105368 -0.0020703 0)
  (-0.110858 -0.00039969 0)
  (-0.116598 0.00278862 0)
  (-0.121987 0.00792899 0)
  (-0.126227 0.0157602 0)
  (-0.129757 0.0274155 0)
  (-0.132809 0.0432969 0)
  (-0.136187 0.0625087 0)
  (-0.140397 0.0813678 0)
  (-0.14225 0.0899755 0)
  (-0.124906 0.0675029 0)
  (-0.0810496 -0.0256818 0)
  (-0.278724 -0.203609 0)
  (-0.0236969 0.231089 0)
  (0.0636277 0.0997772 0)
  (0.0377722 0.0192337 0)
  (0.0256188 -0.00423523 0)
  (0.0164555 -0.00969498 0)
  (-0.00202971 -0.0111948 0)
  (-0.0269437 -0.00875226 0)
  (-0.0526869 -0.00415094 0)
  (-0.074553 0.000373122 0)
  (-0.0896758 0.00340442 0)
  (-0.0970423 0.00369517 0)
  (-0.0996616 0.0014594 0)
  (-0.100089 -0.00153242 0)
  (-0.0995487 -0.00492096 0)
  (-0.0991326 -0.00837442 0)
  (-0.0992432 -0.0116318 0)
  (-0.0999009 -0.0145568 0)
  (-0.101003 -0.0169411 0)
  (-0.10241 -0.0186377 0)
  (-0.104047 -0.0196386 0)
  (-0.105966 -0.0200563 0)
  (-0.108143 -0.0199134 0)
  (-0.110584 -0.0194605 0)
  (-0.113262 -0.0187234 0)
  (-0.116064 -0.017586 0)
  (-0.118761 -0.0158122 0)
  (-0.120985 -0.0130229 0)
  (-0.122228 -0.00864412 0)
  (-0.121958 -0.00246963 0)
  (-0.119202 0.00604552 0)
  (-0.112518 0.0177743 0)
  (-0.100618 0.0334807 0)
  (-0.08321 0.0527272 0)
  (-0.0611763 0.0713969 0)
  (-0.0373885 0.0823436 0)
  (0.00269579 0.0666625 0)
  (0.143311 -0.00452437 0)
  (-0.207248 -0.114303 0)
  (-0.103727 -0.3488 0)
  (-0.439311 -0.120255 0)
  (-0.310777 0.0958368 0)
  (-0.226288 -0.0202085 0)
  (-0.17976 -0.041533 0)
  (-0.165217 -0.0294517 0)
  (-0.162774 -0.0165066 0)
  (-0.164103 -0.00617321 0)
  (-0.164722 0.00248054 0)
  (-0.162499 0.0100307 0)
  (-0.157841 0.0169497 0)
  (-0.150852 0.0232435 0)
  (-0.142458 0.0286518 0)
  (-0.134092 0.0331775 0)
  (-0.126619 0.0373942 0)
  (-0.120368 0.0415145 0)
  (-0.115355 0.04561 0)
  (-0.111409 0.0494722 0)
  (-0.108387 0.0527211 0)
  (-0.106194 0.0550113 0)
  (-0.104748 0.0561531 0)
  (-0.103972 0.0561464 0)
  (-0.103809 0.0551328 0)
  (-0.104195 0.0532441 0)
  (-0.105049 0.0509429 0)
  (-0.106272 0.0484254 0)
  (-0.107699 0.0458041 0)
  (-0.109066 0.0431666 0)
  (-0.109951 0.0405765 0)
  (-0.109681 0.0380941 0)
  (-0.107012 0.0365659 0)
  (-0.10007 0.0366623 0)
  (-0.0863922 0.0391472 0)
  (-0.0641147 0.0449242 0)
  (-0.0338445 0.0545036 0)
  (0.014565 0.0675445 0)
  (0.0592073 0.0687924 0)
  (0.101781 0.0540773 0)
  (0.163808 0.0250052 0)
  (-0.218806 -0.0298959 0)
)
;

boundaryField
{
  floor
  {
    type noSlip;
  }
  ceiling
  {
    type noSlip;
  }
  sWall
  {
    type noSlip;
  }
  nWall
  {
    type noSlip;
  }
  sideWalls
  {
    type empty;
  }
  glass1
  {
    type noSlip;
  }
  glass2
  {
    type noSlip;
  }
  sun
  {
    type noSlip;
  }
  heatsource1
  {
    type noSlip;
  }
  heatsource2
  {
    type noSlip;
  }
  Table_master
  {
    type noSlip;
  }
  Table_slave
  {
    type noSlip;
  }
  inlet
  {
    type fixedValue;
    value uniform (0.3 0 0);
  }
  outlet
  {
    type zeroGradient;
  }
} 	// ************************************************************************* //

