/*--------------------------------*- C++ -*----------------------------------*\
  =========                 |
  \\      /  F ield         | OpenFOAM: The Open Source CFD Toolbox
   \\    /   O peration     | Website:  https://openfoam.org
    \\  /    A nd           | Version:  6
     \\/     M anipulation  |
\*---------------------------------------------------------------------------*/
FoamFile
{
    version     2.0;
    format      ascii;
    class       volScalarField;
    location    "1000";
    object      alphat;
}
// * * * * * * * * * * * * * * * * * * * * * * * * * * * * * * * * * * * * * //

dimensions      [1 -1 -1 0 0 0 0];

internalField   nonuniform List<scalar> 
459
(
0.00137233
0.00151256
0.00155832
0.00164024
0.00171932
0.00179941
0.00187576
0.00192953
0.00195082
0.00193281
0.00187072
0.00175132
0.00154007
0.00130009
0.00109497
0.000612483
0.000721009
0.000843892
0.000910155
0.000916684
0.000894486
0.000838819
0.000778745
0.000724525
0.000677256
0.000636129
0.000600218
0.000568549
0.000540437
0.000514853
0.000490423
0.000465192
0.000439924
0.000396969
0.00181045
0.0045687
0.00445573
0.00518537
0.00591779
0.00655727
0.00705105
0.00749551
0.00785214
0.00808414
0.00815833
0.00802385
0.00760376
0.00679153
0.00463198
0.00139628
0.00108277
0.000601881
0.00149714
0.00233553
0.00303853
0.00348033
0.00345845
0.00244391
0.00202251
0.00174766
0.00154861
0.00139748
0.0012787
0.00118369
0.00109676
0.00100534
0.000917164
0.000838878
0.000887388
0.000460934
0.00216867
0.00618821
0.00550829
0.00649605
0.00698541
0.00735821
0.00768694
0.00805482
0.0084564
0.00885538
0.00919509
0.00937071
0.00928151
0.00884306
0.00761439
0.00510607
0.00139214
0.000876985
0.00164564
0.00258778
0.00359372
0.00433725
0.00420747
0.00115636
0.00100515
0.000882959
0.000785097
0.000706361
0.00064245
0.000590106
0.000547772
0.000515569
0.00057226
0.000674878
0.00100078
0.000504559
0.00250728
0.00770543
0.00558263
0.00669238
0.00690025
0.0070331
0.00723252
0.00753408
0.00795913
0.00846481
0.0089599
0.00927817
0.00941211
0.00931894
0.00882569
0.00741505
0.00410198
0.00158667
0.00187854
0.00265468
0.0037843
0.00493841
0.00574013
0.00539998
0.00131097
0.0011829
0.00108573
0.00100746
0.000941132
0.000880631
0.000821767
0.000761132
0.000693743
0.000640025
0.000666074
0.00112039
0.000541967
0.00285086
0.00963948
0.00605572
0.00667643
0.00684632
0.00683616
0.00693882
0.00717405
0.00760902
0.00815261
0.00866467
0.00901739
0.00916842
0.00914801
0.00895973
0.00839713
0.00710481
0.00618362
0.00638189
0.00689633
0.00750312
0.0079851
0.00819323
0.00790046
0.00642544
0.00563128
0.00511349
0.00468701
0.00423269
0.00373568
0.00318918
0.0025982
0.00198632
0.00142281
0.00106191
0.00114351
0.000697734
0.00064525
0.00078444
0.000881835
0.00321673
0.0117893
0.00803379
0.00707523
0.0073048
0.00706079
0.00697776
0.00711091
0.00752226
0.00809828
0.00864011
0.0089809
0.00907737
0.00902149
0.00896406
0.00896992
0.00894081
0.00912888
0.00960369
0.00999945
0.0102057
0.0101895
0.00995244
0.00947824
0.00870513
0.00797679
0.00733101
0.00669955
0.0060583
0.00538528
0.00466487
0.00389232
0.003085
0.00230418
0.00171292
0.00137251
0.000996907
0.000840871
0.00118718
0.000919531
0.00354583
0.0132641
0.0109506
0.00888588
0.00824847
0.00750211
0.00711881
0.00719794
0.00766733
0.00832544
0.00891142
0.00923526
0.00928627
0.00924914
0.00942309
0.00996111
0.0105945
0.0111882
0.0116323
0.0117501
0.0115897
0.0112097
0.0106683
0.010007
0.00925326
0.00850427
0.0077877
0.00709317
0.00641765
0.00575159
0.00508394
0.00440185
0.00369426
0.00297929
0.00238915
0.00192554
0.00154529
0.00138986
0.00133641
0.00103819
0.00360746
0.011532
0.0103486
0.00918781
0.00796146
0.00714151
0.00693812
0.00730476
0.00804842
0.00887586
0.00948793
0.00973747
0.00974856
0.00986888
0.0105109
0.0113171
0.0118694
0.0122246
0.0123356
0.0121322
0.0116594
0.0109961
0.0102095
0.00935281
0.00847667
0.00763345
0.00684056
0.00610404
0.00544567
0.00489815
0.00446865
0.00410389
0.00370962
0.00326271
0.00292837
0.00274815
0.00274581
0.00296425
0.00376524
0.00157946
0.00351317
0.00416217
0.00460771
0.00470241
0.00492301
0.00553722
0.00654421
0.00779787
0.00902693
0.00992699
0.0102866
0.0102123
0.0103717
0.0108211
0.01133
0.01171
0.0118854
0.0118612
0.0116005
0.0110867
0.0103633
0.00949354
0.00853782
0.0075573
0.00661064
0.0057344
0.0049378
0.00423114
0.00363677
0.00317287
0.00283701
0.00261031
0.00246453
0.0023766
0.00234273
0.00234825
0.00234242
0.00227637
0.00214012
0.00147123
0.00181623
0.00354845
0.00641093
0.00859408
0.0100898
0.0109942
0.0113102
0.0111748
0.0106539
0.010217
0.0102131
0.0104277
0.0105446
0.0105099
0.0103239
0.00995653
0.00938016
0.00861729
0.00773934
0.00683071
0.00596127
0.00517354
0.00448154
0.00388293
0.0033771
0.00297016
0.00266576
0.00245769
0.00233161
0.00227085
0.00225974
0.00228431
0.00232912
0.00236813
0.00236272
0.00228744
0.00203029
0.00119301
0.00233574
0.00645281
0.00910478
0.0104731
0.010751
0.0103864
0.00968635
0.00896646
0.00841876
0.00807523
0.00787727
0.00770549
0.00751807
0.00730426
0.00702684
0.00664863
0.00616844
0.00562891
0.00509137
0.00460292
0.00418272
0.00382779
0.00352551
0.00326345
0.0030335
0.00283203
0.00265891
0.0025171
0.00241173
0.00234801
0.00232771
0.00234469
0.00237991
0.00240194
0.00237325
0.00232556
0.001833
0.00122361
0.00206376
0.00217682
0.0022564
0.00238609
0.00224198
0.0021548
0.00205278
0.00192107
0.00176711
0.00161541
0.00148558
0.00138845
0.00132171
0.00127555
0.00124056
0.00120949
0.00117731
0.00114176
0.00110353
0.00106517
0.0010293
0.000997413
0.000969785
0.000946108
0.000926151
0.000910205
0.000899179
0.000894373
0.000897119
0.000908473
0.000929096
0.000959378
0.000999606
0.00104976
0.00110815
0.00117042
0.00117685
0.00105099
0.00103087
0.00127509
)
;

boundaryField
{
    floor
    {
        type            compressible::alphatWallFunction;
        Prt             0.85;
        value           nonuniform List<scalar> 
29
(
0.000155599
8.62536e-05
0.000102294
0.00012011
0.000129588
0.000130519
0.000127358
0.000119386
0.000110712
0.000102814
9.58704e-05
8.97813e-05
8.4425e-05
7.96686e-05
7.54191e-05
7.15279e-05
6.77894e-05
6.39039e-05
5.99854e-05
5.32577e-05
5.3257e-05
6.32439e-05
6.99529e-05
7.56486e-05
0.000155598
8.62526e-05
8.46673e-05
0.000124846
0.000222605
)
;
    }
    ceiling
    {
        type            compressible::alphatWallFunction;
        Prt             0.85;
        value           nonuniform List<scalar> 
43
(
0.000285323
0.000299955
0.000310208
0.000326979
0.000308554
0.000297336
0.000284128
0.000266963
0.00024673
0.000226605
0.000209212
0.000196091
0.000187015
0.000180708
0.000175911
0.000171638
0.000167198
0.000162276
0.000156964
0.000151613
0.000146588
0.000142103
0.000138204
0.000134852
0.000132019
0.000129749
0.000128177
0.00012749
0.00012788
0.000129497
0.000132429
0.000136721
0.000142399
0.000149442
0.000157593
0.00016623
0.000167121
0.000149614
0.0001468
0.000180655
0.000468179
0.000547139
0.000320192
)
;
    }
    sWall
    {
        type            compressible::alphatWallFunction;
        Prt             0.85;
        value           uniform 0.00028412;
    }
    nWall
    {
        type            compressible::alphatWallFunction;
        Prt             0.85;
        value           nonuniform List<scalar> 6(0.00012537 0.000130737 0.00014748 0.000169045 0.000173259 0.000180338);
    }
    sideWalls
    {
        type            empty;
    }
    glass1
    {
        type            compressible::alphatWallFunction;
        Prt             0.85;
        value           nonuniform List<scalar> 9(0.000189103 0.000246897 0.000293124 0.000336148 0.000379237 0.000424567 0.000464932 0.000472582 0.000461316);
    }
    glass2
    {
        type            compressible::alphatWallFunction;
        Prt             0.85;
        value           nonuniform List<scalar> 2(0.000220244 0.000205855);
    }
    sun
    {
        type            compressible::alphatWallFunction;
        Prt             0.85;
        value           nonuniform List<scalar> 
14
(
0.000193754
0.00021268
0.000218816
0.000229754
0.000240255
0.000250837
0.000260876
0.000267918
0.0002707
0.000268345
0.000260211
0.000244481
0.000216367
0.000183893
)
;
    }
    heatsource1
    {
        type            compressible::alphatWallFunction;
        Prt             0.85;
        value           nonuniform List<scalar> 3(9.12288e-05 0.000111636 0.000125652);
    }
    heatsource2
    {
        type            compressible::alphatWallFunction;
        Prt             0.85;
        value           nonuniform List<scalar> 4(0.00019712 0.000154028 0.000154027 0.000196555);
    }
    Table_master
    {
        type            compressible::alphatWallFunction;
        Prt             0.85;
        value           nonuniform List<scalar> 9(0.000164256 0.000143148 0.000125819 0.000111736 0.000100253 9.08184e-05 8.30055e-05 7.66238e-05 7.17283e-05);
    }
    Table_slave
    {
        type            compressible::alphatWallFunction;
        Prt             0.85;
        value           nonuniform List<scalar> 9(0.000185518 0.000167931 0.000154441 0.000143474 0.000134103 0.000125487 0.000117037 0.000108257 9.83999e-05);
    }
    inlet
    {
        type            fixedValue;
        value           uniform 1.94e-05;
    }
    outlet
    {
        type            zeroGradient;
    }
}


// ************************************************************************* //
