/*--------------------------------*- C++ -*----------------------------------*\
  =========                 |
  \\      /  F ield         | OpenFOAM: The Open Source CFD Toolbox
   \\    /   O peration     | Website:  https://openfoam.org
    \\  /    A nd           | Version:  6
     \\/     M anipulation  |
\*---------------------------------------------------------------------------*/
FoamFile
{
    version     2.0;
    format      ascii;
    class       surfaceScalarField;
    location    "1500";
    object      phi;
}
// * * * * * * * * * * * * * * * * * * * * * * * * * * * * * * * * * * * * * //

dimensions      [1 0 -1 0 0 0 0];

internalField   nonuniform List<scalar> 
852
(
-0.00295877
0.00301612
-0.00399859
0.00103982
-0.00479891
0.000800319
-0.00542235
0.000623439
-0.00583546
0.00041311
-0.00601011
0.000174654
-0.00591808
-9.20263e-05
-0.00553739
-0.000380697
-0.00488396
-0.000653431
-0.00402295
-0.000861007
-0.00305441
-0.000968544
-0.00209004
-0.000964362
-0.00123187
-0.00085817
-0.000541407
-0.000690467
-0.000539739
-0.000783649
0.000786647
-0.000541562
-0.000242087
4.21041e-05
-0.000583666
0.000537224
-0.00049512
0.000881194
-0.000343971
0.00110593
-0.000224737
0.001232
-0.000126064
0.00129352
-6.1523e-05
0.00132791
-3.43945e-05
0.00134936
-2.1445e-05
0.00136186
-1.25024e-05
0.00136702
-5.15584e-06
0.00136366
3.35314e-06
0.00134477
1.88964e-05
0.00129022
5.45488e-05
0.00116615
0.000124064
0.000961223
0.000204928
0.000710464
0.00025076
0.000714488
-0.00211984
0.00529051
-0.00314012
0.0020601
-0.00396931
0.0016295
-0.00458905
0.00124318
-0.00500055
0.000824609
-0.00518463
0.000358737
-0.00510981
-0.000166853
-0.00475833
-0.000732175
-0.00415871
-0.00125305
-0.00338677
-0.00163295
-0.00254077
-0.00181454
-0.00171544
-0.00178969
-0.000991313
-0.0015823
-0.000442367
-0.00123941
-0.00017537
-0.000806736
0.000115569
-0.000290991
0.000115518
0.000239088
0.000556296
0.000633739
-0.000636739
0.00089638
-0.000846306
0.00111569
-0.000714436
0.00129045
-0.000518729
0.00140351
-0.000337794
0.00142391
-0.000146463
0.00142901
-6.66282e-05
0.00143517
-4.05537e-05
0.00144034
-2.66143e-05
0.00144378
-1.59431e-05
0.00144569
-7.06853e-06
0.00144552
3.52595e-06
0.00144026
2.41522e-05
0.00140333
9.14789e-05
0.00124391
0.000283484
0.000965159
0.000483684
0.000615833
0.000600085
0.00134055
-0.00148995
0.00701692
-0.00237268
0.00294283
-0.00311356
0.00237038
-0.0036497
0.00177932
-0.00401523
0.00119014
-0.00418585
0.000529358
-0.00410728
-0.000245423
-0.00375373
-0.00108572
-0.0031795
-0.00182729
-0.00247819
-0.00233425
-0.00174494
-0.0025478
-0.0010524
-0.00248223
-0.000452633
-0.00218207
1.97229e-05
-0.00171177
0.000330464
-0.00111748
0.000470678
-0.000431206
0.000586195
0.00148421
-0.000918329
0.00170136
-0.000853889
0.00165332
-0.000798267
0.00163645
-0.000697562
0.00165657
-0.000538849
0.00169494
-0.000376166
0.00154863
0.00148215
0.00144175
0.00141529
0.0013995
0.00139259
0.00139627
0.00142057
0.0015122
0.00125117
0.000544519
0.000929517
0.000805334
0.000525122
0.00100448
0.00188111
-0.00104333
0.00836645
-0.00174534
0.00364484
-0.00224335
0.00286839
-0.00260262
0.00213859
-0.00285456
0.00144208
-0.00296239
0.000637188
-0.00282927
-0.000378546
-0.00243853
-0.00147646
-0.00189166
-0.00237416
-0.00129121
-0.00293471
-0.000712839
-0.00312617
-0.000196268
-0.0029988
0.00024256
-0.00262089
0.000604043
-0.00207325
0.000925351
-0.00143879
0.00128715
-0.000793007
0.00212795
-0.0002546
0.00247526
-0.000338902
0.00213121
-0.000574282
0.00199769
-0.00072037
0.00186824
-0.00066882
0.00174964
-0.000578961
0.00167176
-0.00046097
0.0016075
-0.000311903
0.00173748
-0.000130133
0.0018142
-7.68798e-05
0.00187518
-6.11326e-05
0.00192324
-4.82055e-05
0.00194544
-2.2355e-05
0.00192096
2.43202e-05
0.00182447
9.63388e-05
0.00162236
0.000201963
0.00126047
0.000361732
0.00110512
0.000699866
0.000800801
0.00110966
0.000338452
0.00146683
0.00223968
-0.000729012
0.00946086
-0.0012626
0.00417843
-0.00138486
0.00299065
-0.00147851
0.00223225
-0.00154096
0.00150452
-0.00150269
0.00059892
-0.00122889
-0.000652345
-0.000788227
-0.00191712
-0.000312398
-0.00284999
0.000119647
-0.00336675
0.000473421
-0.00347994
0.000744102
-0.00326948
0.000953291
-0.00283008
0.00113048
-0.00225044
0.00130962
-0.00161792
0.00153822
-0.00102161
0.0018596
-0.000575982
0.00196315
-0.000442453
0.00188308
-0.000494213
0.00170806
-0.000545343
0.00154878
-0.000509542
0.00141006
-0.00044024
0.0013055
-0.000356415
0.00125115
-0.000257557
0.00128404
-0.000163014
0.00132809
-0.000120932
0.00137756
-0.000110608
0.00143035
-0.00010099
0.00147738
-6.93919e-05
0.00149939
2.31218e-06
0.00147455
0.000121181
0.00138937
0.000287145
0.00124379
0.000507306
0.00110715
0.000836504
0.000951542
0.00126527
0.00059967
0.0018187
0.000498742
0.00234061
-0.000985478
0.00148402
-0.00144909
0.000463406
-0.00140065
-0.000631205
0.0105073
-0.000997813
0.00454504
-0.0006038
0.00259663
-0.00031094
0.00193939
-9.68609e-05
0.00129044
0.000226725
0.000275334
0.000707395
-0.00113302
0.00114548
-0.00235521
0.00145867
-0.00316318
0.00163288
-0.00354097
0.00169369
-0.00354075
0.0016733
-0.00324909
0.00160425
-0.00276103
0.00152402
-0.00217021
0.00146584
-0.00155974
0.00145458
-0.00101035
0.00148357
-0.000604978
0.0014508
-0.000409685
0.00132639
-0.000369799
0.00114768
-0.000366633
0.000981832
-0.000343697
0.000847327
-0.000305735
0.000752412
-0.000261501
0.000708095
-0.00021324
0.000718549
-0.000173469
0.000759813
-0.000162197
0.000818632
-0.000169427
0.000890036
-0.000172395
0.000969371
-0.000148727
0.00104744
-7.57535e-05
0.001106
6.26174e-05
0.00113554
0.000257605
0.00114494
0.000497909
0.0011778
0.000803636
0.00128048
0.00116259
0.00146715
0.00163203
0.00191091
0.00189685
0.00216549
0.00122943
0.00177781
0.000851087
0.000435352
-0.00071771
0.0116849
-0.000603977
0.00443131
0.00047204
0.00152062
0.00114918
0.00126225
0.00172259
0.000717028
0.00236814
-0.000370214
0.00292288
-0.00168776
0.00322942
-0.00266175
0.00328186
-0.00321562
0.003126
-0.00338511
0.00282594
-0.00324069
0.00244575
-0.0028689
0.00204036
-0.00235564
0.00165811
-0.00178797
0.00133188
-0.0012335
0.00108155
-0.000760023
0.000904098
-0.000427528
0.000752936
-0.000258524
0.000592615
-0.000209478
0.000430413
-0.000204431
0.000289059
-0.000202343
0.000179894
-0.00019657
0.000107658
-0.000189264
7.7067e-05
-0.000182649
8.70234e-05
-0.000183426
0.000124337
-0.000199511
0.000178685
-0.000223774
0.000248263
-0.000241973
0.000337363
-0.000237828
0.000452524
-0.000190915
0.000588163
-7.30215e-05
0.000729079
0.000116689
0.000880868
0.000346121
0.0010831
0.000601407
0.00138369
0.000861996
0.00184778
0.00116794
0.00252139
0.00122324
0.00304255
0.00070827
0.0030613
0.000832333
0.0035598
0.00260321
0.00959556
0.00328036
0.00375416
0.00344403
0.00135695
0.00389596
0.000810317
0.00458666
2.633e-05
0.0052796
-0.00106315
0.00556267
-0.00197084
0.00543902
-0.00253809
0.00499624
-0.00277284
0.004339
-0.00272787
0.00356967
-0.00247136
0.00277471
-0.00207395
0.00201461
-0.00159554
0.00134435
-0.00111771
0.000791049
-0.000680202
0.000376376
-0.000345351
9.94028e-05
-0.000150555
-8.53562e-05
-7.37653e-05
-0.00022717
-6.76636e-05
-0.000346913
-8.46884e-05
-0.000446092
-0.000103165
-0.000522479
-0.000120184
-0.000574774
-0.000136969
-0.000602412
-0.000155011
-0.000608415
-0.000177423
-0.000601579
-0.000206346
-0.000588076
-0.000237278
-0.000567748
-0.000262301
-0.000533385
-0.000272191
-0.00046793
-0.000256371
-0.000340001
-0.00020095
-0.000145167
-7.8146e-05
9.45281e-05
0.000106426
0.000386668
0.000309267
0.000749244
0.00049942
0.00122754
0.00068964
0.00173299
0.000717795
0.00187409
0.000567172
0.000931939
0.00177448
0.00475274
0.0101596
0.0139065
0.0122319
0.0030316
0.0113305
0.00171165
0.010596
0.000760835
0.00970527
-0.000172403
0.00855778
-0.00082335
0.00726067
-0.00124098
0.00590809
-0.00142027
0.00456907
-0.00138885
0.00330673
-0.00120902
0.00217134
-0.000938561
0.00117405
-0.000598245
0.000356249
-0.000299912
-0.000248149
-7.58038e-05
-0.000625715
3.22151e-05
-0.000830601
5.43303e-05
-0.000946459
4.20931e-05
-0.0010303
1.61778e-05
-0.00110416
-1.0828e-05
-0.00117181
-3.5515e-05
-0.0012327
-5.9295e-05
-0.00128659
-8.30809e-05
-0.00133491
-0.000106695
-0.00138194
-0.000130391
-0.00143501
-0.000153275
-0.00150141
-0.00017088
-0.00158807
-0.000175644
-0.00170308
-0.000157175
-0.00185692
-0.000102528
-0.0020589
1.02543e-06
-0.00229982
0.000162776
-0.00258915
0.000395749
-0.00299726
0.000717383
-0.00362764
0.00112979
-0.00455333
0.00161534
-0.00590135
0.00206581
-0.00761126
0.00227708
-0.00743691
0.00160013
-0.00239528
0.00510287
0.00455719
0.0040979
0.00271662
0.00449817
0.000360561
0.00453819
-0.000212429
0.00413011
-0.00041527
0.00344542
-0.000556285
0.00259728
-0.000572137
0.00167818
-0.000469746
0.000761982
-0.000292817
-9.72266e-05
-7.93519e-05
-0.000795217
9.97464e-05
-0.00125266
0.000157534
-0.00149973
0.000171268
-0.00162012
0.000152605
-0.00168645
0.000120659
-0.00173283
8.84737e-05
-0.00177553
5.8874e-05
-0.00182003
3.36676e-05
-0.00186849
1.2945e-05
-0.0019228
-4.98352e-06
-0.00198336
-2.25187e-05
-0.00205059
-3.94655e-05
-0.00212662
-5.43557e-05
-0.00221374
-6.61597e-05
-0.00231313
-7.14878e-05
-0.00242415
-6.46215e-05
-0.00254323
-3.81023e-05
-0.00266302
1.72658e-05
-0.00277173
0.000109733
-0.00286413
0.000255179
-0.00294542
0.000477033
-0.00301725
0.000789219
-0.00307538
0.00118792
-0.00308057
0.00162053
-0.00296322
0.00194846
-0.00227521
0.00158907
-0.000585882
-8.91947e-05
-0.00290295
-0.000438944
0.00505269
0.000857516
0.00142016
0.000822955
0.00039512
0.000550228
6.02967e-05
0.000171829
-3.68715e-05
-0.000350947
-3.35083e-05
-0.000939846
1.67627e-05
-0.00148969
8.00945e-05
-0.00192032
0.000137815
-0.00218161
0.000181937
-0.00228437
0.000202512
-0.00231718
0.000190338
-0.00231174
0.000165827
-0.00229719
0.00013806
-0.00228953
0.000112999
-0.00229298
9.19245e-05
-0.00230752
7.34111e-05
-0.00233061
5.67618e-05
-0.00235931
4.16412e-05
-0.00239218
2.78871e-05
-0.00243024
1.55385e-05
-0.00247351
3.80972e-06
-0.00252152
-6.35183e-06
-0.00257354
-1.41341e-05
-0.00262703
-1.80024e-05
-0.0026765
-1.51502e-05
-0.00271281
-1.796e-06
-0.00272503
2.9492e-05
-0.00270233
8.70262e-05
-0.0026247
0.000177554
-0.00246178
0.00031411
-0.00218513
0.000512569
-0.00177402
0.000776811
-0.00118528
0.00103179
-0.00012044
0.00088362
0.00176503
-0.000296398
0.0033766
-0.00170077
0.000559175
-0.00793653
-0.0107894
-0.00569261
-0.00424955
-0.00384031
-0.00377077
-0.00380149
-0.00383114
-0.00381224
-0.0037313
-0.00359373
-0.00341297
-0.00321245
-0.0030248
-0.00286224
-0.00272791
-0.002619
-0.00253147
-0.00246267
-0.00241069
-0.00237393
-0.00235097
-0.00234037
-0.00234148
-0.00235269
-0.00237161
-0.0023943
-0.00241403
-0.00242028
-0.00239508
-0.0023122
-0.00213864
-0.00182836
-0.00131949
-0.000546256
0.000482021
0.00136201
0.00106149
-0.000644759
)
;

boundaryField
{
    floor
    {
        type            calculated;
        value           nonuniform List<scalar> 
29
(
0
0
0
0
0
0
0
0
0
0
0
0
0
0
0
0
0
0
0
0
-4.02472e-06
-1.02242e-05
-1.5447e-05
-2.01137e-05
-1.66821e-06
-2.9976e-06
-8.73829e-06
-9.58639e-06
-8.40777e-06
)
;
    }
    ceiling
    {
        type            calculated;
        value           nonuniform List<scalar> 
43
(
-4.66549e-05
-4.53811e-05
-4.41122e-05
-2.28997e-05
-1.41162e-05
-9.24604e-06
-6.14661e-06
-3.85833e-06
-2.14293e-06
-8.41912e-07
2.42442e-07
1.17813e-06
1.99433e-06
2.69276e-06
3.26543e-06
3.72494e-06
4.09436e-06
4.38965e-06
4.61657e-06
4.7776e-06
4.87871e-06
4.92936e-06
4.9392e-06
4.91552e-06
4.86221e-06
4.78593e-06
4.69056e-06
4.57763e-06
4.44783e-06
4.30031e-06
4.14436e-06
3.98715e-06
3.83459e-06
3.69435e-06
3.57914e-06
3.51387e-06
3.63564e-06
4.11994e-06
5.47486e-06
6.42444e-06
1.02363e-05
7.19505e-06
-5.65598e-05
)
;
    }
    sWall
    {
        type            calculated;
        value           uniform -0.000271651;
    }
    nWall
    {
        type            calculated;
        value           nonuniform List<scalar> 6(-4.86398e-05 -5.81913e-05 -6.31463e-05 -7.82188e-05 -8.55164e-05 -9.20084e-05);
    }
    sideWalls
    {
        type            empty;
        value           nonuniform 0();
    }
    glass1
    {
        type            calculated;
        value           nonuniform List<scalar> 9(-5.73513e-05 -0.000154551 -0.000236462 -0.000306196 -0.000365395 -0.000415286 -0.000459876 -0.000513836 -0.000574226);
    }
    glass2
    {
        type            calculated;
        value           nonuniform List<scalar> 2(-0.000261 -0.000288893);
    }
    sun
    {
        type            calculated;
        value           uniform 0;
    }
    heatsource1
    {
        type            calculated;
        value           nonuniform List<scalar> 3(2.04209e-07 2.04143e-07 2.04161e-07);
    }
    heatsource2
    {
        type            calculated;
        value           nonuniform List<scalar> 4(5.11947e-08 5.12798e-08 0 0);
    }
    Table_master
    {
        type            calculated;
        value           nonuniform List<scalar> 9(-1.53162e-07 -1.53252e-07 -1.53284e-07 -1.53306e-07 -1.53321e-07 -1.53332e-07 -1.53338e-07 -1.53334e-07 -1.53306e-07);
    }
    Table_slave
    {
        type            calculated;
        value           nonuniform List<scalar> 9(1.53044e-07 1.53065e-07 1.53047e-07 1.53031e-07 1.53025e-07 1.53028e-07 1.53041e-07 1.53081e-07 1.53159e-07);
    }
    inlet
    {
        type            calculated;
        value           uniform -0.00662846;
    }
    outlet
    {
        type            calculated;
        value           nonuniform List<scalar> 2(0.00825484 0.00289826);
    }
}


// ************************************************************************* //
