// -*- C++ -*-
// File generated by PyFoam - sorry for the ugliness

FoamFile
{
 version 2.0;
 format ascii;
 class volScalarField;
 location "1100";
 object T;
}

dimensions [ 0 0 0 1 0 0 0 ];

internalField nonuniform List<scalar> 459
(
  303.388
  303.125
  303.112
  303.108
  303.104
  303.1
  303.096
  303.09
  303.081
  303.07
  303.057
  303.047
  303.04
  303.038
  303.044
  303.13
  303.11
  303.102
  303.104
  303.108
  303.112
  303.116
  303.12
  303.123
  303.127
  303.131
  303.135
  303.138
  303.142
  303.145
  303.149
  303.153
  303.159
  303.178
  303.567
  303.167
  303.144
  303.147
  303.15
  303.151
  303.149
  303.142
  303.125
  303.1
  303.073
  303.049
  303.032
  303.025
  303.023
  303.02
  303.017
  303.132
  303.095
  303.088
  303.09
  303.095
  303.099
  303.101
  303.102
  303.103
  303.104
  303.105
  303.106
  303.107
  303.109
  303.111
  303.115
  303.12
  303.129
  303.161
  303.754
  303.217
  303.18
  303.192
  303.207
  303.218
  303.223
  303.217
  303.19
  303.147
  303.097
  303.057
  303.031
  303.019
  303.018
  303.019
  303.019
  303.083
  303.077
  303.08
  303.088
  303.098
  303.105
  303.105
  303.105
  303.105
  303.105
  303.105
  303.105
  303.105
  303.105
  303.105
  303.108
  303.112
  303.12
  303.154
  303.943
  303.279
  303.217
  303.236
  303.267
  303.295
  303.314
  303.31
  303.269
  303.199
  303.122
  303.063
  303.027
  303.014
  303.014
  303.019
  303.024
  303.034
  303.046
  303.063
  303.082
  303.1
  303.116
  303.128
  303.139
  303.147
  303.155
  303.162
  303.168
  303.172
  303.175
  303.178
  303.178
  303.156
  303.137
  303.128
  303.153
  304.126
  303.357
  303.256
  303.272
  303.315
  303.363
  303.405
  303.401
  303.338
  303.238
  303.134
  303.06
  303.019
  303.006
  303.011
  303.023
  303.036
  303.051
  303.069
  303.09
  303.113
  303.134
  303.152
  303.168
  303.181
  303.192
  303.201
  303.208
  303.213
  303.215
  303.214
  303.21
  303.203
  303.186
  303.161
  303.141
  303.151
  303.224
  303.269
  303.276
  304.292
  303.457
  303.321
  303.313
  303.353
  303.414
  303.478
  303.459
  303.368
  303.245
  303.128
  303.044
  303.001
  302.994
  303.008
  303.031
  303.056
  303.08
  303.105
  303.131
  303.156
  303.178
  303.197
  303.212
  303.225
  303.235
  303.243
  303.248
  303.251
  303.25
  303.245
  303.237
  303.225
  303.208
  303.183
  303.158
  303.154
  303.184
  303.201
  303.236
  304.44
  303.618
  303.474
  303.438
  303.455
  303.51
  303.541
  303.48
  303.351
  303.202
  303.076
  302.997
  302.969
  302.979
  303.012
  303.053
  303.091
  303.126
  303.157
  303.184
  303.208
  303.228
  303.244
  303.257
  303.267
  303.274
  303.28
  303.283
  303.283
  303.279
  303.271
  303.259
  303.245
  303.227
  303.205
  303.181
  303.169
  303.177
  303.187
  303.216
  304.658
  304.041
  303.877
  303.773
  303.724
  303.709
  303.614
  303.442
  303.243
  303.072
  302.96
  302.915
  302.928
  302.975
  303.038
  303.099
  303.15
  303.188
  303.218
  303.241
  303.26
  303.275
  303.287
  303.296
  303.303
  303.307
  303.31
  303.31
  303.308
  303.303
  303.295
  303.283
  303.269
  303.253
  303.236
  303.219
  303.213
  303.226
  303.245
  303.372
  304.968
  304.68
  304.414
  304.184
  303.997
  303.782
  303.454
  303.134
  302.903
  302.786
  302.769
  302.822
  302.916
  303.015
  303.109
  303.182
  303.225
  303.253
  303.274
  303.291
  303.304
  303.314
  303.322
  303.328
  303.331
  303.333
  303.333
  303.332
  303.33
  303.327
  303.325
  303.325
  303.327
  303.334
  303.349
  303.373
  303.405
  303.438
  303.46
  303.515
  297.042
  299.184
  300.308
  300.75
  301.18
  301.608
  302.009
  302.353
  302.631
  302.854
  303.05
  303.158
  303.224
  303.264
  303.289
  303.307
  303.32
  303.331
  303.339
  303.345
  303.35
  303.352
  303.354
  303.356
  303.356
  303.357
  303.358
  303.359
  303.361
  303.363
  303.368
  303.376
  303.39
  303.41
  303.433
  303.457
  303.476
  303.496
  297.471
  299.36
  300.291
  300.981
  301.568
  302.087
  302.5
  302.787
  302.987
  303.123
  303.212
  303.265
  303.298
  303.319
  303.334
  303.345
  303.353
  303.359
  303.364
  303.367
  303.369
  303.371
  303.373
  303.374
  303.376
  303.377
  303.378
  303.379
  303.381
  303.383
  303.387
  303.393
  303.403
  303.416
  303.432
  303.45
  303.449
  303.478
  301.283
  299.537
  299.456
  301.214
  302.078
  302.526
  302.78
  302.958
  303.088
  303.177
  303.241
  303.284
  303.313
  303.331
  303.344
  303.352
  303.358
  303.363
  303.366
  303.369
  303.371
  303.373
  303.375
  303.377
  303.379
  303.381
  303.382
  303.384
  303.386
  303.387
  303.389
  303.391
  303.394
  303.397
  303.403
  303.413
  303.422
  303.428
  303.43
  303.469
)
;

boundaryField
{
  floor
  {
    type wallHeatTransfer;
    Tinf uniform 305.2;
    alphaWall uniform 0.24;
    value nonuniform List<scalar> 29
(
  303.266
  303.529
  303.468
  303.433
  303.432
  303.442
  303.456
  303.474
  303.494
  303.514
  303.534
  303.553
  303.571
  303.589
  303.605
  303.622
  303.639
  303.657
  303.671
  303.712
  303.712
  303.614
  303.566
  303.537
  303.266
  303.529
  303.519
  303.337
  303.225
)
;
  }
  ceiling
  {
    type wallHeatTransfer;
    Tinf uniform 303.2;
    alphaWall uniform 0.24;
    value nonuniform List<scalar> 43
(
  301.409
  299.776
  299.697
  301.339
  302.155
  302.575
  302.812
  302.977
  303.097
  303.179
  303.237
  303.275
  303.299
  303.314
  303.323
  303.329
  303.333
  303.336
  303.338
  303.34
  303.342
  303.344
  303.346
  303.348
  303.35
  303.353
  303.355
  303.357
  303.359
  303.362
  303.364
  303.367
  303.371
  303.375
  303.381
  303.391
  303.4
  303.405
  303.406
  303.439
  304.886
  304.621
  297.82
)
;
  }
  sWall
  {
    type wallHeatTransfer;
    Tinf uniform 315.2;
    alphaWall uniform 0.36;
    value uniform 302.612;
  }
  nWall
  {
    type wallHeatTransfer;
    Tinf uniform 307.2;
    alphaWall uniform 0.36;
    value nonuniform List<scalar> 6
(
  304.002
  303.947
  303.865
  304.03
  304.008
  304.067
)
;
  }
  sideWalls
  {
    type empty;
  }
  glass1
  {
    type wallHeatTransfer;
    Tinf uniform 315.2;
    alphaWall uniform 4.3;
    value nonuniform List<scalar> 9
(
  311.501
  310.864
  310.462
  310.154
  309.898
  309.665
  309.483
  309.549
  309.771
)
;
  }
  glass2
  {
    type wallHeatTransfer;
    Tinf uniform 307.2;
    alphaWall uniform 4.3;
    value nonuniform List<scalar> 2
(
  305.733
  305.838
)
;
  }
  sun
  {
    type wallHeatTransfer;
    Tinf uniform 305.2;
    alphaWall uniform 0.24;
    value nonuniform List<scalar> 14
(
  303.582
  303.332
  303.318
  303.307
  303.298
  303.289
  303.279
  303.269
  303.258
  303.246
  303.236
  303.23
  303.232
  303.243
)
;
  }
  heatsource1
  {
    type fixedGradient;
    gradient uniform 0;
  }
  heatsource2
  {
    type fixedGradient;
    gradient uniform 0;
  }
  Table_master
  {
    type zeroGradient;
  }
  Table_slave
  {
    type zeroGradient;
  }
  inlet
  {
    type fixedValue;
    value uniform 293.15;
  }
  outlet
  {
    type zeroGradient;
  }
} 	// ************************************************************************* //

