/*--------------------------------*- C++ -*----------------------------------*\
  =========                 |
  \\      /  F ield         | OpenFOAM: The Open Source CFD Toolbox
   \\    /   O peration     | Website:  https://openfoam.org
    \\  /    A nd           | Version:  6
     \\/     M anipulation  |
\*---------------------------------------------------------------------------*/
FoamFile
{
    version     2.0;
    format      ascii;
    class       volScalarField;
    location    "200";
    object      nut;
}
// * * * * * * * * * * * * * * * * * * * * * * * * * * * * * * * * * * * * * //

dimensions      [0 2 -1 0 0 0 0];

internalField   nonuniform List<scalar> 
459
(
0.00122602
0.00135291
0.00139486
0.00147057
0.00154611
0.0016265
0.00169255
0.0017322
0.00173662
0.00169885
0.00158101
0.0014327
0.00127598
0.00111503
0.000957802
0.000534603
0.000625227
0.000732339
0.000796352
0.000805364
0.000786088
0.000737417
0.000685238
0.000638213
0.000597255
0.000561681
0.000530697
0.000503451
0.000479326
0.000457436
0.000436586
0.000415093
0.000394134
0.000357564
0.00161565
0.00415367
0.00407402
0.00472681
0.00536009
0.00583026
0.00623921
0.00657944
0.00682143
0.00694101
0.00685941
0.0064856
0.00588736
0.00472975
0.00311597
0.00114348
0.000927983
0.000525573
0.00129308
0.00209047
0.00275471
0.00315726
0.00311069
0.0021768
0.00179653
0.00155128
0.00137473
0.0012412
0.0011367
0.00105368
0.000978317
0.000898308
0.000820948
0.000752225
0.000804042
0.000415332
0.0019336
0.00563632
0.0050261
0.00579463
0.00616021
0.00643158
0.00670166
0.00699935
0.00732614
0.00764651
0.0078189
0.00772995
0.00741093
0.006726
0.00543351
0.0034755
0.00110633
0.000671147
0.00135324
0.0022475
0.00322586
0.00392507
0.00376428
0.00100521
0.000873995
0.000768157
0.000683542
0.000615564
0.000560456
0.000515395
0.000479154
0.000452201
0.000509562
0.000611623
0.000927733
0.00045574
0.00223304
0.00700476
0.00518609
0.00598849
0.00610387
0.00620582
0.00635143
0.00660442
0.00698455
0.00742397
0.00770908
0.00779423
0.0076838
0.00735456
0.00660559
0.00525414
0.00282267
0.00123487
0.00146407
0.0021759
0.00326521
0.00437542
0.00512055
0.00478188
0.00114516
0.00103775
0.000954727
0.000886921
0.000827434
0.000771269
0.000715232
0.000656709
0.000591104
0.000542099
0.000594791
0.00106963
0.000486683
0.0025345
0.00872123
0.00574731
0.00616989
0.00620981
0.00614881
0.00615249
0.00636385
0.00676956
0.00721942
0.00754492
0.00765753
0.00758269
0.00737839
0.00700263
0.00632074
0.0051607
0.00454192
0.00492066
0.00557936
0.00630661
0.00687404
0.00713962
0.00691437
0.00562939
0.00492637
0.00445322
0.00401088
0.0035377
0.00303214
0.0025018
0.0019637
0.00144497
0.00101292
0.000804351
0.00102003
0.000607199
0.000577761
0.000695976
0.000782165
0.00285199
0.0106198
0.00760331
0.00688306
0.00671077
0.00634745
0.00617766
0.00632921
0.00674593
0.00722677
0.00755984
0.00764337
0.00753499
0.00738256
0.00730023
0.00723796
0.00710145
0.0072863
0.00788919
0.00839782
0.00871126
0.00878742
0.00862673
0.00822162
0.00752657
0.00684784
0.00621079
0.00557294
0.00491905
0.00423826
0.00353577
0.00282466
0.00213831
0.00154444
0.00118337
0.00107606
0.000827839
0.000733482
0.00106018
0.000818577
0.00312827
0.0118825
0.0101199
0.00844162
0.00736722
0.00654434
0.00623404
0.00640943
0.00690155
0.00744098
0.00777912
0.00782866
0.00772575
0.00776274
0.0081182
0.00854802
0.00892716
0.00939569
0.00986213
0.0100425
0.00996096
0.00965928
0.00918517
0.00857635
0.00785989
0.00714582
0.00645911
0.0057959
0.00514062
0.00448303
0.00384663
0.00322314
0.00261731
0.00205294
0.00166058
0.00141716
0.00120533
0.00117712
0.00123035
0.00095314
0.00317732
0.0101584
0.00922746
0.00795511
0.00676082
0.00611364
0.00608778
0.00655345
0.00725779
0.00787793
0.0081805
0.00819044
0.0082324
0.00887264
0.00942287
0.00981781
0.0101408
0.0104239
0.010556
0.0104083
0.010001
0.0094005
0.0086664
0.00784856
0.0070102
0.00622523
0.00550826
0.00484949
0.00427837
0.00382018
0.00347138
0.00317193
0.00286632
0.00253158
0.00234514
0.00233098
0.00253681
0.00303919
0.00377864
0.00145781
0.00309311
0.0036432
0.00397819
0.00406936
0.00432778
0.00498605
0.00597573
0.00709077
0.00804725
0.00855286
0.00857547
0.00872763
0.00915238
0.009646
0.00995695
0.0101216
0.0102076
0.010179
0.0099533
0.00948676
0.00880832
0.0079788
0.00705933
0.0061146
0.00520809
0.00439016
0.00369155
0.00314069
0.00273694
0.00246618
0.00229974
0.00220731
0.00216141
0.00214858
0.00216282
0.00218669
0.00217325
0.00208216
0.00194299
0.0013619
0.00144536
0.00298996
0.0057619
0.00768847
0.00885201
0.00940166
0.00946989
0.00905641
0.00864613
0.00868487
0.00896739
0.00912621
0.00914413
0.00908086
0.00892072
0.00860152
0.00808165
0.00737443
0.00654496
0.00567976
0.00485798
0.00413524
0.00353615
0.00306139
0.00270156
0.00244354
0.00227048
0.00216734
0.00212162
0.00212205
0.00215714
0.00221473
0.00227793
0.00232026
0.00231334
0.00226053
0.0021003
0.00116316
0.00198741
0.0061021
0.00842476
0.00909377
0.00890159
0.00831317
0.00766173
0.00716918
0.00690302
0.00678526
0.00668145
0.00656564
0.00645135
0.00631162
0.00609771
0.00577082
0.00533066
0.00482197
0.00431342
0.00386355
0.00350002
0.00322155
0.00301096
0.00284697
0.00271069
0.00258911
0.00247773
0.00238143
0.00231149
0.00227948
0.00228998
0.00233505
0.00239388
0.00244022
0.00241235
0.00246839
0.00249926
0.00119036
0.00178953
0.0018866
0.00195618
0.00209233
0.00193151
0.00180087
0.00168388
0.00155306
0.00142337
0.00131304
0.00123128
0.00117674
0.00114091
0.00111568
0.00109463
0.00107275
0.00104676
0.00101565
0.000980967
0.000945891
0.000913565
0.000885824
0.000862926
0.000844115
0.00082842
0.000815345
0.000805289
0.000799636
0.000800491
0.000810111
0.000830308
0.000862199
0.000906224
0.00096195
0.00102928
0.00109874
0.0011126
0.00106532
0.00101039
0.000950175
)
;

boundaryField
{
    floor
    {
        type            nutkWallFunction;
        Cmu             0.09;
        kappa           0.41;
        E               9.8;
        value           nonuniform List<scalar> 
29
(
0.000115751
6.41198e-05
7.54955e-05
8.86877e-05
9.64613e-05
9.75505e-05
9.52217e-05
8.93099e-05
8.292e-05
7.71112e-05
7.20095e-05
6.7544e-05
6.36263e-05
6.01579e-05
5.70674e-05
5.42462e-05
5.15433e-05
4.874e-05
4.5988e-05
4.1141e-05
4.11409e-05
4.87676e-05
5.40209e-05
5.8004e-05
0.000115751
6.41198e-05
6.2973e-05
8.11693e-05
0.000148008
)
;
    }
    ceiling
    {
        type            nutkWallFunction;
        Cmu             0.09;
        kappa           0.41;
        E               9.8;
        value           nonuniform List<scalar> 
43
(
0.000210243
0.000220903
0.00022851
0.00024343
0.000225958
0.000211626
0.00019869
0.000184104
0.000169511
0.000156981
0.000147623
0.000141342
0.000137198
0.000134272
0.000131824
0.000129274
0.000126236
0.000122587
0.000118505
0.000114358
0.000110521
0.000107216
0.000104478
0.000102223
0.000100337
9.87618e-05
9.75478e-05
9.68637e-05
9.69647e-05
9.81229e-05
0.000100552
0.000104376
0.000109628
0.000116236
0.000124161
0.000132277
0.000133889
0.000128377
0.000121941
0.000114843
0.000349798
0.000406581
0.000231747
)
;
    }
    sWall
    {
        type            nutkWallFunction;
        Cmu             0.09;
        kappa           0.41;
        E               9.8;
        value           uniform 0.000210301;
    }
    nWall
    {
        type            nutkWallFunction;
        Cmu             0.09;
        kappa           0.41;
        E               9.8;
        value           nonuniform List<scalar> 6(9.47344e-05 9.91321e-05 0.00011519 0.000139769 0.000142913 0.000114847);
    }
    sideWalls
    {
        type            empty;
    }
    glass1
    {
        type            nutkWallFunction;
        Cmu             0.09;
        kappa           0.41;
        E               9.8;
        value           nonuniform List<scalar> 9(0.000147157 0.000191346 0.000226521 0.000259076 0.000291382 0.000324972 0.000353885 0.000359001 0.000350248);
    }
    glass2
    {
        type            nutkWallFunction;
        Cmu             0.09;
        kappa           0.41;
        E               9.8;
        value           nonuniform List<scalar> 2(0.000173455 0.000162593);
    }
    sun
    {
        type            nutkWallFunction;
        Cmu             0.09;
        kappa           0.41;
        E               9.8;
        value           nonuniform List<scalar> 
14
(
0.000147005
0.000161507
0.000166269
0.000174824
0.000183311
0.000192294
0.000199637
0.000204029
0.000204517
0.000200334
0.000187202
0.000170544
0.000152726
0.000134174
)
;
    }
    heatsource1
    {
        type            nutkWallFunction;
        Cmu             0.09;
        kappa           0.41;
        E               9.8;
        value           nonuniform List<scalar> 3(6.95564e-05 8.42275e-05 9.47344e-05);
    }
    heatsource2
    {
        type            nutkWallFunction;
        Cmu             0.09;
        kappa           0.41;
        E               9.8;
        value           nonuniform List<scalar> 4(0.000137467 0.000112215 0.000112215 0.000133151);
    }
    Table_master
    {
        type            nutkWallFunction;
        Cmu             0.09;
        kappa           0.41;
        E               9.8;
        value           nonuniform List<scalar> 9(0.000121343 0.00010579 9.30479e-05 8.27113e-05 7.42962e-05 6.73918e-05 6.16843e-05 5.70495e-05 5.35742e-05);
    }
    Table_slave
    {
        type            nutkWallFunction;
        Cmu             0.09;
        kappa           0.41;
        E               9.8;
        value           nonuniform List<scalar> 9(0.000137677 0.000125163 0.000115389 0.000107334 0.000100208 9.34237e-05 8.65966e-05 7.93981e-05 7.1236e-05);
    }
    inlet
    {
        type            calculated;
        value           uniform 0.000100623;
    }
    outlet
    {
        type            calculated;
        value           nonuniform List<scalar> 2(0.00178953 0.0018866);
    }
}


// ************************************************************************* //
