// -*- C++ -*-
// File generated by PyFoam - sorry for the ugliness

FoamFile
{
 version 2.0;
 format ascii;
 class volScalarField;
 location "1400";
 object T;
}

dimensions [ 0 0 0 1 0 0 0 ];

internalField nonuniform List<scalar> 459
(
  303.389
  303.126
  303.113
  303.109
  303.105
  303.101
  303.097
  303.091
  303.082
  303.071
  303.058
  303.048
  303.041
  303.039
  303.045
  303.131
  303.111
  303.103
  303.105
  303.109
  303.113
  303.117
  303.12
  303.124
  303.128
  303.132
  303.135
  303.139
  303.143
  303.146
  303.15
  303.154
  303.16
  303.179
  303.568
  303.168
  303.145
  303.148
  303.151
  303.152
  303.15
  303.143
  303.126
  303.102
  303.074
  303.05
  303.033
  303.026
  303.024
  303.021
  303.018
  303.133
  303.096
  303.089
  303.091
  303.095
  303.1
  303.102
  303.103
  303.104
  303.105
  303.106
  303.107
  303.108
  303.11
  303.112
  303.116
  303.121
  303.13
  303.162
  303.755
  303.218
  303.181
  303.193
  303.208
  303.219
  303.224
  303.218
  303.192
  303.148
  303.099
  303.058
  303.032
  303.02
  303.019
  303.02
  303.02
  303.084
  303.078
  303.081
  303.089
  303.099
  303.106
  303.106
  303.106
  303.106
  303.106
  303.106
  303.106
  303.106
  303.106
  303.106
  303.109
  303.113
  303.121
  303.155
  303.944
  303.28
  303.218
  303.237
  303.268
  303.297
  303.316
  303.311
  303.27
  303.2
  303.123
  303.064
  303.028
  303.015
  303.015
  303.02
  303.025
  303.035
  303.047
  303.064
  303.083
  303.101
  303.117
  303.129
  303.139
  303.148
  303.156
  303.163
  303.168
  303.173
  303.176
  303.178
  303.179
  303.157
  303.138
  303.128
  303.154
  304.127
  303.358
  303.257
  303.273
  303.316
  303.364
  303.406
  303.402
  303.34
  303.239
  303.135
  303.061
  303.02
  303.007
  303.011
  303.023
  303.037
  303.052
  303.07
  303.091
  303.113
  303.135
  303.153
  303.168
  303.182
  303.193
  303.202
  303.209
  303.214
  303.216
  303.215
  303.211
  303.204
  303.186
  303.162
  303.141
  303.151
  303.225
  303.27
  303.276
  304.293
  303.458
  303.322
  303.314
  303.354
  303.415
  303.479
  303.46
  303.37
  303.246
  303.129
  303.045
  303.002
  302.995
  303.009
  303.032
  303.056
  303.081
  303.106
  303.132
  303.157
  303.179
  303.198
  303.213
  303.225
  303.235
  303.243
  303.249
  303.251
  303.251
  303.245
  303.237
  303.226
  303.208
  303.184
  303.159
  303.154
  303.185
  303.202
  303.237
  304.441
  303.619
  303.475
  303.439
  303.456
  303.511
  303.542
  303.482
  303.353
  303.204
  303.078
  302.998
  302.97
  302.98
  303.013
  303.054
  303.092
  303.126
  303.157
  303.185
  303.208
  303.229
  303.245
  303.257
  303.267
  303.275
  303.28
  303.283
  303.283
  303.28
  303.272
  303.26
  303.246
  303.228
  303.205
  303.181
  303.169
  303.177
  303.187
  303.217
  304.659
  304.042
  303.878
  303.774
  303.725
  303.71
  303.616
  303.444
  303.245
  303.073
  302.961
  302.916
  302.928
  302.975
  303.038
  303.1
  303.15
  303.189
  303.218
  303.241
  303.26
  303.276
  303.287
  303.297
  303.303
  303.308
  303.31
  303.31
  303.308
  303.304
  303.296
  303.284
  303.269
  303.253
  303.236
  303.219
  303.213
  303.226
  303.245
  303.373
  304.969
  304.681
  304.415
  304.185
  303.998
  303.784
  303.456
  303.136
  302.905
  302.788
  302.77
  302.822
  302.916
  303.015
  303.109
  303.182
  303.225
  303.254
  303.274
  303.291
  303.304
  303.315
  303.323
  303.328
  303.332
  303.334
  303.334
  303.333
  303.33
  303.328
  303.326
  303.326
  303.328
  303.335
  303.349
  303.373
  303.406
  303.439
  303.461
  303.516
  297.044
  299.187
  300.312
  300.753
  301.182
  301.609
  302.01
  302.353
  302.63
  302.853
  303.05
  303.158
  303.224
  303.265
  303.29
  303.307
  303.321
  303.331
  303.339
  303.346
  303.35
  303.353
  303.355
  303.356
  303.357
  303.358
  303.359
  303.36
  303.361
  303.364
  303.368
  303.377
  303.391
  303.41
  303.434
  303.458
  303.476
  303.497
  297.472
  299.363
  300.293
  300.981
  301.567
  302.086
  302.499
  302.787
  302.987
  303.123
  303.212
  303.265
  303.298
  303.32
  303.334
  303.345
  303.354
  303.36
  303.364
  303.368
  303.37
  303.372
  303.374
  303.375
  303.376
  303.377
  303.379
  303.38
  303.382
  303.384
  303.388
  303.394
  303.403
  303.417
  303.433
  303.451
  303.449
  303.479
  301.283
  299.537
  299.456
  301.214
  302.078
  302.526
  302.78
  302.958
  303.088
  303.177
  303.241
  303.284
  303.313
  303.332
  303.344
  303.352
  303.358
  303.363
  303.366
  303.369
  303.372
  303.374
  303.376
  303.377
  303.379
  303.381
  303.383
  303.384
  303.386
  303.388
  303.39
  303.392
  303.394
  303.398
  303.403
  303.413
  303.423
  303.429
  303.431
  303.47
)
;

boundaryField
{
  floor
  {
    type wallHeatTransfer;
    Tinf uniform 305.2;
    alphaWall uniform 0.24;
    value nonuniform List<scalar> 29
(
  303.267
  303.529
  303.468
  303.433
  303.433
  303.443
  303.456
  303.475
  303.495
  303.515
  303.535
  303.554
  303.572
  303.589
  303.606
  303.623
  303.639
  303.658
  303.672
  303.713
  303.713
  303.615
  303.567
  303.538
  303.267
  303.529
  303.52
  303.338
  303.226
)
;
  }
  ceiling
  {
    type wallHeatTransfer;
    Tinf uniform 303.2;
    alphaWall uniform 0.24;
    value nonuniform List<scalar> 43
(
  301.408
  299.776
  299.697
  301.339
  302.155
  302.575
  302.812
  302.977
  303.098
  303.179
  303.237
  303.275
  303.299
  303.314
  303.323
  303.329
  303.333
  303.336
  303.339
  303.341
  303.343
  303.345
  303.347
  303.349
  303.351
  303.353
  303.355
  303.358
  303.36
  303.362
  303.365
  303.368
  303.371
  303.376
  303.381
  303.392
  303.401
  303.406
  303.406
  303.439
  304.887
  304.622
  297.821
)
;
  }
  sWall
  {
    type wallHeatTransfer;
    Tinf uniform 315.2;
    alphaWall uniform 0.36;
    value uniform 302.612;
  }
  nWall
  {
    type wallHeatTransfer;
    Tinf uniform 307.2;
    alphaWall uniform 0.36;
    value nonuniform List<scalar> 6
(
  304.002
  303.948
  303.868
  304.031
  304.009
  304.067
)
;
  }
  sideWalls
  {
    type empty;
  }
  glass1
  {
    type wallHeatTransfer;
    Tinf uniform 315.2;
    alphaWall uniform 4.3;
    value nonuniform List<scalar> 9
(
  311.502
  310.865
  310.463
  310.156
  309.899
  309.666
  309.484
  309.55
  309.771
)
;
  }
  glass2
  {
    type wallHeatTransfer;
    Tinf uniform 307.2;
    alphaWall uniform 4.3;
    value nonuniform List<scalar> 2
(
  305.736
  305.84
)
;
  }
  sun
  {
    type wallHeatTransfer;
    Tinf uniform 305.2;
    alphaWall uniform 0.24;
    value nonuniform List<scalar> 14
(
  303.583
  303.333
  303.319
  303.308
  303.299
  303.29
  303.28
  303.27
  303.259
  303.247
  303.237
  303.231
  303.233
  303.244
)
;
  }
  heatsource1
  {
    type fixedGradient;
    gradient uniform 0;
  }
  heatsource2
  {
    type fixedGradient;
    gradient uniform 0;
  }
  Table_master
  {
    type zeroGradient;
  }
  Table_slave
  {
    type zeroGradient;
  }
  inlet
  {
    type fixedValue;
    value uniform 293.15;
  }
  outlet
  {
    type zeroGradient;
  }
} 	// ************************************************************************* //

