/*--------------------------------*- C++ -*----------------------------------*\
  =========                 |
  \\      /  F ield         | OpenFOAM: The Open Source CFD Toolbox
   \\    /   O peration     | Website:  https://openfoam.org
    \\  /    A nd           | Version:  6
     \\/     M anipulation  |
\*---------------------------------------------------------------------------*/
FoamFile
{
    version     2.0;
    format      ascii;
    class       volScalarField;
    location    "1500";
    object      nut;
}
// * * * * * * * * * * * * * * * * * * * * * * * * * * * * * * * * * * * * * //

dimensions      [0 2 -1 0 0 0 0];

internalField   nonuniform List<scalar> 
459
(
0.00106524
0.00116146
0.0011835
0.00124002
0.00129242
0.00134186
0.00139101
0.00143788
0.00147076
0.00148334
0.00146963
0.00142539
0.00134858
0.00124136
0.00111546
0.000464543
0.000554542
0.000626867
0.000633414
0.000615641
0.000589778
0.00055358
0.00051661
0.000482968
0.000453185
0.000426881
0.000403572
0.000382862
0.000364349
0.000347359
0.000331047
0.000314259
0.000303795
0.000278105
0.00145068
0.00344234
0.00325872
0.00378054
0.00429207
0.00480482
0.00524996
0.00559668
0.00591849
0.00618573
0.00636176
0.00640897
0.00628235
0.00587517
0.00473656
0.00113579
0.000707306
0.000484177
0.00102137
0.00143348
0.00174669
0.00193289
0.00194349
0.00153471
0.00131811
0.00116462
0.00104745
0.000954897
0.000879919
0.000816365
0.000757096
0.000699576
0.0006485
0.000603518
0.000716785
0.000369664
0.00177152
0.00466976
0.00397585
0.00495315
0.00540259
0.00572946
0.00598469
0.00620963
0.00647039
0.00675277
0.00702339
0.00723171
0.00733213
0.00724846
0.00675965
0.00518482
0.0011712
0.000909388
0.00132775
0.00173417
0.00212994
0.00242529
0.00239745
0.00078706
0.00069609
0.000622196
0.00056221
0.000513173
0.000472726
0.000439125
0.000411246
0.000388601
0.000419805
0.000484464
0.000810398
0.000431764
0.00208004
0.0059735
0.00392542
0.00517396
0.00551406
0.0055966
0.00566532
0.00579258
0.00601128
0.00630559
0.00664358
0.00695328
0.00718514
0.00727307
0.00716884
0.00660692
0.00442445
0.00137037
0.00164397
0.00210115
0.00260452
0.00305519
0.00336759
0.00320976
0.00089116
0.000815437
0.000761507
0.000720492
0.000685428
0.000652573
0.000620897
0.000587439
0.000548422
0.000514697
0.000519947
0.000941955
0.000480971
0.0023948
0.0076748
0.00424281
0.00493434
0.00540241
0.00535526
0.00530878
0.00540457
0.00560933
0.00591053
0.00628448
0.00662585
0.00686359
0.00695385
0.00689864
0.00667429
0.0061081
0.00517794
0.00486482
0.00481969
0.00487363
0.00493595
0.00494737
0.0047947
0.00407717
0.00372924
0.00352735
0.00337045
0.00320382
0.00296531
0.00263478
0.0022287
0.00177572
0.0013252
0.000978008
0.000964579
0.00065462
0.000594005
0.000716186
0.000804367
0.00272921
0.00954171
0.00583423
0.00476957
0.00522224
0.00536997
0.00522526
0.00531505
0.00548497
0.00576447
0.00612895
0.0064853
0.00672201
0.00677304
0.00665456
0.00645324
0.00626541
0.0061501
0.00616783
0.00620451
0.00618612
0.00610229
0.00595576
0.00573488
0.00540022
0.00509919
0.00483279
0.00457833
0.00432092
0.004046
0.0036975
0.00325893
0.0027296
0.00214217
0.00161474
0.0011886
0.000909664
0.000776356
0.00110388
0.000841272
0.00304317
0.0108903
0.00836311
0.00605404
0.00565712
0.00568744
0.00554577
0.00546581
0.00554845
0.00581498
0.00619958
0.006574
0.00679962
0.00680082
0.00661408
0.00639535
0.00634911
0.00653627
0.00676568
0.00684579
0.00674803
0.00652078
0.00620807
0.00584177
0.00545509
0.00510238
0.00478724
0.00449894
0.00423489
0.00399968
0.00379281
0.00351096
0.00310558
0.00260439
0.00211543
0.00166451
0.00134586
0.00125437
0.0012842
0.000964972
0.00311105
0.00988086
0.00857406
0.00760003
0.00700663
0.00634349
0.00578866
0.00555693
0.00566364
0.00602365
0.00648804
0.00688142
0.00705159
0.00694854
0.00666946
0.00645964
0.00655525
0.0068611
0.00699331
0.00685884
0.0065315
0.00608621
0.0055892
0.00510443
0.00468213
0.0043382
0.00405732
0.00382628
0.00364378
0.00351516
0.00344732
0.00341766
0.00322366
0.00290822
0.00262678
0.0024885
0.00260533
0.00301692
0.00368409
0.001497
0.00303611
0.00362533
0.00409499
0.00424253
0.00425483
0.00435489
0.00464226
0.0051442
0.00581579
0.00652424
0.00710225
0.00740465
0.00733624
0.00696553
0.00657395
0.00650858
0.0065822
0.00658805
0.00638816
0.00598388
0.00545096
0.00487609
0.00434157
0.00390033
0.0035622
0.00330582
0.00310445
0.00293991
0.00280063
0.00267684
0.00255959
0.00244767
0.00235845
0.00229277
0.00226866
0.0022781
0.00226045
0.00216227
0.00201547
0.00139997
0.001827
0.00325927
0.0045165
0.00556688
0.00642285
0.00719275
0.00779196
0.00809328
0.00805476
0.0076953
0.00706862
0.00636897
0.00594841
0.00579804
0.00563082
0.00531749
0.00486378
0.004337
0.00380749
0.00334074
0.00297763
0.00271476
0.00252896
0.00239641
0.00230067
0.00223219
0.00218561
0.00215829
0.00215223
0.00216885
0.00219466
0.00222647
0.00225625
0.00225862
0.00219318
0.00204795
0.00183669
0.00114857
0.00212462
0.00457351
0.00626244
0.00706213
0.00760305
0.00797927
0.00794607
0.00744234
0.00667424
0.00585442
0.00516876
0.00467699
0.00435021
0.0040558
0.00370051
0.00329998
0.00290398
0.00255998
0.00229411
0.00210582
0.00197533
0.00188728
0.00183556
0.00181304
0.00181431
0.00183556
0.00187329
0.0019229
0.00198997
0.00207135
0.00216436
0.0022624
0.00234987
0.00240848
0.0023901
0.00240454
0.00237466
0.00116788
0.00197013
0.00196504
0.00200144
0.00207451
0.00187996
0.00172644
0.00165372
0.00157932
0.00147103
0.0013372
0.00118511
0.00103472
0.000902145
0.000797428
0.000721913
0.000668762
0.000630621
0.000603297
0.00058512
0.000575352
0.000573111
0.000577272
0.000586841
0.000601342
0.000619773
0.000641875
0.000667757
0.000697723
0.000732368
0.000772798
0.000818328
0.000869147
0.000925873
0.000989075
0.00105855
0.00114238
0.00116854
0.00113856
0.00106645
0.000989632
)
;

boundaryField
{
    floor
    {
        type            nutkWallFunction;
        Cmu             0.09;
        kappa           0.41;
        E               9.8;
        value           nonuniform List<scalar> 
29
(
0.000134222
5.51575e-05
6.66366e-05
7.56944e-05
7.65078e-05
7.42972e-05
7.10663e-05
6.65152e-05
6.1829e-05
5.75286e-05
5.36903e-05
5.02738e-05
4.72242e-05
4.44957e-05
4.20407e-05
3.97734e-05
3.75832e-05
3.53142e-05
3.38919e-05
3.03717e-05
3.03717e-05
4.27466e-05
5.09094e-05
5.72714e-05
0.000134222
5.51575e-05
5.76835e-05
0.000110004
0.000163492
)
;
    }
    ceiling
    {
        type            nutkWallFunction;
        Cmu             0.09;
        kappa           0.41;
        E               9.8;
        value           nonuniform List<scalar> 
43
(
0.000230094
0.000229457
0.000233418
0.000241445
0.000220269
0.000203374
0.000195314
0.000187025
0.000174876
0.000159721
0.000142289
0.000124801
0.000109142
9.65845e-05
8.74088e-05
8.08825e-05
7.6161e-05
7.27575e-05
7.0483e-05
6.92571e-05
6.89754e-05
6.94982e-05
7.06986e-05
7.25131e-05
7.48118e-05
7.75576e-05
8.07584e-05
8.44459e-05
8.86857e-05
9.36036e-05
9.91056e-05
0.000105205
0.000111964
0.000119439
0.000127593
0.000137351
0.000140379
0.000136908
0.000128516
0.000119505
0.000343889
0.000404794
0.000246672
)
;
    }
    sWall
    {
        type            nutkWallFunction;
        Cmu             0.09;
        kappa           0.41;
        E               9.8;
        value           uniform 0.000230154;
    }
    nWall
    {
        type            nutkWallFunction;
        Cmu             0.09;
        kappa           0.41;
        E               9.8;
        value           nonuniform List<scalar> 6(9.74231e-05 0.000101866 0.000116599 0.000138078 0.000140313 0.000119511);
    }
    sideWalls
    {
        type            empty;
    }
    glass1
    {
        type            nutkWallFunction;
        Cmu             0.09;
        kappa           0.41;
        E               9.8;
        value           nonuniform List<scalar> 9(0.000128473 0.000172801 0.00020868 0.000242512 0.000276476 0.000312046 0.000345028 0.000352121 0.000344317);
    }
    glass2
    {
        type            nutkWallFunction;
        Cmu             0.09;
        kappa           0.41;
        E               9.8;
        value           nonuniform List<scalar> 2(0.000177879 0.000166922);
    }
    sun
    {
        type            nutkWallFunction;
        Cmu             0.09;
        kappa           0.41;
        E               9.8;
        value           nonuniform List<scalar> 
14
(
0.000128375
0.000139558
0.000142104
0.000148611
0.000154614
0.000160253
0.000165835
0.000171139
0.000174847
0.000176265
0.00017472
0.000169726
0.000161016
0.000148763
)
;
    }
    heatsource1
    {
        type            nutkWallFunction;
        Cmu             0.09;
        kappa           0.41;
        E               9.8;
        value           nonuniform List<scalar> 3(7.15974e-05 8.67089e-05 9.74223e-05);
    }
    heatsource2
    {
        type            nutkWallFunction;
        Cmu             0.09;
        kappa           0.41;
        E               9.8;
        value           nonuniform List<scalar> 4(0.000136579 8.56226e-05 8.56226e-05 0.000140678);
    }
    Table_master
    {
        type            nutkWallFunction;
        Cmu             0.09;
        kappa           0.41;
        E               9.8;
        value           nonuniform List<scalar> 9(9.5331e-05 8.42467e-05 7.51158e-05 6.76071e-05 6.13961e-05 5.62181e-05 5.18744e-05 4.82387e-05 4.52626e-05);
    }
    Table_slave
    {
        type            nutkWallFunction;
        Cmu             0.09;
        kappa           0.41;
        E               9.8;
        value           nonuniform List<scalar> 9(0.000107832 9.87569e-05 9.22334e-05 8.72358e-05 8.29364e-05 7.88839e-05 7.49536e-05 7.07757e-05 6.58668e-05);
    }
    inlet
    {
        type            calculated;
        value           uniform 0.000100623;
    }
    outlet
    {
        type            calculated;
        value           nonuniform List<scalar> 2(0.00197013 0.00196504);
    }
}


// ************************************************************************* //
