// -*- C++ -*-
// File generated by PyFoam - sorry for the ugliness

FoamFile
{
 version 2.0;
 format ascii;
 class volScalarField;
 location "800";
 object T;
}

dimensions [ 0 0 0 1 0 0 0 ];

internalField nonuniform List<scalar> 459
(
  303.334
  303.065
  303.053
  303.05
  303.047
  303.044
  303.04
  303.036
  303.029
  303.019
  303.006
  302.994
  302.982
  302.975
  302.973
  303.019
  303.003
  302.997
  302.996
  302.997
  302.998
  303
  303.001
  303.002
  303.003
  303.003
  303.003
  303.003
  303.002
  303.001
  303
  302.998
  302.997
  303.01
  303.522
  303.107
  303.086
  303.09
  303.095
  303.097
  303.097
  303.094
  303.084
  303.064
  303.038
  303.01
  302.986
  302.969
  302.959
  302.95
  302.932
  303.021
  302.995
  302.988
  302.987
  302.987
  302.986
  302.985
  302.983
  302.981
  302.979
  302.977
  302.975
  302.972
  302.97
  302.968
  302.966
  302.966
  302.966
  302.992
  303.716
  303.157
  303.121
  303.135
  303.151
  303.164
  303.173
  303.174
  303.161
  303.128
  303.083
  303.035
  302.997
  302.972
  302.959
  302.954
  302.948
  302.986
  302.983
  302.984
  302.987
  302.99
  302.991
  302.989
  302.986
  302.983
  302.981
  302.978
  302.975
  302.972
  302.968
  302.965
  302.962
  302.96
  302.958
  302.984
  303.91
  303.218
  303.155
  303.176
  303.206
  303.236
  303.259
  303.27
  303.252
  303.201
  303.13
  303.058
  303.004
  302.971
  302.957
  302.955
  302.957
  302.964
  302.97
  302.979
  302.988
  302.996
  303.003
  303.007
  303.01
  303.013
  303.015
  303.017
  303.018
  303.018
  303.018
  303.017
  303.014
  302.996
  302.977
  302.964
  302.983
  304.097
  303.294
  303.191
  303.207
  303.247
  303.293
  303.336
  303.361
  303.337
  303.264
  303.167
  303.071
  303.003
  302.966
  302.953
  302.954
  302.961
  302.97
  302.981
  302.994
  303.006
  303.017
  303.025
  303.031
  303.036
  303.04
  303.043
  303.044
  303.045
  303.043
  303.04
  303.035
  303.028
  303.013
  302.993
  302.973
  302.978
  303.041
  303.078
  303.087
  304.264
  303.392
  303.249
  303.238
  303.273
  303.323
  303.385
  303.429
  303.39
  303.293
  303.175
  303.068
  302.993
  302.954
  302.945
  302.953
  302.968
  302.984
  303.001
  303.017
  303.032
  303.043
  303.052
  303.058
  303.062
  303.065
  303.067
  303.068
  303.067
  303.063
  303.057
  303.049
  303.039
  303.025
  303.006
  302.985
  302.979
  303.003
  303.016
  303.05
  304.409
  303.551
  303.395
  303.344
  303.349
  303.385
  303.451
  303.469
  303.404
  303.281
  303.144
  303.03
  302.959
  302.93
  302.934
  302.955
  302.982
  303.008
  303.03
  303.048
  303.062
  303.072
  303.079
  303.084
  303.087
  303.089
  303.09
  303.089
  303.087
  303.081
  303.073
  303.062
  303.05
  303.036
  303.019
  302.999
  302.989
  302.994
  303.002
  303.03
  304.627
  303.984
  303.804
  303.676
  303.605
  303.588
  303.587
  303.512
  303.367
  303.194
  303.043
  302.942
  302.897
  302.899
  302.928
  302.97
  303.011
  303.043
  303.066
  303.081
  303.091
  303.098
  303.103
  303.107
  303.109
  303.11
  303.11
  303.108
  303.105
  303.1
  303.092
  303.08
  303.068
  303.056
  303.043
  303.03
  303.026
  303.038
  303.058
  303.195
  304.936
  304.642
  304.372
  304.136
  303.958
  303.826
  303.656
  303.401
  303.142
  302.943
  302.832
  302.8
  302.824
  302.883
  302.949
  303.014
  303.058
  303.083
  303.098
  303.109
  303.116
  303.121
  303.124
  303.127
  303.129
  303.13
  303.13
  303.129
  303.128
  303.126
  303.126
  303.128
  303.133
  303.143
  303.161
  303.188
  303.223
  303.258
  303.282
  303.339
  297.42
  299.899
  301.204
  301.655
  301.828
  301.99
  302.158
  302.334
  302.517
  302.68
  302.82
  302.949
  303.031
  303.077
  303.101
  303.115
  303.125
  303.131
  303.136
  303.14
  303.144
  303.146
  303.149
  303.151
  303.153
  303.156
  303.158
  303.161
  303.164
  303.168
  303.175
  303.186
  303.202
  303.223
  303.248
  303.271
  303.287
  303.303
  297.873
  299.932
  300.82
  301.316
  301.651
  301.957
  302.239
  302.491
  302.743
  302.902
  303.004
  303.068
  303.102
  303.121
  303.132
  303.139
  303.145
  303.149
  303.153
  303.157
  303.16
  303.163
  303.166
  303.169
  303.172
  303.175
  303.178
  303.181
  303.184
  303.188
  303.193
  303.201
  303.213
  303.228
  303.245
  303.262
  303.257
  303.285
  299.513
  299.448
  299.444
  301.013
  301.75
  302.188
  302.501
  302.715
  302.863
  302.97
  303.044
  303.088
  303.115
  303.133
  303.143
  303.15
  303.155
  303.159
  303.162
  303.165
  303.167
  303.17
  303.172
  303.175
  303.177
  303.18
  303.182
  303.185
  303.187
  303.189
  303.192
  303.195
  303.199
  303.204
  303.21
  303.222
  303.232
  303.237
  303.238
  303.275
)
;

boundaryField
{
  floor
  {
    type wallHeatTransfer;
    Tinf uniform 305.2;
    alphaWall uniform 0.24;
    value nonuniform List<scalar> 29
(
  303.205
  303.465
  303.402
  303.372
  303.378
  303.39
  303.406
  303.424
  303.444
  303.463
  303.481
  303.499
  303.515
  303.53
  303.545
  303.558
  303.572
  303.587
  303.589
  303.62
  303.62
  303.488
  303.429
  303.396
  303.205
  303.465
  303.445
  303.254
  303.175
)
;
  }
  ceiling
  {
    type wallHeatTransfer;
    Tinf uniform 303.2;
    alphaWall uniform 0.24;
    value nonuniform List<scalar> 43
(
  299.76
  299.69
  299.678
  301.146
  301.846
  302.262
  302.557
  302.757
  302.894
  302.993
  303.061
  303.102
  303.127
  303.143
  303.153
  303.159
  303.163
  303.166
  303.169
  303.171
  303.173
  303.175
  303.177
  303.179
  303.181
  303.183
  303.185
  303.187
  303.189
  303.191
  303.193
  303.196
  303.199
  303.203
  303.209
  303.22
  303.229
  303.233
  303.234
  303.267
  304.855
  304.584
  298.189
)
;
  }
  sWall
  {
    type wallHeatTransfer;
    Tinf uniform 315.2;
    alphaWall uniform 0.36;
    value uniform 301.045;
  }
  nWall
  {
    type wallHeatTransfer;
    Tinf uniform 307.2;
    alphaWall uniform 0.36;
    value nonuniform List<scalar> 6
(
  303.84
  303.788
  303.711
  303.863
  303.842
  303.895
)
;
  }
  sideWalls
  {
    type empty;
  }
  glass1
  {
    type wallHeatTransfer;
    Tinf uniform 315.2;
    alphaWall uniform 4.3;
    value nonuniform List<scalar> 9
(
  311.631
  310.966
  310.543
  310.215
  309.941
  309.694
  309.492
  309.55
  309.767
)
;
  }
  glass2
  {
    type wallHeatTransfer;
    Tinf uniform 307.2;
    alphaWall uniform 4.3;
    value nonuniform List<scalar> 2
(
  305.657
  305.767
)
;
  }
  sun
  {
    type wallHeatTransfer;
    Tinf uniform 305.2;
    alphaWall uniform 0.24;
    value nonuniform List<scalar> 14
(
  303.545
  303.291
  303.279
  303.269
  303.26
  303.251
  303.243
  303.234
  303.225
  303.214
  303.203
  303.194
  303.191
  303.195
)
;
  }
  heatsource1
  {
    type fixedGradient;
    gradient uniform 0;
  }
  heatsource2
  {
    type fixedGradient;
    gradient uniform 0;
  }
  Table_master
  {
    type zeroGradient;
  }
  Table_slave
  {
    type zeroGradient;
  }
  inlet
  {
    type fixedValue;
    value uniform 293.15;
  }
  outlet
  {
    type zeroGradient;
  }
} 	// ************************************************************************* //

