/*--------------------------------*- C++ -*----------------------------------*\
  =========                 |
  \\      /  F ield         | OpenFOAM: The Open Source CFD Toolbox
   \\    /   O peration     | Website:  https://openfoam.org
    \\  /    A nd           | Version:  6
     \\/     M anipulation  |
\*---------------------------------------------------------------------------*/
FoamFile
{
    version     2.0;
    format      ascii;
    class       volScalarField;
    location    "1600";
    object      epsilon;
}
// * * * * * * * * * * * * * * * * * * * * * * * * * * * * * * * * * * * * * //

dimensions      [0 2 -3 0 0 0 0];

internalField   nonuniform List<scalar> 
459
(
0.000427361
0.000553768
0.000585824
0.000673742
0.000762701
0.000853509
0.000950637
0.00104996
0.00112368
0.00115294
0.00112153
0.0010236
0.000867303
0.000676939
0.000491673
3.53917e-05
6.02409e-05
8.69623e-05
8.96103e-05
8.2266e-05
7.23277e-05
5.98227e-05
4.86288e-05
3.97372e-05
3.28286e-05
2.74342e-05
2.31776e-05
1.97874e-05
1.70518e-05
1.47745e-05
1.27886e-05
1.09394e-05
9.88721e-06
7.58723e-06
0.00107934
0.00157813
0.000519942
0.000503119
0.000525601
0.000565077
0.000625922
0.000706777
0.000784123
0.00083233
0.000831067
0.000774645
0.000671564
0.000544176
0.000439102
0.000518924
0.000124597
4.01429e-05
9.48302e-05
0.000105836
9.92586e-05
8.664e-05
7.39994e-05
6.78459e-05
5.48646e-05
4.32829e-05
3.41472e-05
2.71395e-05
2.17884e-05
1.76963e-05
1.45808e-05
1.22933e-05
1.08879e-05
1.0287e-05
2.62261e-05
1.78728e-05
0.0019657
0.00387976
0.000638505
0.000476307
0.000496941
0.000557348
0.000649607
0.000767044
0.000875265
0.000939836
0.000943201
0.000886575
0.000781604
0.000653959
0.000535429
0.000477254
0.00056797
0.000266715
0.000209711
0.000167177
0.000134258
0.000108634
9.31367e-05
0.000171889
0.000118944
8.49606e-05
6.26914e-05
4.76854e-05
3.72836e-05
2.98923e-05
2.45581e-05
2.07237e-05
1.58077e-05
1.32611e-05
4.94753e-05
2.85008e-05
0.00318253
0.00807295
0.00100677
0.000478222
0.000481658
0.000566384
0.000705578
0.000881099
0.00101866
0.00108508
0.00107668
0.0010046
0.000879626
0.000733208
0.00060419
0.000520451
0.000501991
0.00091003
0.000526934
0.000324435
0.000221381
0.00016222
0.000125258
0.000107993
0.000249349
0.000191057
0.000155641
0.000131868
0.000113579
9.8028e-05
8.4447e-05
7.1532e-05
5.82233e-05
3.46596e-05
2.24421e-05
8.20003e-05
3.9408e-05
0.004858
0.0144417
0.00199075
0.00055867
0.000483972
0.000596483
0.000847445
0.00111081
0.00125726
0.00130001
0.00125884
0.00115194
0.000993726
0.000810279
0.000633274
0.000488738
0.000390494
0.000349547
0.000287568
0.000231136
0.000185604
0.000149769
0.000121938
0.000102611
9.90265e-05
9.25762e-05
8.63419e-05
8.01376e-05
7.34205e-05
6.60404e-05
5.86511e-05
5.16188e-05
4.51487e-05
3.62643e-05
2.78446e-05
5.89571e-05
4.54934e-05
7.43368e-05
0.000130305
0.000184584
0.00719206
0.0215112
0.00449607
0.0010436
0.000680843
0.000795245
0.00130067
0.00156664
0.00164414
0.00161718
0.00152082
0.00136309
0.00115137
0.000910437
0.000676766
0.000485085
0.000354066
0.00028102
0.000236962
0.000201462
0.000168814
0.000140242
0.000117104
0.000100685
9.2448e-05
8.9102e-05
8.73854e-05
8.52532e-05
8.14797e-05
7.51115e-05
6.59705e-05
5.63425e-05
4.74976e-05
3.95812e-05
3.43664e-05
4.49445e-05
4.7017e-05
5.74356e-05
0.000240693
0.000211151
0.0099723
0.0257655
0.00938783
0.00345348
0.00221697
0.00219682
0.002404
0.00237898
0.00224826
0.00207999
0.00188163
0.00163823
0.0013456
0.00102858
0.000729281
0.000491713
0.000337017
0.000254051
0.000209995
0.000178297
0.000150223
0.000126618
0.000109078
9.84992e-05
9.49786e-05
9.63383e-05
9.96162e-05
0.000103042
0.000105384
0.000104931
9.84257e-05
8.72743e-05
7.61151e-05
6.66179e-05
6.2794e-05
7.00254e-05
8.90008e-05
0.000141898
0.000325677
0.000316892
0.0106557
0.0287116
0.0156123
0.00995405
0.00707459
0.00547235
0.00433824
0.00357565
0.00305762
0.00267267
0.00232753
0.00195923
0.00154874
0.00112895
0.000748042
0.000463878
0.000295655
0.000213389
0.000173569
0.000146752
0.000125306
0.000109652
0.000100326
9.72215e-05
9.96402e-05
0.000106186
0.000115565
0.000127354
0.000141627
0.000158281
0.000176298
0.000188184
0.000198211
0.000219579
0.000263797
0.000395774
0.00072927
0.00137418
0.00399981
0.00118345
0.00990507
0.0168631
0.0135314
0.0102219
0.00780172
0.00615241
0.00503844
0.00427789
0.00372991
0.00326547
0.00278558
0.00224393
0.00165193
0.00109596
0.00062015
0.000333104
0.000213087
0.000159804
0.000131721
0.000112924
9.99169e-05
9.23275e-05
8.99201e-05
9.22178e-05
9.8623e-05
0.000108644
0.000122263
0.000140174
0.00016375
0.000195024
0.000236716
0.000292747
0.000369616
0.000484665
0.000653885
0.000883158
0.00114499
0.00137306
0.00154887
0.000968877
0.00493697
0.00663948
0.0066908
0.00620008
0.00552672
0.00488361
0.00424177
0.00353643
0.00275612
0.00192251
0.00105588
0.00056198
0.000301636
0.000180995
0.000128286
0.000102293
8.74501e-05
7.83105e-05
7.30212e-05
7.10968e-05
7.22067e-05
7.59806e-05
8.22055e-05
9.09342e-05
0.000102585
0.000118008
0.000138566
0.000166322
0.000204505
0.000258063
0.000332319
0.000434344
0.00056746
0.000719062
0.000848604
0.000902244
0.000846563
0.00053568
0.00341024
0.00672717
0.00665238
0.00535561
0.00452673
0.00385083
0.00299812
0.00209592
0.00133293
0.000781001
0.000431382
0.000243858
0.000149585
0.000105204
8.41275e-05
7.3235e-05
6.73267e-05
6.44491e-05
6.38174e-05
6.50418e-05
6.78576e-05
7.22454e-05
7.83747e-05
8.65251e-05
9.71934e-05
0.000111195
0.000129806
0.000154982
0.000189454
0.000236822
0.000301975
0.000389792
0.000500759
0.000626452
0.000719545
0.000814523
0.000762917
0.000562881
0.0021694
0.00253338
0.00282744
0.00313237
0.00233897
0.00181615
0.00159718
0.00139187
0.00112547
0.000845919
0.000589063
0.000391935
0.000259392
0.000178687
0.000132184
0.000104815
8.77497e-05
7.68306e-05
7.02137e-05
6.69541e-05
6.63968e-05
6.80618e-05
7.16771e-05
7.72541e-05
8.46559e-05
9.40764e-05
0.00010592
0.000120793
0.000139625
0.000163943
0.000194521
0.000232873
0.000281277
0.000342619
0.000419682
0.000527141
0.000563993
0.000521774
0.000429039
0.000343142
)
;

boundaryField
{
    floor
    {
        Cmu             0.09;
        kappa           0.41;
        E               9.8;
        type            epsilonWallFunction;
        value           nonuniform List<scalar> 
29
(
0.000491673
3.53917e-05
6.02409e-05
8.69623e-05
8.96103e-05
8.2266e-05
7.23277e-05
5.98227e-05
4.86288e-05
3.97372e-05
3.28286e-05
2.74342e-05
2.31776e-05
1.97874e-05
1.70518e-05
1.47745e-05
1.27886e-05
1.09394e-05
9.88721e-06
7.58723e-06
7.58723e-06
1.78728e-05
2.85008e-05
3.9408e-05
0.000491673
3.53917e-05
4.01429e-05
0.000266715
0.00091003
)
;
    }
    ceiling
    {
        Cmu             0.09;
        kappa           0.41;
        E               9.8;
        type            epsilonWallFunction;
        value           nonuniform List<scalar> 
43
(
0.0021694
0.00253338
0.00282744
0.00313237
0.00233897
0.00181615
0.00159718
0.00139187
0.00112547
0.000845919
0.000589063
0.000391935
0.000259392
0.000178687
0.000132184
0.000104815
8.77497e-05
7.68306e-05
7.02137e-05
6.69541e-05
6.63968e-05
6.80618e-05
7.16771e-05
7.72541e-05
8.46559e-05
9.40764e-05
0.00010592
0.000120793
0.000139625
0.000163943
0.000194521
0.000232873
0.000281277
0.000342619
0.000419682
0.000527141
0.000563993
0.000521774
0.000429039
0.000343142
0.00990507
0.0168631
0.00341024
)
;
    }
    sWall
    {
        Cmu             0.09;
        kappa           0.41;
        E               9.8;
        type            epsilonWallFunction;
        value           uniform 0.0021694;
    }
    nWall
    {
        Cmu             0.09;
        kappa           0.41;
        E               9.8;
        type            epsilonWallFunction;
        value           nonuniform List<scalar> 6(0.000184584 0.000211151 0.000316892 0.00053568 0.000562881 0.000343142);
    }
    sideWalls
    {
        type            empty;
    }
    glass1
    {
        Cmu             0.09;
        kappa           0.41;
        E               9.8;
        type            epsilonWallFunction;
        value           nonuniform List<scalar> 9(0.000427361 0.00107934 0.0019657 0.00318253 0.004858 0.00719206 0.0099723 0.0106557 0.00990507);
    }
    glass2
    {
        Cmu             0.09;
        kappa           0.41;
        E               9.8;
        type            epsilonWallFunction;
        value           nonuniform List<scalar> 2(0.00118345 0.000968877);
    }
    sun
    {
        Cmu             0.09;
        kappa           0.41;
        E               9.8;
        type            epsilonWallFunction;
        value           nonuniform List<scalar> 
14
(
0.000427361
0.000553768
0.000585824
0.000673742
0.000762701
0.000853509
0.000950637
0.00104996
0.00112368
0.00115294
0.00112153
0.0010236
0.000867303
0.000676939
)
;
    }
    heatsource1
    {
        Cmu             0.09;
        kappa           0.41;
        E               9.8;
        type            epsilonWallFunction;
        value           nonuniform List<scalar> 3(7.43368e-05 0.000130305 0.000184584);
    }
    heatsource2
    {
        Cmu             0.09;
        kappa           0.41;
        E               9.8;
        type            epsilonWallFunction;
        value           nonuniform List<scalar> 4(0.000518924 0.000124597 0.000124597 0.00056797);
    }
    Table_master
    {
        Cmu             0.09;
        kappa           0.41;
        E               9.8;
        type            epsilonWallFunction;
        value           nonuniform List<scalar> 9(0.000171889 0.000118944 8.49606e-05 6.26914e-05 4.76854e-05 3.72836e-05 2.98923e-05 2.45581e-05 2.07237e-05);
    }
    Table_slave
    {
        Cmu             0.09;
        kappa           0.41;
        E               9.8;
        type            epsilonWallFunction;
        value           nonuniform List<scalar> 9(0.000249349 0.000191057 0.000155641 0.000131868 0.000113579 9.8028e-05 8.4447e-05 7.1532e-05 5.82233e-05);
    }
    inlet
    {
        type            turbulentMixingLengthDissipationRateInlet;
        mixingLength    0.01;
        phi             phi;
        k               k;
        value           uniform 0.000101881;
    }
    outlet
    {
        type            zeroGradient;
    }
}


// ************************************************************************* //
