// -*- C++ -*-
// File generated by PyFoam - sorry for the ugliness

FoamFile
{
 version 2.0;
 format ascii;
 class volScalarField;
 location "1600";
 object T;
}

dimensions [ 0 0 0 1 0 0 0 ];

internalField nonuniform List<scalar> 459
(
  303.388
  303.125
  303.112
  303.108
  303.104
  303.1
  303.096
  303.09
  303.081
  303.07
  303.057
  303.047
  303.04
  303.039
  303.046
  303.134
  303.114
  303.106
  303.108
  303.112
  303.116
  303.12
  303.124
  303.128
  303.132
  303.136
  303.14
  303.144
  303.148
  303.151
  303.155
  303.159
  303.165
  303.184
  303.567
  303.167
  303.144
  303.147
  303.15
  303.151
  303.148
  303.141
  303.124
  303.099
  303.072
  303.048
  303.033
  303.026
  303.025
  303.022
  303.019
  303.136
  303.098
  303.092
  303.094
  303.099
  303.103
  303.105
  303.107
  303.108
  303.109
  303.111
  303.112
  303.113
  303.115
  303.117
  303.121
  303.127
  303.136
  303.168
  303.753
  303.217
  303.18
  303.192
  303.207
  303.218
  303.222
  303.215
  303.188
  303.144
  303.095
  303.055
  303.03
  303.02
  303.019
  303.021
  303.021
  303.087
  303.08
  303.084
  303.092
  303.102
  303.11
  303.11
  303.11
  303.11
  303.11
  303.11
  303.11
  303.11
  303.11
  303.111
  303.114
  303.118
  303.126
  303.161
  303.942
  303.279
  303.217
  303.236
  303.266
  303.295
  303.314
  303.308
  303.265
  303.194
  303.118
  303.06
  303.026
  303.014
  303.015
  303.021
  303.026
  303.036
  303.048
  303.066
  303.085
  303.103
  303.12
  303.133
  303.144
  303.153
  303.161
  303.168
  303.174
  303.179
  303.183
  303.185
  303.186
  303.164
  303.144
  303.135
  303.16
  304.125
  303.357
  303.257
  303.273
  303.315
  303.364
  303.404
  303.398
  303.334
  303.232
  303.129
  303.057
  303.017
  303.006
  303.012
  303.024
  303.038
  303.053
  303.072
  303.094
  303.116
  303.138
  303.157
  303.173
  303.187
  303.199
  303.209
  303.216
  303.221
  303.223
  303.222
  303.219
  303.212
  303.194
  303.169
  303.148
  303.158
  303.232
  303.278
  303.284
  304.291
  303.458
  303.322
  303.314
  303.354
  303.415
  303.478
  303.455
  303.362
  303.238
  303.122
  303.04
  303
  302.994
  303.01
  303.034
  303.058
  303.083
  303.109
  303.135
  303.161
  303.184
  303.203
  303.219
  303.232
  303.243
  303.251
  303.257
  303.26
  303.259
  303.254
  303.246
  303.234
  303.216
  303.191
  303.166
  303.161
  303.192
  303.209
  303.244
  304.439
  303.618
  303.475
  303.439
  303.458
  303.514
  303.54
  303.474
  303.343
  303.194
  303.07
  302.994
  302.968
  302.981
  303.015
  303.057
  303.096
  303.13
  303.162
  303.19
  303.214
  303.235
  303.252
  303.265
  303.275
  303.283
  303.289
  303.292
  303.293
  303.289
  303.281
  303.269
  303.255
  303.237
  303.214
  303.189
  303.177
  303.185
  303.195
  303.225
  304.657
  304.042
  303.878
  303.776
  303.727
  303.708
  303.607
  303.431
  303.232
  303.062
  302.954
  302.913
  302.929
  302.978
  303.043
  303.105
  303.156
  303.195
  303.225
  303.248
  303.268
  303.283
  303.296
  303.305
  303.312
  303.317
  303.32
  303.32
  303.318
  303.313
  303.306
  303.293
  303.279
  303.262
  303.245
  303.227
  303.221
  303.234
  303.253
  303.381
  304.967
  304.68
  304.414
  304.184
  303.996
  303.768
  303.433
  303.115
  302.889
  302.778
  302.767
  302.825
  302.921
  303.021
  303.117
  303.19
  303.233
  303.261
  303.282
  303.299
  303.313
  303.324
  303.332
  303.338
  303.341
  303.343
  303.344
  303.342
  303.34
  303.337
  303.335
  303.335
  303.337
  303.344
  303.358
  303.381
  303.414
  303.447
  303.469
  303.524
  297.02
  299.136
  300.246
  300.708
  301.157
  301.601
  302.013
  302.361
  302.642
  302.868
  303.061
  303.168
  303.233
  303.273
  303.298
  303.316
  303.33
  303.341
  303.349
  303.356
  303.36
  303.363
  303.365
  303.366
  303.367
  303.367
  303.368
  303.369
  303.37
  303.373
  303.377
  303.386
  303.399
  303.419
  303.442
  303.466
  303.485
  303.506
  297.457
  299.326
  300.269
  300.975
  301.578
  302.113
  302.519
  302.803
  303.001
  303.135
  303.222
  303.274
  303.307
  303.329
  303.344
  303.355
  303.363
  303.37
  303.374
  303.378
  303.38
  303.382
  303.384
  303.385
  303.386
  303.387
  303.388
  303.389
  303.391
  303.393
  303.397
  303.403
  303.412
  303.425
  303.441
  303.46
  303.458
  303.488
  299.532
  299.462
  299.457
  301.239
  302.103
  302.545
  302.795
  302.972
  303.1
  303.188
  303.251
  303.294
  303.323
  303.342
  303.354
  303.362
  303.368
  303.373
  303.376
  303.379
  303.381
  303.384
  303.386
  303.387
  303.389
  303.391
  303.392
  303.394
  303.396
  303.397
  303.399
  303.401
  303.403
  303.407
  303.412
  303.422
  303.432
  303.438
  303.44
  303.479
)
;

boundaryField
{
  floor
  {
    type wallHeatTransfer;
    Tinf uniform 305.2;
    alphaWall uniform 0.24;
    value nonuniform List<scalar> 29
(
  303.268
  303.531
  303.47
  303.435
  303.434
  303.444
  303.457
  303.476
  303.496
  303.516
  303.536
  303.555
  303.573
  303.591
  303.608
  303.624
  303.641
  303.66
  303.674
  303.715
  303.715
  303.619
  303.571
  303.543
  303.268
  303.531
  303.522
  303.34
  303.226
)
;
  }
  ceiling
  {
    type wallHeatTransfer;
    Tinf uniform 303.2;
    alphaWall uniform 0.24;
    value nonuniform List<scalar> 43
(
  299.786
  299.71
  299.699
  301.362
  302.178
  302.593
  302.826
  302.99
  303.108
  303.189
  303.246
  303.284
  303.308
  303.323
  303.332
  303.338
  303.342
  303.345
  303.347
  303.349
  303.351
  303.353
  303.355
  303.357
  303.359
  303.361
  303.364
  303.366
  303.368
  303.371
  303.373
  303.376
  303.379
  303.384
  303.389
  303.4
  303.409
  303.413
  303.414
  303.447
  304.885
  304.621
  297.807
)
;
  }
  sWall
  {
    type wallHeatTransfer;
    Tinf uniform 315.2;
    alphaWall uniform 0.36;
    value uniform 301.111;
  }
  nWall
  {
    type wallHeatTransfer;
    Tinf uniform 307.2;
    alphaWall uniform 0.36;
    value nonuniform List<scalar> 6
(
  304.009
  303.954
  303.874
  304.038
  304.016
  304.075
)
;
  }
  sideWalls
  {
    type empty;
  }
  glass1
  {
    type wallHeatTransfer;
    Tinf uniform 315.2;
    alphaWall uniform 4.3;
    value nonuniform List<scalar> 9
(
  311.495
  310.859
  310.458
  310.151
  309.896
  309.663
  309.482
  309.548
  309.77
)
;
  }
  glass2
  {
    type wallHeatTransfer;
    Tinf uniform 307.2;
    alphaWall uniform 4.3;
    value nonuniform List<scalar> 2
(
  305.739
  305.843
)
;
  }
  sun
  {
    type wallHeatTransfer;
    Tinf uniform 305.2;
    alphaWall uniform 0.24;
    value nonuniform List<scalar> 14
(
  303.582
  303.332
  303.318
  303.307
  303.297
  303.288
  303.279
  303.269
  303.257
  303.246
  303.236
  303.23
  303.233
  303.244
)
;
  }
  heatsource1
  {
    type fixedGradient;
    gradient uniform 0;
  }
  heatsource2
  {
    type fixedGradient;
    gradient uniform 0;
  }
  Table_master
  {
    type zeroGradient;
  }
  Table_slave
  {
    type zeroGradient;
  }
  inlet
  {
    type fixedValue;
    value uniform 293.15;
  }
  outlet
  {
    type zeroGradient;
  }
} 	// ************************************************************************* //

