// -*- C++ -*-
// File generated by PyFoam - sorry for the ugliness

FoamFile
{
 version 2.0;
 format ascii;
 class volVectorField;
 location "1100";
 object U;
}

dimensions [ 0 1 -1 0 0 0 0 ];

internalField nonuniform List<vector> 459
(
  (0.0344477 0.0858352 0)
  (-0.166962 0.0254273 0)
  (-0.191613 0.0178633 0)
  (-0.22264 0.0122088 0)
  (-0.245172 0.00596656 0)
  (-0.25813 -0.000674918 0)
  (-0.259844 -0.00778764 0)
  (-0.248993 -0.0154008 0)
  (-0.226136 -0.0228526 0)
  (-0.193094 -0.0288233 0)
  (-0.153533 -0.0322109 0)
  (-0.111811 -0.0324683 0)
  (-0.0721524 -0.0297711 0)
  (-0.0397612 -0.0252962 0)
  (-0.0285655 -0.0208899 0)
  (-0.00607373 0.00885183 0)
  (-0.0289432 -0.0167392 0)
  (-0.00719985 -0.0265538 0)
  (0.0163053 -0.0204524 0)
  (0.0318581 -0.0140432 0)
  (0.0445891 -0.00911776 0)
  (0.0526129 -0.0053134 0)
  (0.0567851 -0.00331537 0)
  (0.0586659 -0.00251328 0)
  (0.0595965 -0.00216696 0)
  (0.0601734 -0.00195176 0)
  (0.0604961 -0.00177753 0)
  (0.0605064 -0.00156636 0)
  (0.0600192 -0.00115232 0)
  (0.0585104 -0.000169802 0)
  (0.054853 0.00188813 0)
  (0.0478155 0.00406618 0)
  (0.0414996 0.0057931 0)
  (-0.0134799 0.0203165 0)
  (0.209184 0.175881 0)
  (-0.156272 0.0672668 0)
  (-0.154584 0.0530182 0)
  (-0.186769 0.041287 0)
  (-0.209147 0.0279693 0)
  (-0.2224 0.0129508 0)
  (-0.224819 -0.00410125 0)
  (-0.214906 -0.0226444 0)
  (-0.193814 -0.04013 0)
  (-0.163783 -0.0534649 0)
  (-0.128623 -0.0605045 0)
  (-0.0924062 -0.0605618 0)
  (-0.058709 -0.0542392 0)
  (-0.0310292 -0.0431564 0)
  (-0.0133682 -0.0296928 0)
  (0.000581887 -0.0116098 0)
  (-0.000454654 0.0156086 0)
  (0.0615534 0.0362508 0)
  (0.024976 -0.0180119 0)
  (0.0334434 -0.0312973 0)
  (0.0445872 -0.0278746 0)
  (0.0535355 -0.020086 0)
  (0.0601094 -0.0125922 0)
  (0.0629673 -0.00536261 0)
  (0.0635206 -0.00121191 0)
  (0.0634723 0.000520385 0)
  (0.0635811 0.00128636 0)
  (0.0637859 0.00175615 0)
  (0.0639357 0.00214383 0)
  (0.063988 0.00261454 0)
  (0.0638992 0.00348133 0)
  (0.0631648 0.00560745 0)
  (0.0594772 0.0115211 0)
  (0.0501163 0.0164473 0)
  (0.0457629 0.0196948 0)
  (-0.0497858 0.0441233 0)
  (0.369534 0.263244 0)
  (-0.17334 0.107224 0)
  (-0.116115 0.085847 0)
  (-0.147544 0.0648846 0)
  (-0.167511 0.0429362 0)
  (-0.179915 0.0185324 0)
  (-0.182068 -0.00921293 0)
  (-0.171515 -0.0389276 0)
  (-0.150655 -0.0660666 0)
  (-0.122653 -0.0855615 0)
  (-0.0915357 -0.0946729 0)
  (-0.06085 -0.0932016 0)
  (-0.0329076 -0.0825754 0)
  (-0.00987379 -0.065028 0)
  (0.00739066 -0.0416767 0)
  (0.0187292 -0.0151798 0)
  (0.023179 0.0220677 0)
  (0.110392 -0.0273556 0)
  (0.0744081 -0.0378596 0)
  (0.068961 -0.0383242 0)
  (0.0705125 -0.0328424 0)
  (0.0719041 -0.0248837 0)
  (0.0732357 -0.0179137 0)
  (0.0719922 -0.0143313 0)
  (0.0673737 -0.0101261 0)
  (0.0640166 -0.00782728 0)
  (0.0625023 -0.0065093 0)
  (0.0618594 -0.00566171 0)
  (0.0615358 -0.0050737 0)
  (0.0615196 -0.00455412 0)
  (0.0622479 -0.00373731 0)
  (0.0648301 -0.000679832 0)
  (0.0628222 0.0161048 0)
  (0.0497895 0.0277672 0)
  (0.0521709 0.0355929 0)
  (-0.0817497 0.0689079 0)
  (0.514253 0.33354 0)
  (-0.208293 0.142695 0)
  (-0.0752306 0.113831 0)
  (-0.105403 0.0850236 0)
  (-0.119926 0.0569011 0)
  (-0.129169 0.0249155 0)
  (-0.128479 -0.013343 0)
  (-0.114882 -0.054839 0)
  (-0.0935566 -0.0909364 0)
  (-0.0685186 -0.114959 0)
  (-0.043213 -0.12462 0)
  (-0.0201488 -0.121003 0)
  (0.000398746 -0.106324 0)
  (0.017396 -0.0838421 0)
  (0.0317457 -0.0571795 0)
  (0.0470479 -0.0281543 0)
  (0.0687483 0.00353886 0)
  (0.0994796 0.0154905 0)
  (0.104811 -0.0232613 0)
  (0.0912004 -0.0336685 0)
  (0.0823174 -0.0327667 0)
  (0.0773601 -0.0285669 0)
  (0.0736752 -0.0224814 0)
  (0.0712395 -0.0147797 0)
  (0.0725577 -0.00897297 0)
  (0.0775288 -0.0067546 0)
  (0.0817705 -0.00552433 0)
  (0.0846118 -0.00464536 0)
  (0.0863713 -0.00365142 0)
  (0.086601 -0.00225175 0)
  (0.0841705 -0.000190472 0)
  (0.0778268 0.00283641 0)
  (0.0650683 0.00735814 0)
  (0.0528152 0.026651 0)
  (0.0406619 0.0429458 0)
  (0.0562912 0.0558185 0)
  (-0.115187 0.0911563 0)
  (0.639525 0.388014 0)
  (-0.250991 0.1717 0)
  (-0.0344858 0.13002 0)
  (-0.0612714 0.0965902 0)
  (-0.0677485 0.0650604 0)
  (-0.071044 0.0281146 0)
  (-0.061843 -0.0196417 0)
  (-0.0429168 -0.0721132 0)
  (-0.0224208 -0.113668 0)
  (-0.00315039 -0.138427 0)
  (0.0133205 -0.145639 0)
  (0.0258786 -0.138384 0)
  (0.035754 -0.120952 0)
  (0.043697 -0.096851 0)
  (0.0510095 -0.0695764 0)
  (0.0596754 -0.042911 0)
  (0.0724366 -0.0231134 0)
  (0.0831698 -0.0218171 0)
  (0.0843811 -0.0293796 0)
  (0.0780586 -0.0300388 0)
  (0.0699244 -0.026992 0)
  (0.0632684 -0.0230343 0)
  (0.0582771 -0.0184185 0)
  (0.0552935 -0.0130419 0)
  (0.055169 -0.00734986 0)
  (0.0575766 -0.00459516 0)
  (0.0603548 -0.00359854 0)
  (0.0630036 -0.00281187 0)
  (0.0654215 -0.00121347 0)
  (0.0672599 0.00179863 0)
  (0.0672846 0.00632745 0)
  (0.064892 0.0125294 0)
  (0.0594937 0.021045 0)
  (0.0526111 0.0362284 0)
  (0.0424717 0.0542414 0)
  (0.0646536 0.0743572 0)
  (-0.0216158 0.103363 0)
  (0.0464355 0.0322685 0)
  (-0.0620605 -0.0344803 0)
  (-0.272652 -0.0571549 0)
  (0.730617 0.433461 0)
  (-0.292632 0.191273 0)
  (-0.00326709 0.126639 0)
  (-0.0162428 0.0979111 0)
  (-0.0121792 0.0675377 0)
  (-0.00704233 0.0255661 0)
  (0.0207967 -0.0362595 0)
  (0.0427028 -0.0923608 0)
  (0.0583747 -0.131157 0)
  (0.0679932 -0.151195 0)
  (0.0721697 -0.154342 0)
  (0.0722544 -0.144083 0)
  (0.0697509 -0.124435 0)
  (0.0661321 -0.0993731 0)
  (0.0628891 -0.0725817 0)
  (0.0614428 -0.0477227 0)
  (0.0626716 -0.0290768 0)
  (0.0635003 -0.0214883 0)
  (0.0602525 -0.0209111 0)
  (0.0532937 -0.0208501 0)
  (0.0454397 -0.0192951 0)
  (0.0389043 -0.016963 0)
  (0.0342122 -0.0142071 0)
  (0.0316393 -0.0110796 0)
  (0.0314204 -0.0081908 0)
  (0.0331825 -0.00708267 0)
  (0.0358794 -0.00695135 0)
  (0.0390591 -0.00656283 0)
  (0.0425344 -0.0049128 0)
  (0.046036 -0.00111985 0)
  (0.0492175 0.00514561 0)
  (0.0508676 0.0135183 0)
  (0.0512644 0.0241553 0)
  (0.0517738 0.0385823 0)
  (0.0505814 0.0563265 0)
  (0.0730969 0.079103 0)
  (0.0526314 0.0969524 0)
  (0.0933966 0.0678509 0)
  (0.11627 0.0446605 0)
  (-0.128987 -0.00702599 0)
  (0.782376 0.474772 0)
  (-0.313611 0.176801 0)
  (0.0234391 0.0773002 0)
  (0.042156 0.074528 0)
  (0.0569942 0.0535601 0)
  (0.0820358 0.00355581 0)
  (0.116685 -0.0606796 0)
  (0.136354 -0.110017 0)
  (0.143125 -0.140189 0)
  (0.139714 -0.152482 0)
  (0.128817 -0.149785 0)
  (0.113325 -0.135793 0)
  (0.0957943 -0.114328 0)
  (0.078448 -0.089309 0)
  (0.0629855 -0.0639931 0)
  (0.0506667 -0.0414786 0)
  (0.0419591 -0.0249043 0)
  (0.0353798 -0.0164279 0)
  (0.0287868 -0.0139142 0)
  (0.0216932 -0.0134325 0)
  (0.0150285 -0.0128119 0)
  (0.00971301 -0.0119328 0)
  (0.00604212 -0.0109311 0)
  (0.00416941 -0.00986748 0)
  (0.00415412 -0.00914696 0)
  (0.00562202 -0.0093676 0)
  (0.00793267 -0.0100145 0)
  (0.0108153 -0.010229 0)
  (0.0143043 -0.00914062 0)
  (0.0185231 -0.00574089 0)
  (0.0243951 0.000984786 0)
  (0.030377 0.0101841 0)
  (0.0359985 0.0209626 0)
  (0.0431188 0.0338287 0)
  (0.0508741 0.0484843 0)
  (0.0729617 0.066904 0)
  (0.0861892 0.0745313 0)
  (0.118525 0.0519334 0)
  (0.158184 0.0440409 0)
  (-0.0350015 0.0941184 0)
  (0.886976 0.477601 0)
  (-0.0712082 0.156485 0)
  (0.105759 0.00423655 0)
  (0.168512 -0.0151766 0)
  (0.180933 -0.0329478 0)
  (0.215776 -0.067246 0)
  (0.238023 -0.100417 0)
  (0.241103 -0.124381 0)
  (0.227653 -0.136539 0)
  (0.202592 -0.137017 0)
  (0.17073 -0.127521 0)
  (0.136296 -0.110672 0)
  (0.102314 -0.0890741 0)
  (0.0712607 -0.0660213 0)
  (0.044633 -0.0440077 0)
  (0.0237894 -0.0255756 0)
  (0.00923024 -0.0133131 0)
  (-0.00031465 -0.00776445 0)
  (-0.00705122 -0.0067184 0)
  (-0.0126362 -0.00718249 0)
  (-0.0173783 -0.00775636 0)
  (-0.0211206 -0.00824458 0)
  (-0.0238037 -0.00869696 0)
  (-0.0253927 -0.00920011 0)
  (-0.0259435 -0.00995126 0)
  (-0.0257626 -0.0110825 0)
  (-0.0252253 -0.0123192 0)
  (-0.0244556 -0.0132183 0)
  (-0.0233055 -0.0132872 0)
  (-0.0213914 -0.0119449 0)
  (-0.0177541 -0.00844612 0)
  (-0.00899187 -0.00204457 0)
  (-0.000227 0.00636139 0)
  (0.01037 0.0147268 0)
  (0.0220452 0.0218475 0)
  (0.041802 0.0291611 0)
  (0.0603325 0.0221214 0)
  (0.0797895 -0.00530822 0)
  (0.138744 0.0404562 0)
  (-0.413943 0.207051 0)
  (1.03191 0.430123 0)
  (0.49696 0.285224 0)
  (0.503062 0.192002 0)
  (0.510897 0.121081 0)
  (0.485219 0.0698668 0)
  (0.443305 0.0168891 0)
  (0.393916 -0.0315596 0)
  (0.34095 -0.066316 0)
  (0.284167 -0.0845923 0)
  (0.225929 -0.0882383 0)
  (0.169455 -0.0812221 0)
  (0.117581 -0.0676079 0)
  (0.0712597 -0.050017 0)
  (0.0324166 -0.0319556 0)
  (0.000707342 -0.0156999 0)
  (-0.0205284 -0.00534403 0)
  (-0.0319269 -0.00139394 0)
  (-0.0382721 -0.000798912 0)
  (-0.042423 -0.00172466 0)
  (-0.0459935 -0.00305384 0)
  (-0.0492359 -0.0043636 0)
  (-0.0521716 -0.00559236 0)
  (-0.0547931 -0.0067737 0)
  (-0.0571285 -0.00795601 0)
  (-0.0593002 -0.0091976 0)
  (-0.0615759 -0.010469 0)
  (-0.0642843 -0.011551 0)
  (-0.067724 -0.0120713 0)
  (-0.0722227 -0.0115068 0)
  (-0.0782435 -0.00916552 0)
  (-0.0863933 -0.00422988 0)
  (-0.0967358 0.00391456 0)
  (-0.107256 0.0147729 0)
  (-0.122562 0.028526 0)
  (-0.146692 0.0452311 0)
  (-0.182179 0.0636835 0)
  (-0.23231 0.079813 0)
  (-0.289357 0.0910155 0)
  (-0.358076 0.097287 0)
  (-0.620489 0.0993092 0)
  (-0.149455 0.0838473 0)
  (0.135621 0.0640049 0)
  (0.219487 0.00893591 0)
  (0.203049 -0.0267605 0)
  (0.1876 -0.0420167 0)
  (0.165459 -0.047546 0)
  (0.133313 -0.0465268 0)
  (0.0949285 -0.040531 0)
  (0.0550023 -0.0310572 0)
  (0.017195 -0.0191177 0)
  (-0.0206977 -0.00499655 0)
  (-0.0450291 0.00302106 0)
  (-0.060061 0.00666278 0)
  (-0.067538 0.00723209 0)
  (-0.0711074 0.00645776 0)
  (-0.0734504 0.00544103 0)
  (-0.0754295 0.00441092 0)
  (-0.0774274 0.00343216 0)
  (-0.0797432 0.00244272 0)
  (-0.0823806 0.00135893 0)
  (-0.0852797 0.000225972 0)
  (-0.0884679 -0.000889724 0)
  (-0.0920155 -0.00190322 0)
  (-0.0960144 -0.00265598 0)
  (-0.100544 -0.00290521 0)
  (-0.105608 -0.00233963 0)
  (-0.111115 -0.000604985 0)
  (-0.116846 0.00265906 0)
  (-0.122202 0.00787925 0)
  (-0.126387 0.0157902 0)
  (-0.129856 0.0275103 0)
  (-0.132868 0.0434262 0)
  (-0.136233 0.0626486 0)
  (-0.140467 0.0815046 0)
  (-0.142375 0.0900815 0)
  (-0.125137 0.0675288 0)
  (-0.0816488 -0.0257814 0)
  (-0.279006 -0.203728 0)
  (-0.0224382 0.233412 0)
  (0.0639959 0.101751 0)
  (0.0391418 0.0210069 0)
  (0.0268628 -0.00313793 0)
  (0.0185655 -0.00926745 0)
  (0.000834006 -0.0114637 0)
  (-0.023948 -0.00922573 0)
  (-0.0499755 -0.00454416 0)
  (-0.0723577 9.81014e-05 0)
  (-0.0880773 0.00330921 0)
  (-0.096037 0.00382578 0)
  (-0.0988773 0.00168301 0)
  (-0.0994746 -0.0012502 0)
  (-0.0990338 -0.00458448 0)
  (-0.0986776 -0.00799839 0)
  (-0.0988449 -0.011201 0)
  (-0.099554 -0.0140565 0)
  (-0.100705 -0.0163644 0)
  (-0.102156 -0.0179873 0)
  (-0.103862 -0.0189469 0)
  (-0.105849 -0.019333 0)
  (-0.108096 -0.019186 0)
  (-0.110608 -0.0187749 0)
  (-0.113355 -0.018084 0)
  (-0.11622 -0.0169938 0)
  (-0.118972 -0.0152685 0)
  (-0.121242 -0.0125322 0)
  (-0.122521 -0.00821816 0)
  (-0.122263 -0.00208807 0)
  (-0.119499 0.00639102 0)
  (-0.112786 0.01809 0)
  (-0.100844 0.0337683 0)
  (-0.0833916 0.052996 0)
  (-0.0613238 0.0716783 0)
  (-0.0374863 0.0826533 0)
  (0.00251064 0.0670672 0)
  (0.143288 -0.00421711 0)
  (-0.207446 -0.114572 0)
  (0.940606 -0.00133418 0)
  (-0.531158 -0.460261 0)
  (-0.316985 0.0903749 0)
  (-0.226555 -0.0196846 0)
  (-0.178336 -0.0424888 0)
  (-0.16308 -0.0309278 0)
  (-0.160472 -0.0179858 0)
  (-0.161946 -0.00753299 0)
  (-0.162981 0.00130557 0)
  (-0.160982 0.00889705 0)
  (-0.156584 0.0158023 0)
  (-0.149807 0.0220764 0)
  (-0.141552 0.0274627 0)
  (-0.133264 0.0319125 0)
  (-0.125855 0.0360259 0)
  (-0.119662 0.040014 0)
  (-0.114716 0.0439535 0)
  (-0.110855 0.0476477 0)
  (-0.10793 0.0507233 0)
  (-0.105842 0.0528478 0)
  (-0.104505 0.0538475 0)
  (-0.103842 0.0537443 0)
  (-0.103792 0.0526692 0)
  (-0.104288 0.0507801 0)
  (-0.105246 0.0485597 0)
  (-0.106567 0.0461454 0)
  (-0.108084 0.0436464 0)
  (-0.109528 0.0411518 0)
  (-0.110472 0.0387299 0)
  (-0.110239 0.0364482 0)
  (-0.107585 0.0351105 0)
  (-0.10063 0.035401 0)
  (-0.0869066 0.0380751 0)
  (-0.0645479 0.0440269 0)
  (-0.0341449 0.0537643 0)
  (0.0143277 0.0669834 0)
  (0.059196 0.0683125 0)
  (0.101894 0.0535174 0)
  (0.163975 0.0242323 0)
  (-0.218349 -0.0309444 0)
)
;

boundaryField
{
  floor
  {
    type noSlip;
  }
  ceiling
  {
    type noSlip;
  }
  sWall
  {
    type noSlip;
  }
  nWall
  {
    type noSlip;
  }
  sideWalls
  {
    type empty;
  }
  glass1
  {
    type noSlip;
  }
  glass2
  {
    type noSlip;
  }
  sun
  {
    type noSlip;
  }
  heatsource1
  {
    type noSlip;
  }
  heatsource2
  {
    type noSlip;
  }
  Table_master
  {
    type noSlip;
  }
  Table_slave
  {
    type noSlip;
  }
  inlet
  {
    type fixedValue;
    value uniform (0.3 0 0);
  }
  outlet
  {
    type zeroGradient;
  }
} 	// ************************************************************************* //

