// -*- C++ -*-
// File generated by PyFoam - sorry for the ugliness

FoamFile
{
 version 2.0;
 format ascii;
 class volVectorField;
 location "300";
 object U;
}

dimensions [ 0 1 -1 0 0 0 0 ];

internalField nonuniform List<vector> 459
(
  (0.100028 0.0620084 0)
  (-0.128964 -0.00195272 0)
  (-0.10013 -0.000837205 0)
  (-0.102531 0.000986208 0)
  (-0.105923 0.00119604 0)
  (-0.109202 0.000673466 0)
  (-0.111549 -0.00029936 0)
  (-0.112375 -0.0016709 0)
  (-0.111095 -0.00348099 0)
  (-0.107017 -0.00583717 0)
  (-0.0991932 -0.00878951 0)
  (-0.086388 -0.0124378 0)
  (-0.0681119 -0.0171482 0)
  (-0.0488439 -0.0235001 0)
  (-0.0465502 -0.0298664 0)
  (0.0087826 0.0188431 0)
  (-0.0399001 0.00234376 0)
  (-0.0392387 -0.00148808 0)
  (-0.0373932 -0.00328069 0)
  (-0.0336517 -0.00401598 0)
  (-0.0291107 -0.00426996 0)
  (-0.023771 -0.0048922 0)
  (-0.0183106 -0.00474576 0)
  (-0.0137431 -0.00385391 0)
  (-0.0110466 -0.00290169 0)
  (-0.0103618 -0.00232248 0)
  (-0.0110677 -0.00219958 0)
  (-0.0115175 -0.0024769 0)
  (-0.01071 -0.00290451 0)
  (-0.00827249 -0.00445899 0)
  (-0.00415109 -0.00854075 0)
  (0.00448406 -0.013315 0)
  (0.0168484 -0.0111322 0)
  (-0.0260813 0.00501371 0)
  (0.29181 0.136545 0)
  (-0.152416 0.00963581 0)
  (-0.0912436 0.00308945 0)
  (-0.0991762 0.0053129 0)
  (-0.104046 0.00570053 0)
  (-0.108043 0.00476561 0)
  (-0.110916 0.00291248 0)
  (-0.112388 0.000230411 0)
  (-0.112031 -0.00334978 0)
  (-0.109446 -0.00796276 0)
  (-0.103989 -0.0136732 0)
  (-0.0948659 -0.0204984 0)
  (-0.0816185 -0.0286097 0)
  (-0.0651863 -0.0381907 0)
  (-0.0480528 -0.0476587 0)
  (-0.0297467 -0.0518533 0)
  (0.0262938 0.00310854 0)
  (0.0655179 0.0401427 0)
  (-0.0305074 0.011731 0)
  (-0.0234976 0.00238546 0)
  (-0.0260367 -0.00231185 0)
  (-0.0267091 -0.00407982 0)
  (-0.0267371 -0.00431583 0)
  (-0.0258536 -0.00542146 0)
  (-0.0261099 -0.00444034 0)
  (-0.0256344 -0.00162081 0)
  (-0.0253542 0.00140908 0)
  (-0.0250872 0.00345294 0)
  (-0.024792 0.00401037 0)
  (-0.0247363 0.00374856 0)
  (-0.0252505 0.00253488 0)
  (-0.0257569 -0.00103626 0)
  (-0.0236153 -0.00648347 0)
  (-0.0168981 -0.00628919 0)
  (-0.0225943 0.00104368 0)
  (-0.0856694 0.0136822 0)
  (0.446874 0.207826 0)
  (-0.193204 0.0324608 0)
  (-0.0753559 0.0126212 0)
  (-0.0904864 0.0110713 0)
  (-0.0969741 0.010071 0)
  (-0.101492 0.00798397 0)
  (-0.104873 0.00488815 0)
  (-0.107175 0.000736123 0)
  (-0.108226 -0.00456801 0)
  (-0.107829 -0.0112211 0)
  (-0.105791 -0.0193954 0)
  (-0.101807 -0.0290799 0)
  (-0.095781 -0.0400774 0)
  (-0.0880506 -0.0514567 0)
  (-0.0794099 -0.0601522 0)
  (-0.0720015 -0.060605 0)
  (-0.0721845 -0.0503067 0)
  (0.0763624 0.0617932 0)
  (-0.0411648 0.0217925 0)
  (-0.028907 0.0088325 0)
  (-0.0304888 0.00114926 0)
  (-0.0322021 -0.00430371 0)
  (-0.0325286 -0.00901655 0)
  (-0.0223489 -0.00885717 0)
  (-0.0341593 -0.00948075 0)
  (-0.039054 -0.00797312 0)
  (-0.0413552 -0.0068142 0)
  (-0.0417564 -0.00657799 0)
  (-0.0415633 -0.00742011 0)
  (-0.0423862 -0.00913916 0)
  (-0.04467 -0.0114388 0)
  (-0.0453308 -0.0146689 0)
  (-0.0392706 -0.0155128 0)
  (-0.027809 -0.0121399 0)
  (-0.0221222 -0.0115684 0)
  (-0.0704206 -0.0155835 0)
  (0.568002 0.265785 0)
  (-0.230209 0.059806 0)
  (-0.0567511 0.0247673 0)
  (-0.0780412 0.0185686 0)
  (-0.0865689 0.0154156 0)
  (-0.0908704 0.0120158 0)
  (-0.0939666 0.0079855 0)
  (-0.0963499 0.00297631 0)
  (-0.0982243 -0.00323536 0)
  (-0.0995641 -0.0107925 0)
  (-0.100734 -0.0198375 0)
  (-0.101964 -0.0302539 0)
  (-0.103663 -0.0414783 0)
  (-0.10642 -0.051923 0)
  (-0.111263 -0.05804 0)
  (-0.120782 -0.0533245 0)
  (-0.13582 -0.0267123 0)
  (-0.131266 0.0342569 0)
  (-0.0736344 0.0456499 0)
  (-0.0929934 0.0244511 0)
  (-0.0844881 0.0111064 0)
  (-0.0903537 0.002585 0)
  (-0.0953269 -0.00400844 0)
  (-0.0997818 -0.00843641 0)
  (-0.0994278 -0.00690165 0)
  (-0.0932243 -0.00676937 0)
  (-0.0865274 -0.00733764 0)
  (-0.0794173 -0.00763915 0)
  (-0.0723133 -0.00766586 0)
  (-0.0655445 -0.00752464 0)
  (-0.0588309 -0.00757954 0)
  (-0.0514509 -0.00866674 0)
  (-0.0444214 -0.0118433 0)
  (-0.0421371 -0.0174294 0)
  (-0.0362139 -0.0192902 0)
  (-0.0273364 -0.024553 0)
  (-0.0465141 -0.0347674 0)
  (0.659444 0.312466 0)
  (-0.25791 0.0889789 0)
  (-0.0396815 0.0370071 0)
  (-0.0606188 0.0268082 0)
  (-0.0719909 0.0205648 0)
  (-0.0758386 0.0152889 0)
  (-0.0776505 0.0103048 0)
  (-0.0787371 0.00490733 0)
  (-0.0797605 -0.00134239 0)
  (-0.08104 -0.00861585 0)
  (-0.0832766 -0.0169599 0)
  (-0.0869349 -0.0262744 0)
  (-0.0924662 -0.0360506 0)
  (-0.100202 -0.0451124 0)
  (-0.110287 -0.0514974 0)
  (-0.122223 -0.0523428 0)
  (-0.132539 -0.042892 0)
  (-0.134211 -0.0173265 0)
  (-0.119469 0.0134259 0)
  (-0.10643 0.0186104 0)
  (-0.0963638 0.0122577 0)
  (-0.093609 0.00568845 0)
  (-0.0930681 -0.000577935 0)
  (-0.0933011 -0.0050342 0)
  (-0.0924356 -0.00649843 0)
  (-0.0899052 -0.0079057 0)
  (-0.0867365 -0.00887127 0)
  (-0.0832932 -0.00929436 0)
  (-0.0797694 -0.00915362 0)
  (-0.0762706 -0.00860769 0)
  (-0.0726426 -0.00819121 0)
  (-0.0685421 -0.0090982 0)
  (-0.0639979 -0.0131107 0)
  (-0.0590375 -0.0211244 0)
  (-0.0516733 -0.0301109 0)
  (-0.0393101 -0.0429009 0)
  (-0.0243186 -0.0585503 0)
  (0.0174168 -0.0720774 0)
  (0.0820472 -0.0433551 0)
  (-0.0492407 0.0172691 0)
  (0.714037 0.353205 0)
  (-0.278088 0.113024 0)
  (-0.0270101 0.0400184 0)
  (-0.0325405 0.0342662 0)
  (-0.0471918 0.027296 0)
  (-0.0533548 0.0180423 0)
  (-0.0544528 0.0109997 0)
  (-0.0538433 0.0051047 0)
  (-0.0528612 -0.000757171 0)
  (-0.0526971 -0.00696941 0)
  (-0.0541818 -0.0136396 0)
  (-0.0578488 -0.0208115 0)
  (-0.064021 -0.0281436 0)
  (-0.0726907 -0.0347043 0)
  (-0.0834478 -0.0388667 0)
  (-0.0950828 -0.0383639 0)
  (-0.104522 -0.030879 0)
  (-0.107486 -0.0165848 0)
  (-0.101871 -0.000750711 0)
  (-0.0919064 0.00625182 0)
  (-0.0834625 0.00559598 0)
  (-0.0786889 0.00219214 0)
  (-0.0762192 -0.00216943 0)
  (-0.0754306 -0.0058348 0)
  (-0.0750113 -0.00809385 0)
  (-0.0744021 -0.00979611 0)
  (-0.0736813 -0.0109886 0)
  (-0.0729314 -0.0115734 0)
  (-0.072217 -0.0115365 0)
  (-0.0716031 -0.0110789 0)
  (-0.0711337 -0.0108145 0)
  (-0.0708933 -0.0119711 0)
  (-0.071077 -0.0162269 0)
  (-0.0714994 -0.024768 0)
  (-0.0708177 -0.0376517 0)
  (-0.0672996 -0.0559507 0)
  (-0.0586687 -0.0768952 0)
  (-0.0390636 -0.0869057 0)
  (0.0228498 -0.0452079 0)
  (-0.133005 0.0837595 0)
  (0.730455 0.390626 0)
  (-0.282519 0.104652 0)
  (-0.00543252 0.00369041 0)
  (0.0209732 0.0333907 0)
  (0.00388696 0.0402392 0)
  (-0.0119231 0.0229341 0)
  (-0.0164058 0.00998917 0)
  (-0.01666 0.00289619 0)
  (-0.0154203 -0.00242222 0)
  (-0.0147315 -0.00707004 0)
  (-0.0155998 -0.0115058 0)
  (-0.0187306 -0.0161069 0)
  (-0.0244976 -0.0209198 0)
  (-0.0327874 -0.0254675 0)
  (-0.0429248 -0.0286212 0)
  (-0.0535533 -0.0286597 0)
  (-0.0622275 -0.0240661 0)
  (-0.066271 -0.015477 0)
  (-0.0646242 -0.00638912 0)
  (-0.0597102 -0.00139784 0)
  (-0.0544558 -0.000332398 0)
  (-0.0505678 -0.00150146 0)
  (-0.0484615 -0.00379883 0)
  (-0.0478197 -0.00621335 0)
  (-0.0479703 -0.00818442 0)
  (-0.048497 -0.00975711 0)
  (-0.0492591 -0.0108518 0)
  (-0.0501802 -0.0113311 0)
  (-0.0512401 -0.011113 0)
  (-0.0525282 -0.0103041 0)
  (-0.0543397 -0.00938887 0)
  (-0.0573147 -0.00942534 0)
  (-0.062444 -0.0120349 0)
  (-0.0706468 -0.0189712 0)
  (-0.0822731 -0.0316171 0)
  (-0.0965377 -0.0505534 0)
  (-0.108413 -0.0721979 0)
  (-0.109561 -0.0818603 0)
  (-0.114195 -0.0426645 0)
  (-0.203556 0.131024 0)
  (0.824573 0.405817 0)
  (-0.0827054 0.0744765 0)
  (0.0811558 -0.0624599 0)
  (0.129745 0.00364621 0)
  (0.0953069 0.0354344 0)
  (0.0631093 0.0251651 0)
  (0.0504322 0.00972002 0)
  (0.0446527 0.000675176 0)
  (0.0394446 -0.00459083 0)
  (0.0355953 -0.00802406 0)
  (0.0325109 -0.0104236 0)
  (0.0285465 -0.0123694 0)
  (0.0228701 -0.0144493 0)
  (0.0152465 -0.0168053 0)
  (0.00605832 -0.0189163 0)
  (-0.00387901 -0.0196399 0)
  (-0.0121584 -0.0176725 0)
  (-0.0172324 -0.0132219 0)
  (-0.0184285 -0.00820169 0)
  (-0.0169358 -0.00495478 0)
  (-0.0146609 -0.00372489 0)
  (-0.0128403 -0.00383824 0)
  (-0.0119165 -0.00479848 0)
  (-0.0119391 -0.00612065 0)
  (-0.012683 -0.00743339 0)
  (-0.0139242 -0.00858177 0)
  (-0.015509 -0.00940396 0)
  (-0.0172873 -0.00971235 0)
  (-0.0191231 -0.00932904 0)
  (-0.0209589 -0.00816191 0)
  (-0.0229471 -0.00632668 0)
  (-0.0256639 -0.00429872 0)
  (-0.0303709 -0.00309212 0)
  (-0.0393255 -0.00461826 0)
  (-0.0562918 -0.0122158 0)
  (-0.0841797 -0.0293172 0)
  (-0.119895 -0.0563002 0)
  (-0.156158 -0.0901611 0)
  (-0.215827 -0.124994 0)
  (-0.472689 -0.153225 0)
  (0.957521 0.378858 0)
  (0.454251 0.212607 0)
  (0.306827 0.128676 0)
  (0.32037 0.130093 0)
  (0.224731 0.113248 0)
  (0.157931 0.0778033 0)
  (0.131778 0.0463537 0)
  (0.118875 0.0253467 0)
  (0.108219 0.0121413 0)
  (0.0982783 0.00352184 0)
  (0.0895126 -0.00194894 0)
  (0.0819878 -0.00503312 0)
  (0.0747611 -0.00674594 0)
  (0.0671796 -0.00793202 0)
  (0.0590958 -0.00895371 0)
  (0.0508146 -0.00965615 0)
  (0.0432849 -0.00940164 0)
  (0.0375591 -0.00789836 0)
  (0.0342192 -0.00577782 0)
  (0.0328196 -0.00408473 0)
  (0.0323441 -0.00319245 0)
  (0.0320157 -0.00298136 0)
  (0.0314414 -0.00327236 0)
  (0.030454 -0.0038683 0)
  (0.0290409 -0.00457766 0)
  (0.0272472 -0.00526371 0)
  (0.025153 -0.00579379 0)
  (0.0228947 -0.00601165 0)
  (0.020665 -0.00574482 0)
  (0.0186946 -0.00483897 0)
  (0.0172127 -0.00321856 0)
  (0.0163986 -0.00096081 0)
  (0.0163769 0.00161908 0)
  (0.0171259 0.00377445 0)
  (0.0183041 0.00404063 0)
  (0.0186893 0.000869191 0)
  (0.0190844 -0.0051548 0)
  (0.0260897 -0.0159687 0)
  (0.0785696 -0.0721509 0)
  (-0.323934 -0.185779 0)
  (-1.40139 0.0888689 0)
  (0.112429 0.150016 0)
  (0.0715019 0.104463 0)
  (0.0810396 0.0697733 0)
  (0.105035 0.0444881 0)
  (0.120605 0.0283186 0)
  (0.125787 0.0192077 0)
  (0.126117 0.0147622 0)
  (0.124798 0.0132084 0)
  (0.122409 0.0131426 0)
  (0.119254 0.0135439 0)
  (0.115451 0.0135859 0)
  (0.110913 0.0129509 0)
  (0.105678 0.0116647 0)
  (0.100078 0.0101953 0)
  (0.0947309 0.00903082 0)
  (0.0902245 0.00824598 0)
  (0.0867233 0.00756671 0)
  (0.0839856 0.00679565 0)
  (0.0816875 0.00589925 0)
  (0.0795798 0.0049014 0)
  (0.0774912 0.0038489 0)
  (0.0753045 0.00281107 0)
  (0.0729459 0.00185655 0)
  (0.0704118 0.00104057 0)
  (0.0677721 0.000448844 0)
  (0.065172 0.000183589 0)
  (0.0628354 0.000331024 0)
  (0.0610558 0.000903037 0)
  (0.0601664 0.00173792 0)
  (0.0604896 0.00234405 0)
  (0.0622231 0.00166394 0)
  (0.0651754 -0.00203556 0)
  (0.0684689 -0.0105397 0)
  (0.0712936 -0.0243821 0)
  (0.0741291 -0.0442053 0)
  (0.107885 -0.0804909 0)
  (-0.0840095 -0.141215 0)
  (-0.620317 0.100679 0)
  (0.222125 0.0627247 0)
  (0.0943991 0.0234891 0)
  (0.0905339 0.00734248 0)
  (0.118986 -0.00921802 0)
  (0.141202 -0.0254175 0)
  (0.152384 -0.0397921 0)
  (0.157216 -0.0524168 0)
  (0.15908 -0.0631715 0)
  (0.159221 -0.0716892 0)
  (0.158052 -0.0776698 0)
  (0.155825 -0.0810373 0)
  (0.15279 -0.0821014 0)
  (0.149112 -0.0812711 0)
  (0.144997 -0.079046 0)
  (0.14079 -0.0760009 0)
  (0.136877 -0.0727345 0)
  (0.133469 -0.0697374 0)
  (0.130532 -0.0672585 0)
  (0.12791 -0.0653304 0)
  (0.125433 -0.0638748 0)
  (0.12296 -0.062765 0)
  (0.120431 -0.0617132 0)
  (0.117811 -0.0605913 0)
  (0.11509 -0.059414 0)
  (0.112309 -0.0581687 0)
  (0.109563 -0.0568394 0)
  (0.107006 -0.0554303 0)
  (0.104846 -0.0539933 0)
  (0.103303 -0.0526616 0)
  (0.102518 -0.0516946 0)
  (0.102389 -0.0515247 0)
  (0.102313 -0.052743 0)
  (0.100886 -0.0559063 0)
  (0.0960665 -0.0611932 0)
  (0.0849245 -0.0683645 0)
  (0.101678 -0.0797565 0)
  (-0.142589 -0.0906231 0)
  (0.576471 0.186908 0)
  (0.219759 -0.203332 0)
  (-0.235374 0.167244 0)
  (0.192587 0.105072 0)
  (0.18334 0.103703 0)
  (0.157602 0.117908 0)
  (0.16366 0.133183 0)
  (0.174451 0.150488 0)
  (0.179065 0.169233 0)
  (0.179244 0.187973 0)
  (0.17811 0.205312 0)
  (0.177022 0.22 0)
  (0.176307 0.231014 0)
  (0.176062 0.237776 0)
  (0.1763 0.24035 0)
  (0.17692 0.239209 0)
  (0.177759 0.235135 0)
  (0.178657 0.229095 0)
  (0.179475 0.222104 0)
  (0.180074 0.215043 0)
  (0.18031 0.208521 0)
  (0.180079 0.202838 0)
  (0.179337 0.198052 0)
  (0.178103 0.194063 0)
  (0.176414 0.190503 0)
  (0.174364 0.187131 0)
  (0.172068 0.183924 0)
  (0.169615 0.180839 0)
  (0.167083 0.177821 0)
  (0.164542 0.174826 0)
  (0.162025 0.171829 0)
  (0.159487 0.168821 0)
  (0.156722 0.165784 0)
  (0.153236 0.162645 0)
  (0.148095 0.159221 0)
  (0.13976 0.155229 0)
  (0.126138 0.150446 0)
  (0.10484 0.145268 0)
  (0.116325 0.13425 0)
  (-0.205147 0.147866 0)
)
;

boundaryField
{
  floor
  {
    type noSlip;
  }
  ceiling
  {
    type noSlip;
  }
  sWall
  {
    type noSlip;
  }
  nWall
  {
    type noSlip;
  }
  sideWalls
  {
    type empty;
  }
  glass1
  {
    type noSlip;
  }
  glass2
  {
    type noSlip;
  }
  sun
  {
    type noSlip;
  }
  heatsource1
  {
    type noSlip;
  }
  heatsource2
  {
    type noSlip;
  }
  Table_master
  {
    type noSlip;
  }
  Table_slave
  {
    type noSlip;
  }
  inlet
  {
    type fixedValue;
    value uniform (0.0382683 -0.092388 0);
  }
  outlet
  {
    type zeroGradient;
  }
} 	// ************************************************************************* //

