// -*- C++ -*-
// File generated by PyFoam - sorry for the ugliness

FoamFile
{
 version 2.0;
 format ascii;
 class volScalarField;
 location "1000";
 object T;
}

dimensions [ 0 0 0 1 0 0 0 ];

internalField nonuniform List<scalar> 459
(
  303.381
  303.117
  303.105
  303.101
  303.097
  303.093
  303.089
  303.083
  303.075
  303.063
  303.051
  303.04
  303.032
  303.03
  303.036
  303.118
  303.098
  303.091
  303.092
  303.096
  303.099
  303.103
  303.107
  303.11
  303.114
  303.117
  303.121
  303.124
  303.127
  303.131
  303.134
  303.138
  303.143
  303.162
  303.561
  303.16
  303.137
  303.14
  303.143
  303.145
  303.142
  303.136
  303.12
  303.095
  303.067
  303.043
  303.026
  303.018
  303.015
  303.012
  303.007
  303.12
  303.083
  303.077
  303.079
  303.083
  303.087
  303.088
  303.089
  303.09
  303.091
  303.092
  303.092
  303.093
  303.094
  303.096
  303.1
  303.105
  303.113
  303.145
  303.748
  303.21
  303.173
  303.186
  303.201
  303.212
  303.217
  303.211
  303.186
  303.143
  303.093
  303.052
  303.025
  303.013
  303.011
  303.011
  303.011
  303.073
  303.067
  303.07
  303.078
  303.086
  303.093
  303.093
  303.093
  303.092
  303.092
  303.091
  303.091
  303.091
  303.09
  303.09
  303.093
  303.096
  303.104
  303.137
  303.937
  303.272
  303.21
  303.23
  303.26
  303.289
  303.309
  303.306
  303.266
  303.196
  303.119
  303.059
  303.022
  303.007
  303.007
  303.012
  303.016
  303.026
  303.038
  303.054
  303.072
  303.089
  303.104
  303.116
  303.126
  303.134
  303.142
  303.148
  303.153
  303.157
  303.16
  303.163
  303.163
  303.141
  303.121
  303.112
  303.137
  304.121
  303.35
  303.249
  303.265
  303.308
  303.357
  303.399
  303.397
  303.336
  303.237
  303.132
  303.057
  303.014
  303
  303.003
  303.015
  303.027
  303.042
  303.06
  303.08
  303.102
  303.122
  303.14
  303.155
  303.168
  303.178
  303.187
  303.194
  303.198
  303.2
  303.198
  303.195
  303.187
  303.17
  303.145
  303.125
  303.134
  303.208
  303.252
  303.259
  304.287
  303.45
  303.314
  303.305
  303.345
  303.405
  303.472
  303.455
  303.367
  303.245
  303.127
  303.042
  302.997
  302.988
  303
  303.023
  303.046
  303.07
  303.095
  303.12
  303.144
  303.166
  303.184
  303.198
  303.21
  303.22
  303.228
  303.233
  303.235
  303.234
  303.229
  303.221
  303.209
  303.191
  303.167
  303.142
  303.137
  303.167
  303.184
  303.219
  304.435
  303.611
  303.466
  303.429
  303.446
  303.5
  303.535
  303.479
  303.352
  303.204
  303.076
  302.995
  302.964
  302.972
  303.004
  303.043
  303.081
  303.114
  303.144
  303.171
  303.195
  303.214
  303.23
  303.242
  303.252
  303.259
  303.264
  303.267
  303.267
  303.263
  303.255
  303.243
  303.228
  303.211
  303.188
  303.164
  303.152
  303.16
  303.17
  303.199
  304.653
  304.035
  303.87
  303.765
  303.715
  303.702
  303.613
  303.445
  303.248
  303.075
  302.96
  302.912
  302.921
  302.966
  303.027
  303.087
  303.137
  303.175
  303.204
  303.227
  303.245
  303.26
  303.272
  303.281
  303.287
  303.291
  303.293
  303.293
  303.291
  303.286
  303.278
  303.266
  303.251
  303.236
  303.219
  303.202
  303.196
  303.208
  303.228
  303.356
  304.963
  304.675
  304.408
  304.178
  303.992
  303.788
  303.465
  303.145
  302.911
  302.789
  302.766
  302.814
  302.906
  303.002
  303.095
  303.168
  303.21
  303.239
  303.259
  303.275
  303.289
  303.299
  303.306
  303.312
  303.315
  303.316
  303.316
  303.315
  303.313
  303.31
  303.308
  303.308
  303.31
  303.317
  303.332
  303.356
  303.389
  303.422
  303.444
  303.499
  297.061
  299.222
  300.356
  300.783
  301.198
  301.612
  302.004
  302.342
  302.617
  302.837
  303.034
  303.143
  303.209
  303.249
  303.274
  303.291
  303.304
  303.315
  303.323
  303.329
  303.333
  303.336
  303.338
  303.339
  303.34
  303.34
  303.341
  303.342
  303.344
  303.346
  303.351
  303.359
  303.373
  303.393
  303.417
  303.441
  303.459
  303.479
  297.491
  299.388
  300.313
  300.987
  301.56
  302.065
  302.48
  302.769
  302.97
  303.107
  303.196
  303.249
  303.282
  303.303
  303.318
  303.329
  303.337
  303.343
  303.347
  303.35
  303.352
  303.354
  303.356
  303.357
  303.359
  303.36
  303.361
  303.362
  303.364
  303.366
  303.37
  303.376
  303.386
  303.399
  303.416
  303.434
  303.432
  303.462
  301.272
  299.527
  299.451
  301.198
  302.058
  302.506
  302.763
  302.941
  303.072
  303.161
  303.225
  303.268
  303.297
  303.315
  303.327
  303.335
  303.341
  303.346
  303.349
  303.352
  303.354
  303.356
  303.358
  303.36
  303.362
  303.364
  303.365
  303.367
  303.369
  303.37
  303.372
  303.374
  303.377
  303.381
  303.386
  303.396
  303.406
  303.412
  303.414
  303.452
)
;

boundaryField
{
  floor
  {
    type wallHeatTransfer;
    Tinf uniform 305.2;
    alphaWall uniform 0.24;
    value nonuniform List<scalar> 29
(
  303.258
  303.52
  303.459
  303.424
  303.424
  303.434
  303.447
  303.465
  303.485
  303.505
  303.525
  303.544
  303.562
  303.579
  303.596
  303.612
  303.629
  303.648
  303.661
  303.702
  303.702
  303.602
  303.553
  303.524
  303.258
  303.52
  303.51
  303.328
  303.218
)
;
  }
  ceiling
  {
    type wallHeatTransfer;
    Tinf uniform 303.2;
    alphaWall uniform 0.24;
    value nonuniform List<scalar> 43
(
  301.398
  299.766
  299.692
  301.323
  302.135
  302.557
  302.797
  302.962
  303.083
  303.165
  303.222
  303.261
  303.285
  303.3
  303.309
  303.314
  303.319
  303.322
  303.324
  303.326
  303.328
  303.33
  303.332
  303.334
  303.336
  303.338
  303.34
  303.343
  303.345
  303.347
  303.35
  303.353
  303.356
  303.36
  303.366
  303.376
  303.385
  303.39
  303.391
  303.424
  304.881
  304.616
  297.838
)
;
  }
  sWall
  {
    type wallHeatTransfer;
    Tinf uniform 315.2;
    alphaWall uniform 0.36;
    value uniform 302.601;
  }
  nWall
  {
    type wallHeatTransfer;
    Tinf uniform 307.2;
    alphaWall uniform 0.36;
    value nonuniform List<scalar> 6
(
  303.987
  303.933
  303.851
  304.015
  303.994
  304.052
)
;
  }
  sideWalls
  {
    type empty;
  }
  glass1
  {
    type wallHeatTransfer;
    Tinf uniform 315.2;
    alphaWall uniform 4.3;
    value nonuniform List<scalar> 9
(
  311.505
  310.866
  310.463
  310.155
  309.897
  309.664
  309.481
  309.546
  309.768
)
;
  }
  glass2
  {
    type wallHeatTransfer;
    Tinf uniform 307.2;
    alphaWall uniform 4.3;
    value nonuniform List<scalar> 2
(
  305.726
  305.832
)
;
  }
  sun
  {
    type wallHeatTransfer;
    Tinf uniform 305.2;
    alphaWall uniform 0.24;
    value nonuniform List<scalar> 14
(
  303.576
  303.326
  303.312
  303.301
  303.292
  303.283
  303.274
  303.264
  303.253
  303.241
  303.23
  303.225
  303.226
  303.236
)
;
  }
  heatsource1
  {
    type fixedGradient;
    gradient uniform 0;
  }
  heatsource2
  {
    type fixedGradient;
    gradient uniform 0;
  }
  Table_master
  {
    type zeroGradient;
  }
  Table_slave
  {
    type zeroGradient;
  }
  inlet
  {
    type fixedValue;
    value uniform 293.15;
  }
  outlet
  {
    type zeroGradient;
  }
} 	// ************************************************************************* //

