// -*- C++ -*-
// File generated by PyFoam - sorry for the ugliness

FoamFile
{
 version 2.0;
 format ascii;
 class volVectorField;
 location "1000";
 object U;
}

dimensions [ 0 1 -1 0 0 0 0 ];

internalField nonuniform List<vector> 459
(
  (0.0347863 0.0857754 0)
  (-0.166825 0.0253446 0)
  (-0.191338 0.0178699 0)
  (-0.222371 0.0122668 0)
  (-0.244986 0.00607324 0)
  (-0.258114 -0.000518611 0)
  (-0.260104 -0.00758212 0)
  (-0.249589 -0.0151482 0)
  (-0.2271 -0.022587 0)
  (-0.194389 -0.0285906 0)
  (-0.155058 -0.0320599 0)
  (-0.113419 -0.0324425 0)
  (-0.0736669 -0.0299394 0)
  (-0.0410381 -0.0257852 0)
  (-0.0294898 -0.0218783 0)
  (-0.00563494 0.00877252 0)
  (-0.0287294 -0.0168235 0)
  (-0.00689875 -0.0265325 0)
  (0.0164472 -0.0203307 0)
  (0.0319348 -0.0139147 0)
  (0.0445353 -0.00900872 0)
  (0.0524433 -0.00524724 0)
  (0.0565376 -0.00327636 0)
  (0.0583763 -0.0024857 0)
  (0.0592826 -0.00214516 0)
  (0.0598409 -0.0019345 0)
  (0.0601469 -0.00176426 0)
  (0.0601435 -0.00155584 0)
  (0.0596455 -0.00114449 0)
  (0.0581309 -0.000165144 0)
  (0.0544779 0.00188611 0)
  (0.0474658 0.00403506 0)
  (0.0413556 0.00566042 0)
  (-0.0141042 0.020221 0)
  (0.209777 0.175787 0)
  (-0.156309 0.0670583 0)
  (-0.154428 0.0529718 0)
  (-0.186638 0.0413475 0)
  (-0.209094 0.0281457 0)
  (-0.222506 0.0132567 0)
  (-0.22519 -0.00366186 0)
  (-0.215588 -0.0221106 0)
  (-0.194821 -0.0395893 0)
  (-0.165059 -0.0530159 0)
  (-0.130061 -0.0602331 0)
  (-0.0938851 -0.0605064 0)
  (-0.0601185 -0.0544408 0)
  (-0.032318 -0.043664 0)
  (-0.0145519 -0.030539 0)
  (-0.000518216 -0.0123515 0)
  (-0.00120472 0.0155333 0)
  (0.0625069 0.0360351 0)
  (0.0253184 -0.0178987 0)
  (0.0335969 -0.0311222 0)
  (0.0447002 -0.0276519 0)
  (0.0535815 -0.0198561 0)
  (0.0600671 -0.0123832 0)
  (0.0628677 -0.00524809 0)
  (0.0634004 -0.00115751 0)
  (0.063349 0.000554233 0)
  (0.0634563 0.00131421 0)
  (0.0636588 0.00178157 0)
  (0.0638073 0.00216829 0)
  (0.0638587 0.00263652 0)
  (0.0637704 0.00349949 0)
  (0.0630373 0.00561913 0)
  (0.0593495 0.0115268 0)
  (0.049983 0.0163968 0)
  (0.0458586 0.019472 0)
  (-0.0506366 0.043991 0)
  (0.370335 0.263134 0)
  (-0.173588 0.106965 0)
  (-0.116028 0.0858103 0)
  (-0.147519 0.065002 0)
  (-0.167554 0.0432332 0)
  (-0.18011 0.0190338 0)
  (-0.18255 -0.00850945 0)
  (-0.17231 -0.0380928 0)
  (-0.151737 -0.0652627 0)
  (-0.123939 -0.0849403 0)
  (-0.0928939 -0.0943561 0)
  (-0.0621893 -0.0932071 0)
  (-0.0341616 -0.0829236 0)
  (-0.0109882 -0.0656693 0)
  (0.00632708 -0.0427017 0)
  (0.0178617 -0.0161024 0)
  (0.0225685 0.0210543 0)
  (0.110717 -0.0279691 0)
  (0.0743393 -0.0380153 0)
  (0.0688415 -0.0382151 0)
  (0.0704213 -0.0326192 0)
  (0.0718254 -0.024623 0)
  (0.0731343 -0.0176281 0)
  (0.07187 -0.0141363 0)
  (0.0673333 -0.0100195 0)
  (0.0640448 -0.00776755 0)
  (0.0625648 -0.00647536 0)
  (0.0619411 -0.005644 0)
  (0.0616335 -0.00506661 0)
  (0.0616321 -0.0045532 0)
  (0.0623719 -0.00374254 0)
  (0.0649595 -0.000694182 0)
  (0.0629338 0.0161062 0)
  (0.0498323 0.0277164 0)
  (0.0524688 0.0353425 0)
  (-0.0827133 0.0687362 0)
  (0.515189 0.333435 0)
  (-0.208731 0.142432 0)
  (-0.075176 0.113811 0)
  (-0.105471 0.0851918 0)
  (-0.120048 0.0573096 0)
  (-0.129454 0.0256211 0)
  (-0.129138 -0.0123407 0)
  (-0.115857 -0.0536821 0)
  (-0.0947411 -0.0898952 0)
  (-0.0698163 -0.114211 0)
  (-0.0444645 -0.124305 0)
  (-0.0213268 -0.121078 0)
  (-0.000717054 -0.106837 0)
  (0.0164402 -0.0846016 0)
  (0.0308158 -0.0581704 0)
  (0.0460955 -0.0292301 0)
  (0.0678682 0.0022464 0)
  (0.0985117 0.0148692 0)
  (0.104028 -0.0236991 0)
  (0.0904697 -0.0338049 0)
  (0.0817192 -0.0326903 0)
  (0.0769395 -0.0284037 0)
  (0.0734306 -0.0222938 0)
  (0.0711776 -0.0145818 0)
  (0.0726536 -0.00891279 0)
  (0.0777058 -0.00676557 0)
  (0.0820402 -0.00556774 0)
  (0.0849934 -0.00469704 0)
  (0.08685 -0.00369481 0)
  (0.0871419 -0.00227636 0)
  (0.0847143 -0.000188679 0)
  (0.0783198 0.00286534 0)
  (0.0654789 0.00741279 0)
  (0.0530818 0.0267128 0)
  (0.0407635 0.0429717 0)
  (0.0566611 0.055687 0)
  (-0.116603 0.0909488 0)
  (0.640531 0.387936 0)
  (-0.251559 0.171476 0)
  (-0.0344252 0.130024 0)
  (-0.0614188 0.0968068 0)
  (-0.0679251 0.0655608 0)
  (-0.0714241 0.0290286 0)
  (-0.0628071 -0.0182655 0)
  (-0.0441022 -0.0706594 0)
  (-0.0236705 -0.112498 0)
  (-0.00440635 -0.137674 0)
  (0.0122605 -0.145455 0)
  (0.0249303 -0.138595 0)
  (0.0349154 -0.121514 0)
  (0.0429323 -0.0976735 0)
  (0.0502618 -0.0705786 0)
  (0.058884 -0.0439557 0)
  (0.0715572 -0.0240225 0)
  (0.0822967 -0.0223364 0)
  (0.083599 -0.0297422 0)
  (0.0773674 -0.0302511 0)
  (0.0693523 -0.0270828 0)
  (0.0628547 -0.0230619 0)
  (0.0580387 -0.0184303 0)
  (0.0552389 -0.0130793 0)
  (0.0552843 -0.00748287 0)
  (0.0578318 -0.00477994 0)
  (0.0607409 -0.00379167 0)
  (0.0635139 -0.00298151 0)
  (0.0660319 -0.00133124 0)
  (0.0679316 0.00176219 0)
  (0.0679478 0.00637903 0)
  (0.0654828 0.0126526 0)
  (0.0599689 0.0212142 0)
  (0.0529467 0.0364189 0)
  (0.0425919 0.0544153 0)
  (0.064926 0.074463 0)
  (-0.022432 0.103324 0)
  (0.0460433 0.0313537 0)
  (-0.062679 -0.0348675 0)
  (-0.27305 -0.0575274 0)
  (0.73162 0.433435 0)
  (-0.293262 0.191123 0)
  (-0.00319259 0.126685 0)
  (-0.0164852 0.0981953 0)
  (-0.0124621 0.06809 0)
  (-0.00774178 0.026896 0)
  (0.0194465 -0.0344127 0)
  (0.0414087 -0.0908191 0)
  (0.0571866 -0.130091 0)
  (0.0669806 -0.150643 0)
  (0.0713543 -0.154286 0)
  (0.0716069 -0.144433 0)
  (0.0692416 -0.125099 0)
  (0.0657034 -0.100245 0)
  (0.0624777 -0.0735734 0)
  (0.060986 -0.0487173 0)
  (0.0621326 -0.0299496 0)
  (0.0629284 -0.0221175 0)
  (0.0597085 -0.0213582 0)
  (0.052803 -0.0211658 0)
  (0.0450265 -0.0195157 0)
  (0.0386012 -0.0171355 0)
  (0.0340427 -0.0143759 0)
  (0.0316179 -0.0112815 0)
  (0.0315453 -0.00845739 0)
  (0.0334368 -0.00739303 0)
  (0.0362525 -0.00726679 0)
  (0.0395428 -0.00684292 0)
  (0.0431129 -0.00511276 0)
  (0.0466727 -0.00118905 0)
  (0.0498713 0.00523434 0)
  (0.0514573 0.013737 0)
  (0.051741 0.024453 0)
  (0.0521273 0.0389085 0)
  (0.0507509 0.0566467 0)
  (0.0733892 0.0794152 0)
  (0.0524251 0.0971672 0)
  (0.0933998 0.0677961 0)
  (0.116485 0.0446065 0)
  (-0.129813 -0.00750709 0)
  (0.78311 0.474795 0)
  (-0.314274 0.176714 0)
  (0.0233926 0.0774573 0)
  (0.0417131 0.0751507 0)
  (0.0562849 0.0546396 0)
  (0.079981 0.00554882 0)
  (0.115074 -0.0588419 0)
  (0.135054 -0.108627 0)
  (0.142117 -0.139343 0)
  (0.139014 -0.15217 0)
  (0.128401 -0.149947 0)
  (0.113144 -0.136333 0)
  (0.0957816 -0.115119 0)
  (0.0785191 -0.0902355 0)
  (0.0630649 -0.0649772 0)
  (0.0506837 -0.0424151 0)
  (0.0418675 -0.0256999 0)
  (0.0351903 -0.0170261 0)
  (0.0285386 -0.0143538 0)
  (0.0214248 -0.0137719 0)
  (0.014777 -0.0130928 0)
  (0.00951619 -0.0121946 0)
  (0.00592726 -0.0112105 0)
  (0.00415143 -0.0101926 0)
  (0.00423268 -0.00953087 0)
  (0.00578566 -0.00978968 0)
  (0.00817457 -0.0104379 0)
  (0.0111346 -0.0106124 0)
  (0.0147011 -0.00943258 0)
  (0.0189892 -0.00587056 0)
  (0.0249529 0.00109518 0)
  (0.0309199 0.0104887 0)
  (0.0364669 0.0213763 0)
  (0.0435082 0.0342784 0)
  (0.0511584 0.048921 0)
  (0.0733391 0.0673359 0)
  (0.0864291 0.0748487 0)
  (0.118847 0.0519826 0)
  (0.158599 0.0439478 0)
  (-0.0349637 0.0941168 0)
  (0.887648 0.477778 0)
  (-0.0718134 0.156455 0)
  (0.10549 0.00459065 0)
  (0.167883 -0.0139802 0)
  (0.179785 -0.0308835 0)
  (0.21401 -0.0654294 0)
  (0.236635 -0.098983 0)
  (0.24018 -0.123434 0)
  (0.22717 -0.136109 0)
  (0.202517 -0.137066 0)
  (0.170988 -0.127966 0)
  (0.136807 -0.111427 0)
  (0.102983 -0.0899976 0)
  (0.0719743 -0.0669961 0)
  (0.0453109 -0.0449742 0)
  (0.0243268 -0.0264159 0)
  (0.00956112 -0.013953 0)
  (-0.000193551 -0.00821762 0)
  (-0.00707689 -0.00706475 0)
  (-0.0127345 -0.007482 0)
  (-0.0175033 -0.00804335 0)
  (-0.0212369 -0.00854594 0)
  (-0.023893 -0.00903587 0)
  (-0.0254503 -0.0095911 0)
  (-0.0259762 -0.0103921 0)
  (-0.0257815 -0.0115521 0)
  (-0.0252354 -0.0127897 0)
  (-0.024454 -0.0136583 0)
  (-0.0232828 -0.0136568 0)
  (-0.0213351 -0.0121901 0)
  (-0.0176299 -0.00850001 0)
  (-0.00854656 -0.00183626 0)
  (0.000230028 0.00679643 0)
  (0.0108365 0.0151652 0)
  (0.022512 0.0222357 0)
  (0.042349 0.02951 0)
  (0.0608558 0.0223417 0)
  (0.0802631 -0.00536165 0)
  (0.139216 0.0403548 0)
  (-0.414948 0.207403 0)
  (1.03242 0.430368 0)
  (0.497283 0.285412 0)
  (0.503229 0.192595 0)
  (0.510431 0.122107 0)
  (0.483866 0.0710839 0)
  (0.442686 0.0184014 0)
  (0.393777 -0.0302381 0)
  (0.341222 -0.0655083 0)
  (0.284841 -0.0843703 0)
  (0.226956 -0.0885176 0)
  (0.170714 -0.081863 0)
  (0.118996 -0.0685166 0)
  (0.0727083 -0.0510247 0)
  (0.0337788 -0.0329492 0)
  (0.00195461 -0.0166083 0)
  (-0.0197098 -0.0059005 0)
  (-0.031412 -0.00174993 0)
  (-0.0379748 -0.00106402 0)
  (-0.0422861 -0.00195728 0)
  (-0.0459507 -0.00329163 0)
  (-0.049257 -0.00462304 0)
  (-0.0522358 -0.00588456 0)
  (-0.0548967 -0.00710752 0)
  (-0.0572783 -0.00833496 0)
  (-0.0595084 -0.00961296 0)
  (-0.0618567 -0.010903 0)
  (-0.0646467 -0.0119802 0)
  (-0.0681695 -0.0124656 0)
  (-0.0727451 -0.0118271 0)
  (-0.0788272 -0.00936278 0)
  (-0.0870002 -0.0042539 0)
  (-0.0972943 0.00409166 0)
  (-0.107567 0.0150921 0)
  (-0.122804 0.0289164 0)
  (-0.146974 0.0456418 0)
  (-0.1826 0.0640709 0)
  (-0.232981 0.0801113 0)
  (-0.29029 0.0911699 0)
  (-0.359131 0.0972713 0)
  (-0.621773 0.0991196 0)
  (-0.150439 0.0848989 0)
  (0.13642 0.0660802 0)
  (0.22068 0.0114677 0)
  (0.204305 -0.0249827 0)
  (0.189087 -0.0410383 0)
  (0.167252 -0.0473086 0)
  (0.135396 -0.0468336 0)
  (0.0971744 -0.041207 0)
  (0.0572238 -0.0319841 0)
  (0.01954 -0.0203009 0)
  (-0.0187859 -0.00592564 0)
  (-0.0436678 0.00240275 0)
  (-0.0591785 0.00623914 0)
  (-0.0670272 0.00694205 0)
  (-0.0707132 0.00617919 0)
  (-0.0731361 0.00514001 0)
  (-0.0751616 0.00405687 0)
  (-0.0772288 0.0030045 0)
  (-0.0796344 0.00192696 0)
  (-0.0823603 0.000775215 0)
  (-0.0853613 -0.000403174 0)
  (-0.0886647 -0.00154318 0)
  (-0.0923346 -0.00255631 0)
  (-0.0964607 -0.00328812 0)
  (-0.101115 -0.00349806 0)
  (-0.10629 -0.002873 0)
  (-0.111881 -0.00105238 0)
  (-0.117652 0.00233531 0)
  (-0.123007 0.00770988 0)
  (-0.127115 0.0157981 0)
  (-0.130467 0.0277107 0)
  (-0.133368 0.0437897 0)
  (-0.136658 0.0631211 0)
  (-0.140872 0.0820126 0)
  (-0.142805 0.0905005 0)
  (-0.125525 0.0676833 0)
  (-0.0817631 -0.0261185 0)
  (-0.279734 -0.204387 0)
  (-0.0241629 0.234405 0)
  (0.0640606 0.103425 0)
  (0.0400124 0.0225371 0)
  (0.0278001 -0.0019913 0)
  (0.0204733 -0.00867248 0)
  (0.0035233 -0.0115156 0)
  (-0.0210696 -0.00948415 0)
  (-0.0473568 -0.00470966 0)
  (-0.0702401 8.166e-05 0)
  (-0.0865528 0.00351059 0)
  (-0.0951163 0.004292 0)
  (-0.0981872 0.0022874 0)
  (-0.0989605 -0.000544805 0)
  (-0.0986199 -0.00377149 0)
  (-0.0983131 -0.00707879 0)
  (-0.0985132 -0.0101484 0)
  (-0.0992385 -0.0128555 0)
  (-0.100398 -0.0150205 0)
  (-0.101856 -0.0165276 0)
  (-0.103595 -0.0174242 0)
  (-0.10563 -0.0177798 0)
  (-0.107946 -0.0177019 0)
  (-0.110545 -0.0173836 0)
  (-0.113388 -0.0167987 0)
  (-0.116357 -0.0158231 0)
  (-0.119215 -0.0142201 0)
  (-0.121596 -0.0116173 0)
  (-0.12298 -0.00745878 0)
  (-0.122785 -0.0014299 0)
  (-0.120036 0.00699019 0)
  (-0.113274 0.0186761 0)
  (-0.10123 0.0343743 0)
  (-0.0836585 0.0536395 0)
  (-0.0614913 0.0723472 0)
  (-0.037588 0.0832947 0)
  (0.00254263 0.0675925 0)
  (0.143466 -0.0038929 0)
  (-0.207817 -0.115292 0)
  (0.941106 -0.00283584 0)
  (-0.53415 -0.459536 0)
  (-0.316521 0.0913442 0)
  (-0.225578 -0.0196837 0)
  (-0.176765 -0.0437603 0)
  (-0.160871 -0.0327878 0)
  (-0.158111 -0.0199969 0)
  (-0.159705 -0.00953151 0)
  (-0.161129 -0.00060144 0)
  (-0.159334 0.00694769 0)
  (-0.155174 0.0137361 0)
  (-0.148594 0.0198715 0)
  (-0.140471 0.0251075 0)
  (-0.132253 0.0293508 0)
  (-0.124897 0.0332249 0)
  (-0.118746 0.0369345 0)
  (-0.113851 0.0405549 0)
  (-0.110055 0.0439084 0)
  (-0.107207 0.0466465 0)
  (-0.105208 0.0484714 0)
  (-0.103968 0.0492391 0)
  (-0.103414 0.04899 0)
  (-0.103481 0.047844 0)
  (-0.104101 0.0460464 0)
  (-0.105195 0.0439707 0)
  (-0.106657 0.0417431 0)
  (-0.108318 0.0394685 0)
  (-0.109897 0.0372378 0)
  (-0.110963 0.0351276 0)
  (-0.11083 0.0332191 0)
  (-0.108247 0.0322316 0)
  (-0.101299 0.0328805 0)
  (-0.0874995 0.0359169 0)
  (-0.0649789 0.0422266 0)
  (-0.0343602 0.0523075 0)
  (0.0145271 0.0659095 0)
  (0.0596646 0.0672351 0)
  (0.102623 0.0521807 0)
  (0.164501 0.0224786 0)
  (-0.217264 -0.0332191 0)
)
;

boundaryField
{
  floor
  {
    type noSlip;
  }
  ceiling
  {
    type noSlip;
  }
  sWall
  {
    type noSlip;
  }
  nWall
  {
    type noSlip;
  }
  sideWalls
  {
    type empty;
  }
  glass1
  {
    type noSlip;
  }
  glass2
  {
    type noSlip;
  }
  sun
  {
    type noSlip;
  }
  heatsource1
  {
    type noSlip;
  }
  heatsource2
  {
    type noSlip;
  }
  Table_master
  {
    type noSlip;
  }
  Table_slave
  {
    type noSlip;
  }
  inlet
  {
    type fixedValue;
    value uniform (0.3 0 0);
  }
  outlet
  {
    type zeroGradient;
  }
} 	// ************************************************************************* //

