/*--------------------------------*- C++ -*----------------------------------*\
  =========                 |
  \\      /  F ield         | OpenFOAM: The Open Source CFD Toolbox
   \\    /   O peration     | Website:  https://openfoam.org
    \\  /    A nd           | Version:  6
     \\/     M anipulation  |
\*---------------------------------------------------------------------------*/
FoamFile
{
    version     2.0;
    format      ascii;
    class       volScalarField;
    location    "600";
    object      epsilon;
}
// * * * * * * * * * * * * * * * * * * * * * * * * * * * * * * * * * * * * * //

dimensions      [0 2 -3 0 0 0 0];

internalField   nonuniform List<scalar> 
459
(
0.00100621
0.00141017
0.00160525
0.00194168
0.00238408
0.00278983
0.003049
0.0030158
0.00258106
0.00215601
0.00175532
0.00138768
0.00109905
0.000846989
0.000609985
6.01122e-05
9.75394e-05
0.000150614
0.000209384
0.00025253
0.000249767
0.000205684
0.000162077
0.00012895
0.000104616
8.64368e-05
7.25932e-05
6.18651e-05
5.31652e-05
4.56448e-05
3.84938e-05
3.08732e-05
2.20513e-05
1.19802e-05
0.00212051
0.00257254
0.00130794
0.00138995
0.00169253
0.00201349
0.00218777
0.00213088
0.00181658
0.00146553
0.0011611
0.000925708
0.000768573
0.000655909
0.000539107
0.000733212
0.000466485
5.36481e-05
6.50864e-05
0.000143479
0.000176641
0.000192279
0.000199051
0.000213819
0.000169308
0.000128256
9.71665e-05
7.40638e-05
5.72725e-05
4.581e-05
3.7512e-05
3.04944e-05
2.54706e-05
2.19997e-05
2.24909e-05
1.39704e-05
0.00351114
0.00521242
0.00162218
0.00153881
0.00190824
0.00219145
0.00224823
0.00214665
0.00186194
0.00149109
0.00115096
0.000892743
0.000712829
0.000587987
0.000488425
0.000487095
0.000568338
5.55414e-05
0.000123331
0.000163417
0.000193523
0.000207966
0.000223317
0.000489539
0.000320759
0.000209432
0.000135978
8.57376e-05
5.10298e-05
2.9662e-05
2.06803e-05
1.88534e-05
1.63645e-05
1.51729e-05
2.08178e-05
1.52609e-05
0.00530888
0.00987002
0.0025078
0.00197025
0.00241686
0.00254633
0.002463
0.00231973
0.00201402
0.00158077
0.00117324
0.000872263
0.000671472
0.000539753
0.000450595
0.00041502
0.000441747
0.000611338
0.00037756
0.000294145
0.000269634
0.000270434
0.000272573
0.000285499
0.000765606
0.00058581
0.000466444
0.000383369
0.000318272
0.000263058
0.000213938
0.00016897
0.000126179
6.15273e-05
2.98513e-05
2.55352e-05
1.80274e-05
0.00762885
0.0166503
0.00456817
0.00302423
0.00335299
0.00312003
0.0028934
0.00268236
0.00228785
0.00172943
0.00120583
0.000835501
0.000609225
0.000481926
0.000413635
0.000387254
0.000416175
0.000479559
0.000422744
0.000390573
0.000385726
0.000385326
0.000371223
0.000342464
0.000332977
0.000308629
0.000287848
0.000266587
0.000240116
0.000208742
0.000174053
0.000137733
0.000100918
6.25983e-05
3.58995e-05
2.61753e-05
2.04271e-05
2.57317e-05
3.95271e-05
8.69644e-05
0.0105392
0.0241765
0.00913607
0.00562878
0.00469216
0.00396221
0.00354838
0.00321068
0.00266435
0.00191201
0.00122211
0.000765046
0.000521967
0.000420661
0.000389274
0.000397999
0.000449669
0.000500822
0.000519123
0.000536466
0.000541342
0.000520106
0.000471366
0.000404692
0.000343221
0.000300342
0.000270285
0.000242534
0.000212428
0.000180122
0.000146926
0.000114393
8.41142e-05
5.90585e-05
4.2737e-05
3.48353e-05
3.49436e-05
4.84245e-05
8.25296e-05
0.00012194
0.0128944
0.0284152
0.0153662
0.0091578
0.00638857
0.00504682
0.00438452
0.00387395
0.00310362
0.00207012
0.0011675
0.000640562
0.000436953
0.000391506
0.000403504
0.000448551
0.000524237
0.000599395
0.00065232
0.000670159
0.000646802
0.000586965
0.000502339
0.000409623
0.000327175
0.000274522
0.000239681
0.00020918
0.000179311
0.000150471
0.000123927
0.000100926
8.24824e-05
7.10222e-05
7.07394e-05
9.19523e-05
0.00014241
0.000214752
0.000344717
0.000302987
0.0130363
0.0259773
0.0163167
0.0107251
0.00765476
0.00611442
0.00530236
0.00459416
0.00349229
0.0020498
0.000925325
0.000540632
0.000436732
0.000429868
0.000465737
0.000529287
0.000615277
0.000689946
0.000723999
0.000708401
0.000641241
0.000545003
0.000442309
0.000351681
0.000284233
0.000238823
0.000205223
0.000176215
0.000149933
0.000127078
0.000109252
9.85963e-05
9.83011e-05
0.00011414
0.00015608
0.000238721
0.000361368
0.000492429
0.000577239
0.000342405
0.0117229
0.0177155
0.0137211
0.0101486
0.0079129
0.00682367
0.00607303
0.00508863
0.00339163
0.00147707
0.000753259
0.000550737
0.000507164
0.000521101
0.000562494
0.000618607
0.000676037
0.000708597
0.000697892
0.00064519
0.000563631
0.000473195
0.00039008
0.000322648
0.000272226
0.000234314
0.000203181
0.000175526
0.000150784
0.000130061
0.000115519
0.000110072
0.000117009
0.000139792
0.0001822
0.000246769
0.000328397
0.000415879
0.000504877
0.000558938
0.00226719
0.00403297
0.00637432
0.00665363
0.00532132
0.00304994
0.0016084
0.000948504
0.000724342
0.000661624
0.00065845
0.000678853
0.000708069
0.000735537
0.000749511
0.000738031
0.000699191
0.000641791
0.000578311
0.00051932
0.000470179
0.000431514
0.000401125
0.000375606
0.000352039
0.000328501
0.000303821
0.000277525
0.000250458
0.000225819
0.000209644
0.000209576
0.000231812
0.000277293
0.000338636
0.000405123
0.000373909
0.000646134
0.00271089
0.0138614
0.0100462
0.00603694
0.00326211
0.00179013
0.00119477
0.000968314
0.000901462
0.000893005
0.000904908
0.00092435
0.000946528
0.000967857
0.000983827
0.00098992
0.000984482
0.000970087
0.000951191
0.000932129
0.00091594
0.000904085
0.000896794
0.000893164
0.000890842
0.000885728
0.000871763
0.000841335
0.000787399
0.000707692
0.000609387
0.000509858
0.000429548
0.000379567
0.000361412
0.00044162
0.000881042
0.00094384
0.00217079
0.00291437
0.00342753
0.00458263
0.00313609
0.00233077
0.00181937
0.00147134
0.00127805
0.00118519
0.00114748
0.00114063
0.00115026
0.00116587
0.00117849
0.00118025
0.00116529
0.00113179
0.00108348
0.00102779
0.000972388
0.000922513
0.000880244
0.000845224
0.000815744
0.000789579
0.000764488
0.000738358
0.000709303
0.000675998
0.000638257
0.000597477
0.000556432
0.000518151
0.000484216
0.000452909
0.000422467
0.000425294
0.000475331
0.000540139
)
;

boundaryField
{
    floor
    {
        Cmu             0.09;
        kappa           0.41;
        E               9.8;
        type            epsilonWallFunction;
        value           nonuniform List<scalar> 
29
(
0.000609985
6.01122e-05
9.75394e-05
0.000150614
0.000209384
0.00025253
0.000249767
0.000205684
0.000162077
0.00012895
0.000104616
8.64368e-05
7.25932e-05
6.18651e-05
5.31652e-05
4.56448e-05
3.84938e-05
3.08732e-05
2.20513e-05
1.19802e-05
1.19802e-05
1.39704e-05
1.52609e-05
1.80274e-05
0.000609985
6.01122e-05
5.36481e-05
5.55414e-05
0.000611338
)
;
    }
    ceiling
    {
        Cmu             0.09;
        kappa           0.41;
        E               9.8;
        type            epsilonWallFunction;
        value           nonuniform List<scalar> 
43
(
0.00217079
0.00291437
0.00342753
0.00458263
0.00313609
0.00233077
0.00181937
0.00147134
0.00127805
0.00118519
0.00114748
0.00114063
0.00115026
0.00116587
0.00117849
0.00118025
0.00116529
0.00113179
0.00108348
0.00102779
0.000972388
0.000922513
0.000880244
0.000845224
0.000815744
0.000789579
0.000764488
0.000738358
0.000709303
0.000675998
0.000638257
0.000597477
0.000556432
0.000518151
0.000484216
0.000452909
0.000422467
0.000425294
0.000475331
0.000540139
0.0117229
0.0177155
0.00271089
)
;
    }
    sWall
    {
        Cmu             0.09;
        kappa           0.41;
        E               9.8;
        type            epsilonWallFunction;
        value           uniform 0.00217079;
    }
    nWall
    {
        Cmu             0.09;
        kappa           0.41;
        E               9.8;
        type            epsilonWallFunction;
        value           nonuniform List<scalar> 6(8.69644e-05 0.00012194 0.000302987 0.000646134 0.00094384 0.000540139);
    }
    sideWalls
    {
        type            empty;
    }
    glass1
    {
        Cmu             0.09;
        kappa           0.41;
        E               9.8;
        type            epsilonWallFunction;
        value           nonuniform List<scalar> 9(0.00100621 0.00212051 0.00351114 0.00530888 0.00762885 0.0105392 0.0128944 0.0130363 0.0117229);
    }
    glass2
    {
        Cmu             0.09;
        kappa           0.41;
        E               9.8;
        type            epsilonWallFunction;
        value           nonuniform List<scalar> 2(0.000342405 0.000558938);
    }
    sun
    {
        Cmu             0.09;
        kappa           0.41;
        E               9.8;
        type            epsilonWallFunction;
        value           nonuniform List<scalar> 
14
(
0.00100621
0.00141017
0.00160525
0.00194168
0.00238408
0.00278983
0.003049
0.0030158
0.00258106
0.00215601
0.00175532
0.00138768
0.00109905
0.000846989
)
;
    }
    heatsource1
    {
        Cmu             0.09;
        kappa           0.41;
        E               9.8;
        type            epsilonWallFunction;
        value           nonuniform List<scalar> 3(2.57317e-05 3.95271e-05 8.69644e-05);
    }
    heatsource2
    {
        Cmu             0.09;
        kappa           0.41;
        E               9.8;
        type            epsilonWallFunction;
        value           nonuniform List<scalar> 4(0.000733212 0.000466485 0.000466485 0.000568338);
    }
    Table_master
    {
        Cmu             0.09;
        kappa           0.41;
        E               9.8;
        type            epsilonWallFunction;
        value           nonuniform List<scalar> 9(0.000489539 0.000320759 0.000209432 0.000135978 8.57376e-05 5.10298e-05 2.9662e-05 2.06803e-05 1.88534e-05);
    }
    Table_slave
    {
        Cmu             0.09;
        kappa           0.41;
        E               9.8;
        type            epsilonWallFunction;
        value           nonuniform List<scalar> 9(0.000765606 0.00058581 0.000466444 0.000383369 0.000318272 0.000263058 0.000213938 0.00016897 0.000126179);
    }
    inlet
    {
        type            turbulentMixingLengthDissipationRateInlet;
        mixingLength    0.01;
        phi             phi;
        k               k;
        value           uniform 0.000101881;
    }
    outlet
    {
        type            zeroGradient;
    }
}


// ************************************************************************* //
