/*--------------------------------*- C++ -*----------------------------------*\
  =========                 |
  \\      /  F ield         | OpenFOAM: The Open Source CFD Toolbox
   \\    /   O peration     | Website:  https://openfoam.org
    \\  /    A nd           | Version:  6
     \\/     M anipulation  |
\*---------------------------------------------------------------------------*/
FoamFile
{
    version     2.0;
    format      ascii;
    class       volVectorField;
    location    "1300";
    object      U;
}
// * * * * * * * * * * * * * * * * * * * * * * * * * * * * * * * * * * * * * //

dimensions      [0 1 -1 0 0 0 0];

internalField   nonuniform List<vector> 
459
(
(0.0339547 0.0859415 0)
(-0.167205 0.0255499 0)
(-0.192081 0.0178536 0)
(-0.223106 0.0121112 0)
(-0.245502 0.00578385 0)
(-0.258164 -0.000946356 0)
(-0.259386 -0.00814732 0)
(-0.247932 -0.0158416 0)
(-0.224419 -0.0233072 0)
(-0.190803 -0.0292036 0)
(-0.150867 -0.032428 0)
(-0.109049 -0.0324483 0)
(-0.0696147 -0.0294079 0)
(-0.0377094 -0.0244246 0)
(-0.0271998 -0.0193481 0)
(-0.00677509 0.00900894 0)
(-0.0294317 -0.016588 0)
(-0.00787096 -0.0265785 0)
(0.0159615 -0.0206651 0)
(0.0315922 -0.0142676 0)
(0.0445528 -0.00930814 0)
(0.0527886 -0.00542321 0)
(0.057103 -0.0033773 0)
(0.0590586 -0.00255987 0)
(0.0600306 -0.00220905 0)
(0.0606395 -0.0019901 0)
(0.0609903 -0.00181151 0)
(0.0610228 -0.00159648 0)
(0.0605498 -0.00117694 0)
(0.0590435 -0.000186305 0)
(0.055369 0.00188481 0)
(0.0482828 0.00410148 0)
(0.0416935 0.00594537 0)
(-0.0126937 0.0204398 0)
(0.208375 0.176074 0)
(-0.156283 0.0675974 0)
(-0.154893 0.0531129 0)
(-0.187058 0.0411959 0)
(-0.209313 0.0276705 0)
(-0.222288 0.0124133 0)
(-0.224227 -0.00488855 0)
(-0.213743 -0.0236048 0)
(-0.192061 -0.0410901 0)
(-0.161552 -0.0542346 0)
(-0.126124 -0.0609272 0)
(-0.0898625 -0.060574 0)
(-0.0563249 -0.0537797 0)
(-0.0288834 -0.04218 0)
(-0.0115015 -0.028362 0)
(0.0023179 -0.0103834 0)
(0.000798209 0.0157433 0)
(0.0602743 0.0366725 0)
(0.0243142 -0.0181083 0)
(0.0331201 -0.0315615 0)
(0.0443481 -0.0282594 0)
(0.0534229 -0.0204997 0)
(0.0601718 -0.0129719 0)
(0.0631409 -0.00556086 0)
(0.0637327 -0.00129013 0)
(0.0636896 0.000483873 0)
(0.0638026 0.00126139 0)
(0.0640141 0.00173623 0)
(0.0641693 0.0021274 0)
(0.0642258 0.00260455 0)
(0.0641382 0.00348 0)
(0.0634022 0.00562027 0)
(0.0597064 0.0115561 0)
(0.0503289 0.0165503 0)
(0.0456832 0.0199798 0)
(-0.048797 0.044317 0)
(0.368485 0.263497 0)
(-0.173064 0.107652 0)
(-0.116304 0.0859484 0)
(-0.14767 0.0647108 0)
(-0.167535 0.0424331 0)
(-0.179672 0.0176438 0)
(-0.181295 -0.0104883 0)
(-0.170156 -0.040448 0)
(-0.148768 -0.0675108 0)
(-0.120406 -0.0866369 0)
(-0.0891738 -0.0951662 0)
(-0.0585434 -0.0930955 0)
(-0.0307783 -0.0818436 0)
(-0.00789696 -0.0636864 0)
(0.0090426 -0.0401086 0)
(0.0201227 -0.013689 0)
(0.0241893 0.0236058 0)
(0.110029 -0.0261916 0)
(0.0745543 -0.037498 0)
(0.0691794 -0.0384635 0)
(0.0707114 -0.0332328 0)
(0.0721192 -0.0253756 0)
(0.0735307 -0.0184586 0)
(0.0723353 -0.0147287 0)
(0.0675776 -0.0103704 0)
(0.0640945 -0.00798669 0)
(0.062515 -0.00661992 0)
(0.0618361 -0.00573965 0)
(0.0614836 -0.00512847 0)
(0.0614417 -0.00459334 0)
(0.0621529 -0.00376009 0)
(0.0647334 -0.000675083 0)
(0.0627418 0.0161485 0)
(0.0497592 0.0278861 0)
(0.0518435 0.0359133 0)
(-0.0807001 0.0691562 0)
(0.513077 0.333821 0)
(-0.207769 0.143147 0)
(-0.0753312 0.113927 0)
(-0.105364 0.0847817 0)
(-0.11981 0.0562116 0)
(-0.128766 0.0236572 0)
(-0.127376 -0.0151763 0)
(-0.113183 -0.0569613 0)
(-0.0914733 -0.0928128 0)
(-0.0662421 -0.116246 0)
(-0.0410323 -0.125088 0)
(-0.0181206 -0.120751 0)
(0.00228966 -0.105301 0)
(0.0190453 -0.0824004 0)
(0.033312 -0.055473 0)
(0.0485975 -0.0263732 0)
(0.0701302 0.00561172 0)
(0.10094 0.0166606 0)
(0.105983 -0.0224479 0)
(0.092351 -0.0334015 0)
(0.0833289 -0.0329082 0)
(0.0781541 -0.0289124 0)
(0.0742468 -0.0229103 0)
(0.0715707 -0.0152376 0)
(0.0727252 -0.0092162 0)
(0.0776938 -0.00686743 0)
(0.0819107 -0.00556842 0)
(0.0846757 -0.00465518 0)
(0.0863492 -0.00364576 0)
(0.0865003 -0.00224031 0)
(0.0840195 -0.00018054 0)
(0.0776465 0.00284276 0)
(0.0648627 0.00736287 0)
(0.0526212 0.026678 0)
(0.0405585 0.0430154 0)
(0.0558724 0.0560205 0)
(-0.113829 0.0914218 0)
(0.638303 0.388283 0)
(-0.250312 0.172106 0)
(-0.0345489 0.130087 0)
(-0.0610784 0.0962817 0)
(-0.0675184 0.0642187 0)
(-0.0704502 0.0264751 0)
(-0.0601451 -0.0221803 0)
(-0.0408101 -0.0747891 0)
(-0.0202071 -0.115775 0)
(-0.000939701 -0.139707 0)
(0.0151791 -0.145861 0)
(0.0275244 -0.137871 0)
(0.0371951 -0.119826 0)
(0.0450159 -0.0953006 0)
(0.0522865 -0.0678142 0)
(0.0609853 -0.0411481 0)
(0.0738473 -0.0216182 0)
(0.0845545 -0.0209522 0)
(0.0856478 -0.02879 0)
(0.0792393 -0.0297384 0)
(0.0709728 -0.026945 0)
(0.064113 -0.0231419 0)
(0.0588843 -0.0185875 0)
(0.0556515 -0.0131839 0)
(0.0553264 -0.00732205 0)
(0.0576003 -0.00446255 0)
(0.060261 -0.00343275 0)
(0.0627945 -0.00265125 0)
(0.0651165 -0.00107639 0)
(0.0668861 0.00189539 0)
(0.0668852 0.00638263 0)
(0.0645011 0.0125534 0)
(0.0591295 0.0210489 0)
(0.0522884 0.0362257 0)
(0.0422633 0.0542429 0)
(0.0642736 0.0743814 0)
(-0.021117 0.103547 0)
(0.0463948 0.0325862 0)
(-0.061901 -0.0344128 0)
(-0.272254 -0.0570568 0)
(0.729432 0.433677 0)
(-0.291881 0.191575 0)
(-0.003319 0.12663 0)
(-0.0158633 0.0975058 0)
(-0.0117333 0.0666223 0)
(-0.00583023 0.0231643 0)
(0.0232431 -0.0396542 0)
(0.0450397 -0.0951886 0)
(0.0605002 -0.133068 0)
(0.0697932 -0.152117 0)
(0.0736141 -0.154326 0)
(0.0733975 -0.143317 0)
(0.0706495 -0.123124 0)
(0.0668948 -0.0977379 0)
(0.063621 -0.0708146 0)
(0.0622358 -0.046019 0)
(0.0635826 -0.0276252 0)
(0.064469 -0.0204578 0)
(0.061206 -0.0202061 0)
(0.0541963 -0.0204108 0)
(0.04624 -0.0190669 0)
(0.0395376 -0.0168599 0)
(0.0346359 -0.0141449 0)
(0.0318371 -0.0109872 0)
(0.0314182 -0.00800438 0)
(0.0330296 -0.00683092 0)
(0.03561 -0.00668648 0)
(0.0386967 -0.00632261 0)
(0.0421033 -0.00472158 0)
(0.0455766 -0.00099518 0)
(0.0487392 0.00519458 0)
(0.0504147 0.0135114 0)
(0.0508556 0.0241164 0)
(0.0514084 0.0385261 0)
(0.0502967 0.0562605 0)
(0.0727293 0.0790104 0)
(0.0525531 0.0969895 0)
(0.0931814 0.067907 0)
(0.11605 0.0446405 0)
(-0.12885 -0.00701264 0)
(0.781583 0.474933 0)
(-0.312804 0.176988 0)
(0.0235846 0.0770516 0)
(0.042917 0.073517 0)
(0.0582578 0.0516743 0)
(0.0857726 -7.53614e-05 0)
(0.119651 -0.0640551 0)
(0.138739 -0.112551 0)
(0.144958 -0.141688 0)
(0.140981 -0.152967 0)
(0.129575 -0.149378 0)
(0.113673 -0.134693 0)
(0.0958565 -0.1128 0)
(0.078378 -0.0875875 0)
(0.0629155 -0.0622387 0)
(0.0507067 -0.03987 0)
(0.0421779 -0.023581 0)
(0.0357607 -0.0154602 0)
(0.0292637 -0.0132365 0)
(0.0221915 -0.0129605 0)
(0.0154735 -0.0124776 0)
(0.0100376 -0.011669 0)
(0.00620806 -0.0106798 0)
(0.0041694 -0.00958632 0)
(0.00401427 -0.00881114 0)
(0.00538579 -0.00900123 0)
(0.00763388 -0.00965975 0)
(0.0104752 -0.00992058 0)
(0.0139374 -0.00890455 0)
(0.0181432 -0.00559655 0)
(0.0240058 0.00102607 0)
(0.029996 0.0101459 0)
(0.0356544 0.020882 0)
(0.0428045 0.0337285 0)
(0.050598 0.0483752 0)
(0.0726381 0.0667771 0)
(0.0859057 0.0745149 0)
(0.118196 0.0520011 0)
(0.157863 0.0440184 0)
(-0.0352218 0.0939618 0)
(0.886271 0.47752 0)
(-0.0702947 0.156591 0)
(0.106254 0.00358123 0)
(0.169649 -0.0173525 0)
(0.18317 -0.0367034 0)
(0.219067 -0.0705919 0)
(0.240619 -0.103058 0)
(0.242831 -0.126104 0)
(0.22856 -0.137282 0)
(0.202756 -0.136858 0)
(0.170308 -0.126623 0)
(0.135442 -0.109208 0)
(0.101205 -0.0873363 0)
(0.0700985 -0.0642412 0)
(0.0435626 -0.0423047 0)
(0.022967 -0.0241408 0)
(0.00874098 -0.0122387 0)
(-0.000496166 -0.00700439 0)
(-0.00704354 -0.00615488 0)
(-0.0125594 -0.00673183 0)
(-0.0173076 -0.00736802 0)
(-0.0211051 -0.00788204 0)
(-0.0238603 -0.0083325 0)
(-0.0255139 -0.00881743 0)
(-0.0261042 -0.00954894 0)
(-0.0259343 -0.0106828 0)
(-0.0253898 -0.0119512 0)
(-0.0246065 -0.0129064 0)
(-0.0234435 -0.0130497 0)
(-0.02152 -0.0117936 0)
(-0.0178844 -0.00838608 0)
(-0.00920004 -0.00207788 0)
(-0.000405588 0.00625598 0)
(0.0102237 0.0146208 0)
(0.0219273 0.0217442 0)
(0.0416839 0.029075 0)
(0.0602787 0.0221516 0)
(0.0798103 -0.00522947 0)
(0.138827 0.0403139 0)
(-0.413279 0.206622 0)
(1.03142 0.429874 0)
(0.496626 0.285009 0)
(0.50301 0.19107 0)
(0.51194 0.119326 0)
(0.487765 0.0676851 0)
(0.444533 0.0141486 0)
(0.394263 -0.0339471 0)
(0.340518 -0.0677502 0)
(0.282983 -0.0849482 0)
(0.22411 -0.0876782 0)
(0.167244 -0.0800054 0)
(0.115117 -0.065905 0)
(0.0687756 -0.0481784 0)
(0.0301082 -0.0301946 0)
(-0.00136549 -0.0141304 0)
(-0.0219302 -0.00435154 0)
(-0.032874 -0.00073564 0)
(-0.0389095 -0.000305726 0)
(-0.0428449 -0.00131472 0)
(-0.046293 -0.00267851 0)
(-0.0494721 -0.0040023 0)
(-0.052374 -0.00523769 0)
(-0.0549664 -0.00641809 0)
(-0.0572657 -0.00759673 0)
(-0.0593907 -0.0088384 0)
(-0.0616149 -0.0101264 0)
(-0.0642744 -0.011245 0)
(-0.067675 -0.0118207 0)
(-0.0721481 -0.0113265 0)
(-0.0781571 -0.00906478 0)
(-0.0863076 -0.00421037 0)
(-0.0966499 0.0038565 0)
(-0.107208 0.01466 0)
(-0.122481 0.0283729 0)
(-0.146531 0.0450441 0)
(-0.181885 0.0634765 0)
(-0.231825 0.0796185 0)
(-0.288716 0.0908556 0)
(-0.357321 0.0971788 0)
(-0.6194 0.0992622 0)
(-0.147516 0.0821733 0)
(0.134258 0.0604373 0)
(0.217238 0.00438224 0)
(0.200732 -0.0299513 0)
(0.184856 -0.0437502 0)
(0.162123 -0.0479178 0)
(0.129443 -0.045916 0)
(0.0907811 -0.0392635 0)
(0.050935 -0.0293432 0)
(0.0128858 -0.0169231 0)
(-0.0240937 -0.00334736 0)
(-0.0475444 0.00413731 0)
(-0.0617626 0.00743633 0)
(-0.0686096 0.00777091 0)
(-0.0719826 0.00695624 0)
(-0.0741987 0.00594817 0)
(-0.076113 0.00496615 0)
(-0.0780305 0.0040654 0)
(-0.0802307 0.00317874 0)
(-0.0827757 0.00216306 0)
(-0.0855828 0.00106976 0)
(-0.0886782 -3.76591e-05 0)
(-0.0921355 -0.00107212 0)
(-0.0960527 -0.00187651 0)
(-0.100507 -0.00220107 0)
(-0.105502 -0.00173132 0)
(-0.110951 -0.00011372 0)
(-0.116643 0.0030085 0)
(-0.121973 0.0080783 0)
(-0.126167 0.015852 0)
(-0.129649 0.0274508 0)
(-0.132665 0.0432654 0)
(-0.136009 0.0624082 0)
(-0.140184 0.0812261 0)
(-0.142007 0.089851 0)
(-0.124694 0.0674729 0)
(-0.0810461 -0.0254984 0)
(-0.278478 -0.203208 0)
(-0.0222952 0.230336 0)
(0.0635466 0.0984569 0)
(0.0369989 0.0180232 0)
(0.0247925 -0.00514052 0)
(0.0148185 -0.010133 0)
(-0.0043347 -0.0110884 0)
(-0.0293933 -0.00849635 0)
(-0.0549556 -0.00395653 0)
(-0.076437 0.000470327 0)
(-0.0910895 0.00335441 0)
(-0.0979618 0.00345932 0)
(-0.100381 0.00113581 0)
(-0.100643 -0.00191872 0)
(-0.0999932 -0.00537234 0)
(-0.0995061 -0.0088905 0)
(-0.0995629 -0.0122383 0)
(-0.100192 -0.0152806 0)
(-0.10129 -0.0178027 0)
(-0.102715 -0.0196404 0)
(-0.104373 -0.0207525 0)
(-0.106316 -0.0212518 0)
(-0.108509 -0.0211532 0)
(-0.110947 -0.0206656 0)
(-0.113603 -0.0198674 0)
(-0.116371 -0.0186508 0)
(-0.119025 -0.016783 0)
(-0.121201 -0.0138825 0)
(-0.122394 -0.00936621 0)
(-0.12208 -0.00305342 0)
(-0.11929 0.00558492 0)
(-0.112584 0.0174102 0)
(-0.100677 0.0331753 0)
(-0.0832672 0.0524404 0)
(-0.0612293 0.0711154 0)
(-0.0374238 0.0820718 0)
(0.0026 0.0664168 0)
(0.14329 -0.00472283 0)
(-0.207194 -0.113873 0)
(-0.102484 -0.348278 0)
(-0.438883 -0.120402 0)
(-0.310511 0.0951224 0)
(-0.227147 -0.0201334 0)
(-0.181114 -0.0405191 0)
(-0.167075 -0.0280556 0)
(-0.164749 -0.0150478 0)
(-0.165977 -0.00475395 0)
(-0.166278 0.00380098 0)
(-0.163879 0.0113638 0)
(-0.15901 0.0183422 0)
(-0.15184 0.0247071 0)
(-0.143314 0.0301887 0)
(-0.134862 0.034826 0)
(-0.127315 0.0391665 0)
(-0.121001 0.0434287 0)
(-0.115924 0.0476923 0)
(-0.111909 0.0517539 0)
(-0.108814 0.0552376 0)
(-0.106543 0.057785 0)
(-0.105017 0.0591764 0)
(-0.104158 0.0593751 0)
(-0.10391 0.0585064 0)
(-0.104216 0.0566865 0)
(-0.105001 0.0543194 0)
(-0.106163 0.0516732 0)
(-0.107546 0.0488713 0)
(-0.108887 0.0460106 0)
(-0.109767 0.0431602 0)
(-0.10951 0.0403817 0)
(-0.106864 0.0385617 0)
(-0.0999563 0.0383845 0)
(-0.086327 0.0406196 0)
(-0.0641168 0.04617 0)
(-0.0339125 0.0555432 0)
(0.0142792 0.0683547 0)
(0.0588519 0.0696115 0)
(0.101316 0.0550408 0)
(0.163632 0.0261935 0)
(-0.219844 -0.0283895 0)
)
;

boundaryField
{
    floor
    {
        type            noSlip;
    }
    ceiling
    {
        type            noSlip;
    }
    sWall
    {
        type            noSlip;
    }
    nWall
    {
        type            noSlip;
    }
    sideWalls
    {
        type            empty;
    }
    glass1
    {
        type            noSlip;
    }
    glass2
    {
        type            noSlip;
    }
    sun
    {
        type            noSlip;
    }
    heatsource1
    {
        type            noSlip;
    }
    heatsource2
    {
        type            noSlip;
    }
    Table_master
    {
        type            noSlip;
    }
    Table_slave
    {
        type            noSlip;
    }
    inlet
    {
        type            fixedValue;
        value           uniform (0.3 0 0);
    }
    outlet
    {
        type            zeroGradient;
    }
}


// ************************************************************************* //
