/*--------------------------------*- C++ -*----------------------------------*\
  =========                 |
  \\      /  F ield         | OpenFOAM: The Open Source CFD Toolbox
   \\    /   O peration     | Website:  https://openfoam.org
    \\  /    A nd           | Version:  6
     \\/     M anipulation  |
\*---------------------------------------------------------------------------*/
FoamFile
{
    version     2.0;
    format      ascii;
    class       volScalarField;
    location    "800";
    object      nut;
}
// * * * * * * * * * * * * * * * * * * * * * * * * * * * * * * * * * * * * * //

dimensions      [0 2 -1 0 0 0 0];

internalField   nonuniform List<scalar> 
459
(
0.0012092
0.0013338
0.00137582
0.00144981
0.00152248
0.0015981
0.00166462
0.00170769
0.00171838
0.00169204
0.00162516
0.00145581
0.00130083
0.00112113
0.000955405
0.000538186
0.000631448
0.000740807
0.000804605
0.000813735
0.000794916
0.000745621
0.000692513
0.000644635
0.00060294
0.000566719
0.000535153
0.00050737
0.000482789
0.000460442
0.000439109
0.000417045
0.000394861
0.000357112
0.00159132
0.00405764
0.00397482
0.00462147
0.0052615
0.00577796
0.00620288
0.00656975
0.00684469
0.00699809
0.00699208
0.00675014
0.0062277
0.00520459
0.00347979
0.00117678
0.000939784
0.000528222
0.0013213
0.0021093
0.00277182
0.00317986
0.00314109
0.00219451
0.00181078
0.00156336
0.00138549
0.00125124
0.00114643
0.00106326
0.000986215
0.000904478
0.000825526
0.000755198
0.000794628
0.000412275
0.00190365
0.0055019
0.00491303
0.00571828
0.00611406
0.00641478
0.00670111
0.00701722
0.00736001
0.0076954
0.00793371
0.00796727
0.00776081
0.00722505
0.00599112
0.0039016
0.00115624
0.00070698
0.00140511
0.0022983
0.00326481
0.00396486
0.00381283
0.00101977
0.000885535
0.000777266
0.000690784
0.00062142
0.000565319
0.000519581
0.000482986
0.000455814
0.000512821
0.000611947
0.000902988
0.000449521
0.00219849
0.00683535
0.00502866
0.00589623
0.00603978
0.00615736
0.00632662
0.00659241
0.00697534
0.00742676
0.00778788
0.0079767
0.00797853
0.0077638
0.00714235
0.00582112
0.00314989
0.00130449
0.00154314
0.00225472
0.00333339
0.00444104
0.00519708
0.00486146
0.00115887
0.00104776
0.000962838
0.000894005
0.000834687
0.000779581
0.000725188
0.000668673
0.000605521
0.00055692
0.000595357
0.00101675
0.00047968
0.00249664
0.00851894
0.00550844
0.00599185
0.00607914
0.00605377
0.0061021
0.00631852
0.00672157
0.00719575
0.00759221
0.00780843
0.00783731
0.00772521
0.0074455
0.00683637
0.00566032
0.00494007
0.00525867
0.0058585
0.00653303
0.00706652
0.00731636
0.00707687
0.00574428
0.00502639
0.00455327
0.00413829
0.00369422
0.00321431
0.00269856
0.00215756
0.00161633
0.00114139
0.000871823
0.00100474
0.000606358
0.000564029
0.000683371
0.00076908
0.00281257
0.0103914
0.0072888
0.0065411
0.00652124
0.00625628
0.00612929
0.00627183
0.006678
0.00718773
0.00760275
0.00779729
0.00778479
0.00768951
0.00762913
0.00761691
0.00753248
0.00771065
0.00825405
0.00871372
0.00898978
0.00904454
0.00887676
0.0084708
0.00777035
0.00709395
0.00647653
0.00586538
0.00524078
0.00459072
0.00390718
0.00319336
0.00247451
0.00181391
0.00135636
0.00114436
0.000848338
0.000732004
0.00104685
0.000803901
0.00309224
0.0116585
0.00980879
0.00811557
0.00726356
0.0065186
0.00620718
0.00635171
0.00682963
0.00740915
0.00784602
0.00801337
0.00798139
0.00799757
0.00831056
0.00880419
0.00927225
0.00976588
0.0102139
0.0103746
0.010282
0.00998105
0.00951958
0.00893258
0.00824015
0.00754095
0.00686655
0.00621192
0.00555994
0.00492109
0.00428829
0.0036528
0.00301565
0.0023968
0.00191669
0.00157267
0.00128823
0.00121291
0.00123243
0.000930554
0.0031442
0.0100423
0.00908147
0.00792554
0.00678752
0.00612779
0.00605888
0.00648772
0.00719736
0.00788917
0.00831264
0.00841867
0.0084327
0.00881989
0.00956274
0.0100891
0.0104812
0.0107852
0.0109197
0.0107785
0.0103864
0.00981196
0.00911535
0.00834244
0.00753558
0.00675795
0.00603219
0.00535102
0.00473949
0.00423136
0.00383088
0.00348387
0.00313768
0.00276205
0.00250368
0.00240906
0.00252254
0.00290739
0.00357619
0.00143158
0.00306324
0.00361572
0.00396782
0.00406161
0.00429916
0.00492249
0.00588965
0.00702356
0.008058
0.00870352
0.0088539
0.00882703
0.00920718
0.00973305
0.0101672
0.0104197
0.0105462
0.0105399
0.0103365
0.00990116
0.00926539
0.00848696
0.00761988
0.00671937
0.00584201
0.00502048
0.00427363
0.00362932
0.00310968
0.00272696
0.00246872
0.00230824
0.00221223
0.00216222
0.0021517
0.00216311
0.00214675
0.00206022
0.00192668
0.00134675
0.00146894
0.00299826
0.00570962
0.00766071
0.00890869
0.00957574
0.00974005
0.00948175
0.0090219
0.00887177
0.00908787
0.00930837
0.00938817
0.00935739
0.00921913
0.00892514
0.00843714
0.0077681
0.00697966
0.00615012
0.00534726
0.00461623
0.00397654
0.00343039
0.00298043
0.00263174
0.0023821
0.00222068
0.00213166
0.0020989
0.00210732
0.00214285
0.00218791
0.00221506
0.00219004
0.00211069
0.00194323
0.00114909
0.00196673
0.00590327
0.00823912
0.00917665
0.0091881
0.00872038
0.00808318
0.00753275
0.00717701
0.00699207
0.00687693
0.00676158
0.0066436
0.00650433
0.0062999
0.00599127
0.00557428
0.00508721
0.00459002
0.00413353
0.00374267
0.00341911
0.00315233
0.00292944
0.00274015
0.00257769
0.00243928
0.00232697
0.00224667
0.00220507
0.00220456
0.00223751
0.00228326
0.00232226
0.00228668
0.00233038
0.0024144
0.00118024
0.00177151
0.00186836
0.00193725
0.00207462
0.00194026
0.00184233
0.00174023
0.00161596
0.00148364
0.00136369
0.00126908
0.00120355
0.00116047
0.00113082
0.00110723
0.00108412
0.00105775
0.00102663
0.000991907
0.000956346
0.00092279
0.000892975
0.00086736
0.00084565
0.000827467
0.000812854
0.000802504
0.00079765
0.000799766
0.000810215
0.00083
0.000859766
0.000899909
0.000950256
0.00100846
0.00108081
0.00109415
0.00105443
0.000999444
0.000944197
)
;

boundaryField
{
    floor
    {
        type            nutkWallFunction;
        Cmu             0.09;
        kappa           0.41;
        E               9.8;
        value           nonuniform List<scalar> 
29
(
0.000115466
6.45713e-05
7.62671e-05
8.97194e-05
9.74571e-05
9.8559e-05
9.6288e-05
9.03079e-05
8.38124e-05
7.79053e-05
7.27178e-05
6.81759e-05
6.41887e-05
6.06554e-05
5.75093e-05
5.46316e-05
5.1868e-05
4.8992e-05
4.60804e-05
4.10771e-05
4.1077e-05
4.83646e-05
5.32137e-05
5.7103e-05
0.000115466
6.45713e-05
6.3307e-05
8.55759e-05
0.000155987
)
;
    }
    ceiling
    {
        type            nutkWallFunction;
        Cmu             0.09;
        kappa           0.41;
        E               9.8;
        value           nonuniform List<scalar> 
43
(
0.000208253
0.0002189
0.000226439
0.000241503
0.000226912
0.000216189
0.000204936
0.000191136
0.000176313
0.00016275
0.000151959
0.000144433
0.00013946
0.000136027
0.000133287
0.000130597
0.000127517
0.000123872
0.00011979
0.000115592
0.000111614
0.000108065
0.000105005
0.000102403
0.000100217
9.84567e-05
9.72067e-05
9.6619e-05
9.68729e-05
9.81322e-05
0.000100513
0.000104083
0.000108876
0.000114854
0.000121719
0.000130189
0.000131745
0.000127108
0.000120658
0.000114137
0.000346698
0.000403782
0.000229496
)
;
    }
    sWall
    {
        type            nutkWallFunction;
        Cmu             0.09;
        kappa           0.41;
        E               9.8;
        value           uniform 0.00020831;
    }
    nWall
    {
        type            nutkWallFunction;
        Cmu             0.09;
        kappa           0.41;
        E               9.8;
        value           nonuniform List<scalar> 6(9.31485e-05 9.73631e-05 0.000112517 0.000138142 0.000141745 0.000114142);
    }
    sideWalls
    {
        type            empty;
    }
    glass1
    {
        type            nutkWallFunction;
        Cmu             0.09;
        kappa           0.41;
        E               9.8;
        value           nonuniform List<scalar> 9(0.000145215 0.000188624 0.000223237 0.000255347 0.000287351 0.000320828 0.000350137 0.000355562 0.000347138);
    }
    glass2
    {
        type            nutkWallFunction;
        Cmu             0.09;
        kappa           0.41;
        E               9.8;
        value           nonuniform List<scalar> 2(0.000170494 0.000160872);
    }
    sun
    {
        type            nutkWallFunction;
        Cmu             0.09;
        kappa           0.41;
        E               9.8;
        value           nonuniform List<scalar> 
14
(
0.000145071
0.000159334
0.000164111
0.000172484
0.000180663
0.000189128
0.000196538
0.000201317
0.000202501
0.000199578
0.000192137
0.000173157
0.00015557
0.000134883
)
;
    }
    heatsource1
    {
        type            nutkWallFunction;
        Cmu             0.09;
        kappa           0.41;
        E               9.8;
        value           nonuniform List<scalar> 3(6.78285e-05 8.26779e-05 9.31489e-05);
    }
    heatsource2
    {
        type            nutkWallFunction;
        Cmu             0.09;
        kappa           0.41;
        E               9.8;
        value           nonuniform List<scalar> 4(0.000141321 0.000113614 0.000113614 0.000138946);
    }
    Table_master
    {
        type            nutkWallFunction;
        Cmu             0.09;
        kappa           0.41;
        E               9.8;
        value           nonuniform List<scalar> 9(0.000123053 0.000107168 9.41511e-05 8.36e-05 7.50233e-05 6.8002e-05 6.22144e-05 5.75387e-05 5.40383e-05);
    }
    Table_slave
    {
        type            nutkWallFunction;
        Cmu             0.09;
        kappa           0.41;
        E               9.8;
        value           nonuniform List<scalar> 9(0.000139265 0.000126336 0.000116348 0.000108178 0.000101079 9.44302e-05 8.78129e-05 8.08746e-05 7.30374e-05);
    }
    inlet
    {
        type            calculated;
        value           uniform 0.000100623;
    }
    outlet
    {
        type            calculated;
        value           nonuniform List<scalar> 2(0.00177151 0.00186836);
    }
}


// ************************************************************************* //
