// -*- C++ -*-
// File generated by PyFoam - sorry for the ugliness

FoamFile
{
 version 2.0;
 format ascii;
 class volScalarField;
 location "800";
 object T;
}

dimensions [ 0 0 0 1 0 0 0 ];

internalField nonuniform List<scalar> 459
(
  303.131
  302.875
  302.863
  302.86
  302.857
  302.854
  302.849
  302.841
  302.833
  302.829
  302.833
  302.849
  302.858
  302.866
  302.881
  303.184
  303.15
  303.129
  303.132
  303.149
  303.164
  303.177
  303.189
  303.202
  303.214
  303.226
  303.238
  303.251
  303.264
  303.277
  303.291
  303.307
  303.327
  303.365
  303.296
  302.911
  302.887
  302.889
  302.889
  302.887
  302.876
  302.855
  302.832
  302.821
  302.825
  302.842
  302.854
  302.862
  302.871
  302.872
  302.872
  303.191
  303.114
  303.093
  303.104
  303.126
  303.148
  303.161
  303.173
  303.184
  303.195
  303.206
  303.217
  303.229
  303.241
  303.254
  303.268
  303.286
  303.311
  303.358
  303.472
  302.96
  302.923
  302.934
  302.945
  302.948
  302.928
  302.883
  302.838
  302.814
  302.819
  302.841
  302.86
  302.871
  302.876
  302.877
  302.876
  303.134
  303.075
  303.067
  303.092
  303.13
  303.165
  303.171
  303.179
  303.189
  303.199
  303.21
  303.221
  303.233
  303.246
  303.258
  303.274
  303.291
  303.313
  303.359
  303.653
  303.022
  302.966
  302.99
  303.02
  303.036
  302.999
  302.917
  302.843
  302.806
  302.813
  302.842
  302.872
  302.89
  302.895
  302.895
  302.891
  302.902
  302.928
  302.974
  303.035
  303.104
  303.169
  303.222
  303.265
  303.299
  303.328
  303.354
  303.379
  303.402
  303.423
  303.443
  303.46
  303.402
  303.357
  303.341
  303.368
  303.834
  303.102
  303.017
  303.049
  303.105
  303.136
  303.068
  302.939
  302.841
  302.796
  302.806
  302.848
  302.894
  302.925
  302.936
  302.938
  302.94
  302.959
  302.997
  303.055
  303.127
  303.201
  303.271
  303.33
  303.382
  303.422
  303.455
  303.483
  303.504
  303.52
  303.529
  303.533
  303.527
  303.483
  303.42
  303.377
  303.38
  303.556
  303.645
  303.635
  304.001
  303.206
  303.096
  303.12
  303.216
  303.211
  303.094
  302.94
  302.823
  302.777
  302.799
  302.862
  302.933
  302.984
  303.009
  303.02
  303.033
  303.067
  303.121
  303.189
  303.265
  303.338
  303.404
  303.459
  303.505
  303.541
  303.569
  303.59
  303.605
  303.613
  303.613
  303.606
  303.588
  303.547
  303.484
  303.425
  303.404
  303.482
  303.526
  303.575
  304.162
  303.372
  303.261
  303.281
  303.343
  303.254
  303.069
  302.881
  302.764
  302.741
  302.797
  302.899
  303.003
  303.08
  303.127
  303.149
  303.174
  303.22
  303.285
  303.355
  303.425
  303.49
  303.546
  303.59
  303.626
  303.652
  303.671
  303.684
  303.691
  303.691
  303.684
  303.669
  303.645
  303.605
  303.55
  303.491
  303.456
  303.478
  303.502
  303.541
  304.386
  303.798
  303.669
  303.648
  303.493
  303.211
  302.919
  302.718
  302.649
  302.699
  302.824
  302.985
  303.129
  303.23
  303.284
  303.311
  303.345
  303.399
  303.465
  303.53
  303.588
  303.638
  303.678
  303.708
  303.73
  303.745
  303.754
  303.759
  303.758
  303.751
  303.738
  303.721
  303.697
  303.66
  303.616
  303.571
  303.547
  303.564
  303.587
  303.697
  304.709
  304.425
  304.185
  303.901
  303.269
  302.731
  302.437
  302.383
  302.508
  302.723
  302.95
  303.18
  303.341
  303.415
  303.453
  303.486
  303.526
  303.579
  303.635
  303.688
  303.73
  303.763
  303.787
  303.803
  303.813
  303.816
  303.815
  303.809
  303.798
  303.786
  303.772
  303.758
  303.747
  303.74
  303.741
  303.755
  303.782
  303.813
  303.833
  303.889
  296.168
  297.009
  298.666
  300.155
  301.26
  302.073
  302.689
  303.123
  303.338
  303.464
  303.537
  303.583
  303.619
  303.654
  303.694
  303.737
  303.779
  303.814
  303.841
  303.858
  303.868
  303.872
  303.87
  303.865
  303.857
  303.846
  303.834
  303.822
  303.811
  303.802
  303.795
  303.794
  303.799
  303.813
  303.838
  303.871
  303.915
  303.984
  296.619
  298.346
  300.278
  301.77
  302.567
  303.039
  303.328
  303.497
  303.597
  303.661
  303.705
  303.739
  303.77
  303.801
  303.832
  303.862
  303.887
  303.906
  303.918
  303.923
  303.923
  303.919
  303.912
  303.903
  303.893
  303.882
  303.871
  303.861
  303.85
  303.841
  303.834
  303.83
  303.832
  303.839
  303.854
  303.886
  303.912
  303.964
  299.958
  299.881
  299.873
  302.093
  302.976
  303.326
  303.512
  303.634
  303.717
  303.775
  303.816
  303.848
  303.873
  303.894
  303.913
  303.93
  303.944
  303.955
  303.962
  303.965
  303.965
  303.961
  303.956
  303.949
  303.941
  303.932
  303.923
  303.914
  303.905
  303.896
  303.887
  303.879
  303.871
  303.864
  303.86
  303.862
  303.871
  303.886
  303.902
  303.965
)
;

boundaryField
{
  floor
  {
    type wallHeatTransfer;
    Tinf uniform 305.2;
    alphaWall uniform 0.24;
    value nonuniform List<scalar> 29
(
  303.149
  303.535
  303.47
  303.418
  303.404
  303.416
  303.433
  303.457
  303.483
  303.509
  303.534
  303.558
  303.581
  303.604
  303.626
  303.648
  303.671
  303.696
  303.726
  303.782
  303.782
  303.74
  303.72
  303.713
  303.149
  303.535
  303.545
  303.432
  303.112
)
;
  }
  ceiling
  {
    type wallHeatTransfer;
    Tinf uniform 303.2;
    alphaWall uniform 0.24;
    value nonuniform List<scalar> 43
(
  300.189
  300.107
  300.094
  302.163
  302.991
  303.317
  303.489
  303.6
  303.675
  303.724
  303.759
  303.785
  303.806
  303.824
  303.839
  303.853
  303.864
  303.872
  303.876
  303.877
  303.874
  303.869
  303.862
  303.854
  303.845
  303.837
  303.828
  303.82
  303.812
  303.805
  303.799
  303.794
  303.79
  303.787
  303.787
  303.792
  303.8
  303.812
  303.824
  303.875
  304.64
  304.376
  297.046
)
;
  }
  sWall
  {
    type wallHeatTransfer;
    Tinf uniform 315.2;
    alphaWall uniform 0.36;
    value uniform 301.536;
  }
  nWall
  {
    type wallHeatTransfer;
    Tinf uniform 307.2;
    alphaWall uniform 0.36;
    value nonuniform List<scalar> 6
(
  304.315
  304.247
  304.154
  304.448
  304.422
  304.502
)
;
  }
  sideWalls
  {
    type empty;
  }
  glass1
  {
    type wallHeatTransfer;
    Tinf uniform 315.2;
    alphaWall uniform 4.3;
    value nonuniform List<scalar> 9
(
  311.126
  310.532
  310.161
  309.882
  309.651
  309.441
  309.295
  309.376
  309.612
)
;
  }
  glass2
  {
    type wallHeatTransfer;
    Tinf uniform 307.2;
    alphaWall uniform 4.3;
    value nonuniform List<scalar> 2
(
  305.891
  306.003
)
;
  }
  sun
  {
    type wallHeatTransfer;
    Tinf uniform 305.2;
    alphaWall uniform 0.24;
    value nonuniform List<scalar> 14
(
  303.331
  303.084
  303.068
  303.057
  303.047
  303.037
  303.026
  303.015
  303.007
  303.005
  303.015
  303.046
  303.072
  303.105
)
;
  }
  heatsource1
  {
    type fixedGradient;
    gradient uniform 0;
  }
  heatsource2
  {
    type fixedGradient;
    gradient uniform 0;
  }
  Table_master
  {
    type zeroGradient;
  }
  Table_slave
  {
    type zeroGradient;
  }
  inlet
  {
    type fixedValue;
    value uniform 293.15;
  }
  outlet
  {
    type zeroGradient;
  }
} 	// ************************************************************************* //

