/*--------------------------------*- C++ -*----------------------------------*\
  =========                 |
  \\      /  F ield         | OpenFOAM: The Open Source CFD Toolbox
   \\    /   O peration     | Website:  https://openfoam.org
    \\  /    A nd           | Version:  6
     \\/     M anipulation  |
\*---------------------------------------------------------------------------*/
FoamFile
{
    version     2.0;
    format      ascii;
    class       volScalarField;
    location    "400";
    object      nut;
}
// * * * * * * * * * * * * * * * * * * * * * * * * * * * * * * * * * * * * * //

dimensions      [0 2 -1 0 0 0 0];

internalField   nonuniform List<scalar> 
459
(
0.000858961
0.000911436
0.000909447
0.000941433
0.000969026
0.000992808
0.00101393
0.00103359
0.00105324
0.0010667
0.00107114
0.00106313
0.00104042
0.00100515
0.00096494
0.000355249
0.0004085
0.000397753
0.000347359
0.000304357
0.000275333
0.000254961
0.000238438
0.000226759
0.000224342
0.000228488
0.000236638
0.000246704
0.000255096
0.000261635
0.000270736
0.000316819
0.000501897
0.000421748
0.00123717
0.00234588
0.00207101
0.00237269
0.00259763
0.00283656
0.00307186
0.00327502
0.00340202
0.0035162
0.00359353
0.003595
0.00346194
0.00308605
0.0022384
0.000961187
0.000707257
0.000526681
0.000709756
0.000749155
0.000789902
0.00084781
0.000883093
0.00080849
0.000756863
0.000743983
0.000761774
0.000796462
0.000835215
0.000870565
0.000901643
0.000930634
0.000934313
0.000832273
0.00124774
0.000535904
0.00156513
0.00325443
0.00234991
0.00314967
0.00336403
0.00350007
0.003592
0.00365848
0.0037092
0.00377465
0.00383859
0.00387894
0.00388058
0.00383534
0.00367611
0.00303371
0.000997327
0.000756702
0.0010107
0.00106075
0.0011881
0.00136362
0.001386
0.000460729
0.000420955
0.00039357
0.00037401
0.000359667
0.000349086
0.000341226
0.00033541
0.000333265
0.000425704
0.00051651
0.00121448
0.000647648
0.00189298
0.00449142
0.00223321
0.00335532
0.00356627
0.00356987
0.00352732
0.00349565
0.00350357
0.00354694
0.00360013
0.00363673
0.0036567
0.00371192
0.00386194
0.00395817
0.0035293
0.000928695
0.00138212
0.00152616
0.00170651
0.00193036
0.00211233
0.0019401
0.000524116
0.000514998
0.000530489
0.000556638
0.000583449
0.000602609
0.00060635
0.000591795
0.000572346
0.000588723
0.000647733
0.00141675
0.000688631
0.0022289
0.00616669
0.00245223
0.00316465
0.00356272
0.00350729
0.00338985
0.00331347
0.00332196
0.00338413
0.00345476
0.00348321
0.00345732
0.0034533
0.00361253
0.0038501
0.00384855
0.00323097
0.00269005
0.00251059
0.00250813
0.00259558
0.00267465
0.00265593
0.0024243
0.00246909
0.00257664
0.00268164
0.00275446
0.00277451
0.0027242
0.0025575
0.00220015
0.0017857
0.00137638
0.00119714
0.00128358
0.000765314
0.000791003
0.000914893
0.0025795
0.00801308
0.00369832
0.00278338
0.00335617
0.00342397
0.00332073
0.00321748
0.00320985
0.00331918
0.00342575
0.00345872
0.00338433
0.00328662
0.0033886
0.00363733
0.00371027
0.00343755
0.00313807
0.00299099
0.00289367
0.00283134
0.00284281
0.00289647
0.00296433
0.00307655
0.00319119
0.00328546
0.00334594
0.00336291
0.00333086
0.0032462
0.00302437
0.00265762
0.00218954
0.00155762
0.00143993
0.00124293
0.00159659
0.000989244
0.00293726
0.00950276
0.00627421
0.00343171
0.00281964
0.00288868
0.00308056
0.00321018
0.00321533
0.00335241
0.00346216
0.00348531
0.00336587
0.00318362
0.00321411
0.00347411
0.00358525
0.00339519
0.00322239
0.00305904
0.00280738
0.00270579
0.00279321
0.00294339
0.00309051
0.00322018
0.00332378
0.00340379
0.00346118
0.00349531
0.00350852
0.00350851
0.00347355
0.0032454
0.00286725
0.00242618
0.00219925
0.00211504
0.00208831
0.00119877
0.00303367
0.00936667
0.0075938
0.00584858
0.00442377
0.0036038
0.00336854
0.00344971
0.00346551
0.00350484
0.00355394
0.00353187
0.00333742
0.00305552
0.00304467
0.00336936
0.00354017
0.0033658
0.00315497
0.00277986
0.00247326
0.00251606
0.0027509
0.00296119
0.00309787
0.00318498
0.00325183
0.00331213
0.00336922
0.00342695
0.00349768
0.00360492
0.00377593
0.00393474
0.00379439
0.00381633
0.00413426
0.00437201
0.00468317
0.00165086
0.00298149
0.00362637
0.00411216
0.0042569
0.00413333
0.00387484
0.00367552
0.00357957
0.00355472
0.00359035
0.00362788
0.00355074
0.00322689
0.00281591
0.00281754
0.00330443
0.00355535
0.00334584
0.00288514
0.00234753
0.00214759
0.00241587
0.00277655
0.00297285
0.00303458
0.00305077
0.00306995
0.0030964
0.00312153
0.00313936
0.00314776
0.00314601
0.00313225
0.00311009
0.00307706
0.00301784
0.00286169
0.00260194
0.00235839
0.00152456
0.00218706
0.00353649
0.00394539
0.00399983
0.00397393
0.00395147
0.00392028
0.00386629
0.00375153
0.00346238
0.00289154
0.00235198
0.00247728
0.00328057
0.00363269
0.00312439
0.00245535
0.00197646
0.00194267
0.00243662
0.00290413
0.00300269
0.00293208
0.00287768
0.00286869
0.00288213
0.00290449
0.00293025
0.00295569
0.00298092
0.00300894
0.00302432
0.00299071
0.0028834
0.00266236
0.00233989
0.00197234
0.00121573
0.00230453
0.00410883
0.00441502
0.00433979
0.00422462
0.00407631
0.0038972
0.00362477
0.00325428
0.00274766
0.00208028
0.00158461
0.00186892
0.00277879
0.00292236
0.00260777
0.00219014
0.00183932
0.00178126
0.0023374
0.00271477
0.00271944
0.00253702
0.00241289
0.0023706
0.00238032
0.00243386
0.00252727
0.0026447
0.00276722
0.00291051
0.00303975
0.00311625
0.00312673
0.00302199
0.00286829
0.00252862
0.00123379
0.00202206
0.00212334
0.00221042
0.00234388
0.00219922
0.00199717
0.00183347
0.00167458
0.00151686
0.00138003
0.00125982
0.00113871
0.000970311
0.000702172
0.000716215
0.000758084
0.000748326
0.000719266
0.000678456
0.000624501
0.000635855
0.00066667
0.000688261
0.000681596
0.000680266
0.000690043
0.000710728
0.000740567
0.000778849
0.000825889
0.000883465
0.000954333
0.00103367
0.00111992
0.00120876
0.00132044
0.00134116
0.00129863
0.00120445
0.00110514
)
;

boundaryField
{
    floor
    {
        type            nutkWallFunction;
        Cmu             0.09;
        kappa           0.41;
        E               9.8;
        value           nonuniform List<scalar> 
29
(
0.000116587
4.08341e-05
4.78737e-05
4.64652e-05
3.97799e-05
3.39778e-05
3.00023e-05
2.71801e-05
2.48698e-05
2.32242e-05
2.28837e-05
2.34716e-05
2.46222e-05
2.60356e-05
2.72075e-05
2.81168e-05
2.9377e-05
3.56801e-05
5.99602e-05
4.96163e-05
4.96162e-05
6.42886e-05
7.82787e-05
8.33351e-05
0.000116587
4.08341e-05
6.31056e-05
9.16498e-05
0.000112298
)
;
    }
    ceiling
    {
        type            nutkWallFunction;
        Cmu             0.09;
        kappa           0.41;
        E               9.8;
        value           nonuniform List<scalar> 
43
(
0.000235671
0.000246651
0.000256048
0.000270462
0.000254951
0.000233074
0.00021516
0.000197605
0.000179996
0.000164557
0.000150852
0.000136892
0.000117159
8.49974e-05
8.67263e-05
9.18277e-05
9.06379e-05
8.70965e-05
8.21026e-05
7.54086e-05
7.68002e-05
8.06156e-05
8.32844e-05
8.24757e-05
8.23076e-05
8.35074e-05
8.60431e-05
8.96871e-05
9.43371e-05
0.000100015
0.000106913
0.000115333
0.000124675
0.000134738
0.000145012
0.000157809
0.000160169
0.000155319
0.000144516
0.000133021
0.000338165
0.000404876
0.000266088
)
;
    }
    sWall
    {
        type            nutkWallFunction;
        Cmu             0.09;
        kappa           0.41;
        E               9.8;
        value           uniform 0.000235735;
    }
    nWall
    {
        type            nutkWallFunction;
        Cmu             0.09;
        kappa           0.41;
        E               9.8;
        value           nonuniform List<scalar> 6(0.000110662 0.000119462 0.000143872 0.000145826 0.000147902 0.00013303);
    }
    sideWalls
    {
        type            empty;
    }
    glass1
    {
        type            nutkWallFunction;
        Cmu             0.09;
        kappa           0.41;
        E               9.8;
        value           nonuniform List<scalar> 9(0.000104017 0.000148443 0.000185695 0.000222073 0.00025864 0.000296181 0.000333939 0.000344038 0.000338595);
    }
    glass2
    {
        type            nutkWallFunction;
        Cmu             0.09;
        kappa           0.41;
        E               9.8;
        value           nonuniform List<scalar> 2(0.000195095 0.000180975);
    }
    sun
    {
        type            nutkWallFunction;
        Cmu             0.09;
        kappa           0.41;
        E               9.8;
        value           nonuniform List<scalar> 
14
(
0.00010399
0.000110252
0.000110016
0.000113813
0.000117078
0.000119882
0.000122367
0.000124674
0.000126975
0.000128549
0.000129067
0.00012813
0.000125471
0.000121329
)
;
    }
    heatsource1
    {
        type            nutkWallFunction;
        Cmu             0.09;
        kappa           0.41;
        E               9.8;
        value           nonuniform List<scalar> 3(9.27017e-05 9.58091e-05 0.000110657);
    }
    heatsource2
    {
        type            nutkWallFunction;
        Cmu             0.09;
        kappa           0.41;
        E               9.8;
        value           nonuniform List<scalar> 4(0.000116139 8.56001e-05 8.56001e-05 0.00012039);
    }
    Table_master
    {
        type            nutkWallFunction;
        Cmu             0.09;
        kappa           0.41;
        E               9.8;
        value           nonuniform List<scalar> 9(5.4684e-05 4.95215e-05 4.59317e-05 4.33484e-05 4.14434e-05 4.0032e-05 3.89801e-05 3.81996e-05 3.79113e-05);
    }
    Table_slave
    {
        type            nutkWallFunction;
        Cmu             0.09;
        kappa           0.41;
        E               9.8;
        value           nonuniform List<scalar> 9(6.2795e-05 6.16347e-05 6.36037e-05 6.69113e-05 7.02832e-05 7.26815e-05 7.31493e-05 7.13301e-05 6.88908e-05);
    }
    inlet
    {
        type            calculated;
        value           uniform 0.000100623;
    }
    outlet
    {
        type            calculated;
        value           nonuniform List<scalar> 2(0.00202206 0.00212334);
    }
}


// ************************************************************************* //
