// -*- C++ -*-
// File generated by PyFoam - sorry for the ugliness

FoamFile
{
 version 2.0;
 format ascii;
 class volScalarField;
 location "400";
 object T;
}

dimensions [ 0 0 0 1 0 0 0 ];

internalField nonuniform List<scalar> 459
(
  303.085
  302.792
  302.778
  302.773
  302.769
  302.765
  302.761
  302.757
  302.752
  302.745
  302.736
  302.726
  302.715
  302.707
  302.704
  302.6
  302.609
  302.612
  302.585
  302.546
  302.498
  302.436
  302.356
  302.275
  302.225
  302.202
  302.194
  302.188
  302.18
  302.169
  302.163
  302.17
  302.185
  302.188
  303.291
  302.829
  302.804
  302.805
  302.807
  302.809
  302.808
  302.806
  302.802
  302.791
  302.772
  302.747
  302.72
  302.698
  302.687
  302.685
  302.69
  302.645
  302.649
  302.646
  302.636
  302.62
  302.597
  302.561
  302.517
  302.477
  302.442
  302.412
  302.383
  302.355
  302.327
  302.298
  302.271
  302.243
  302.231
  302.2
  303.503
  302.878
  302.838
  302.849
  302.863
  302.875
  302.884
  302.889
  302.887
  302.871
  302.839
  302.793
  302.743
  302.703
  302.682
  302.679
  302.685
  302.71
  302.701
  302.693
  302.684
  302.675
  302.667
  302.645
  302.618
  302.592
  302.569
  302.546
  302.523
  302.5
  302.477
  302.451
  302.426
  302.395
  302.361
  302.259
  303.709
  302.94
  302.874
  302.894
  302.923
  302.952
  302.976
  302.993
  302.996
  302.977
  302.928
  302.855
  302.774
  302.709
  302.677
  302.673
  302.682
  302.699
  302.702
  302.705
  302.704
  302.702
  302.7
  302.699
  302.703
  302.707
  302.712
  302.717
  302.721
  302.724
  302.726
  302.725
  302.722
  302.659
  302.582
  302.478
  302.291
  303.907
  303.018
  302.91
  302.93
  302.972
  303.017
  303.061
  303.096
  303.108
  303.088
  303.023
  302.921
  302.806
  302.716
  302.672
  302.666
  302.678
  302.693
  302.702
  302.709
  302.714
  302.716
  302.719
  302.721
  302.726
  302.732
  302.737
  302.742
  302.747
  302.749
  302.75
  302.747
  302.74
  302.713
  302.658
  302.565
  302.442
  302.508
  302.607
  302.628
  304.081
  303.116
  302.962
  302.958
  303
  303.052
  303.109
  303.162
  303.192
  303.176
  303.099
  302.973
  302.83
  302.718
  302.666
  302.659
  302.675
  302.694
  302.708
  302.718
  302.726
  302.731
  302.735
  302.739
  302.744
  302.75
  302.756
  302.761
  302.765
  302.768
  302.767
  302.764
  302.754
  302.736
  302.699
  302.632
  302.549
  302.535
  302.551
  302.583
  304.221
  303.275
  303.1
  303.031
  303.037
  303.074
  303.125
  303.183
  303.233
  303.217
  303.131
  302.99
  302.832
  302.713
  302.657
  302.651
  302.672
  302.698
  302.718
  302.731
  302.74
  302.746
  302.75
  302.754
  302.759
  302.765
  302.771
  302.776
  302.78
  302.782
  302.781
  302.777
  302.766
  302.749
  302.722
  302.679
  302.629
  302.604
  302.595
  302.612
  304.445
  303.735
  303.523
  303.346
  303.243
  303.205
  303.211
  303.252
  303.272
  303.227
  303.115
  302.957
  302.791
  302.679
  302.635
  302.642
  302.673
  302.708
  302.731
  302.746
  302.756
  302.76
  302.762
  302.766
  302.771
  302.777
  302.783
  302.787
  302.791
  302.792
  302.792
  302.788
  302.78
  302.762
  302.742
  302.716
  302.693
  302.684
  302.68
  302.798
  304.757
  304.444
  304.166
  303.905
  303.699
  303.558
  303.476
  303.422
  303.326
  303.184
  303.017
  302.841
  302.684
  302.609
  302.603
  302.634
  302.683
  302.725
  302.747
  302.762
  302.77
  302.771
  302.772
  302.775
  302.78
  302.786
  302.792
  302.796
  302.8
  302.802
  302.803
  302.804
  302.805
  302.808
  302.813
  302.827
  302.85
  302.877
  302.899
  302.958
  298.056
  300.744
  302.054
  302.537
  302.717
  302.761
  302.761
  302.725
  302.661
  302.576
  302.505
  302.53
  302.584
  302.644
  302.712
  302.744
  302.763
  302.776
  302.782
  302.779
  302.779
  302.782
  302.787
  302.793
  302.799
  302.804
  302.808
  302.813
  302.817
  302.821
  302.825
  302.83
  302.839
  302.852
  302.87
  302.889
  302.904
  302.921
  298.427
  300.688
  301.571
  302.028
  302.251
  302.34
  302.366
  302.378
  302.375
  302.358
  302.38
  302.536
  302.632
  302.706
  302.737
  302.757
  302.773
  302.786
  302.792
  302.787
  302.785
  302.788
  302.794
  302.799
  302.803
  302.808
  302.812
  302.816
  302.82
  302.825
  302.829
  302.835
  302.842
  302.852
  302.865
  302.878
  302.873
  302.903
  299.69
  299.635
  299.632
  301.054
  301.614
  301.992
  302.121
  302.176
  302.2
  302.215
  302.228
  302.246
  302.353
  302.713
  302.743
  302.749
  302.761
  302.771
  302.782
  302.798
  302.806
  302.805
  302.805
  302.808
  302.811
  302.814
  302.816
  302.819
  302.821
  302.823
  302.825
  302.827
  302.83
  302.833
  302.838
  302.847
  302.854
  302.858
  302.858
  302.894
)
;

boundaryField
{
  floor
  {
    type wallHeatTransfer;
    Tinf uniform 305.2;
    alphaWall uniform 0.24;
    value nonuniform List<scalar> 29
(
  302.99
  303.191
  303.149
  303.161
  303.188
  303.209
  303.213
  303.199
  303.171
  303.137
  303.106
  303.082
  303.059
  303.036
  303.014
  302.994
  302.974
  302.908
  302.734
  302.803
  302.803
  302.723
  302.709
  302.717
  302.99
  303.191
  303.096
  303.051
  302.995
)
;
  }
  ceiling
  {
    type wallHeatTransfer;
    Tinf uniform 303.2;
    alphaWall uniform 0.24;
    value nonuniform List<scalar> 43
(
  299.914
  299.855
  299.845
  301.176
  301.709
  302.07
  302.196
  302.253
  302.281
  302.301
  302.319
  302.342
  302.45
  302.783
  302.808
  302.811
  302.822
  302.832
  302.844
  302.861
  302.867
  302.865
  302.863
  302.866
  302.869
  302.871
  302.871
  302.872
  302.872
  302.871
  302.871
  302.87
  302.87
  302.871
  302.873
  302.879
  302.884
  302.889
  302.891
  302.925
  304.684
  304.395
  298.701
)
;
  }
  sWall
  {
    type wallHeatTransfer;
    Tinf uniform 315.2;
    alphaWall uniform 0.36;
    value uniform 301.136;
  }
  nWall
  {
    type wallHeatTransfer;
    Tinf uniform 307.2;
    alphaWall uniform 0.36;
    value nonuniform List<scalar> 6
(
  303.402
  303.322
  303.251
  303.512
  303.49
  303.531
)
;
  }
  sideWalls
  {
    type empty;
  }
  glass1
  {
    type wallHeatTransfer;
    Tinf uniform 315.2;
    alphaWall uniform 4.3;
    value nonuniform List<scalar> 9
(
  311.856
  311.128
  310.654
  310.278
  309.966
  309.693
  309.45
  309.492
  309.699
)
;
  }
  glass2
  {
    type wallHeatTransfer;
    Tinf uniform 307.2;
    alphaWall uniform 4.3;
    value nonuniform List<scalar> 2
(
  305.426
  305.56
)
;
  }
  sun
  {
    type wallHeatTransfer;
    Tinf uniform 305.2;
    alphaWall uniform 0.24;
    value nonuniform List<scalar> 14
(
  303.349
  303.08
  303.068
  303.057
  303.047
  303.039
  303.031
  303.023
  303.015
  303.007
  302.998
  302.99
  302.985
  302.984
)
;
  }
  heatsource1
  {
    type fixedGradient;
    gradient uniform 0;
  }
  heatsource2
  {
    type fixedGradient;
    gradient uniform 0;
  }
  Table_master
  {
    type zeroGradient;
  }
  Table_slave
  {
    type zeroGradient;
  }
  inlet
  {
    type fixedValue;
    value uniform 293.15;
  }
  outlet
  {
    type zeroGradient;
  }
} 	// ************************************************************************* //

