/*--------------------------------*- C++ -*----------------------------------*\
  =========                 |
  \\      /  F ield         | OpenFOAM: The Open Source CFD Toolbox
   \\    /   O peration     | Website:  https://openfoam.org
    \\  /    A nd           | Version:  6
     \\/     M anipulation  |
\*---------------------------------------------------------------------------*/
FoamFile
{
    version     2.0;
    format      ascii;
    class       volScalarField;
    location    "1300";
    object      nut;
}
// * * * * * * * * * * * * * * * * * * * * * * * * * * * * * * * * * * * * * //

dimensions      [0 2 -1 0 0 0 0];

internalField   nonuniform List<scalar> 
459
(
0.00106611
0.00116251
0.00118472
0.00124136
0.00129387
0.00134346
0.00139279
0.00143974
0.00147262
0.00148514
0.00147128
0.00142682
0.0013497
0.00124196
0.00111539
0.000465207
0.000555349
0.000627991
0.000634793
0.000617079
0.000591199
0.000554878
0.00051778
0.000484031
0.000454156
0.000427779
0.000404417
0.000383664
0.000365116
0.000348096
0.000331757
0.000314938
0.000304358
0.000278518
0.00145133
0.00344416
0.00326199
0.00378456
0.00429696
0.00481031
0.00525525
0.00560261
0.00592474
0.00619195
0.00636785
0.00641545
0.00629007
0.00588573
0.00475678
0.00113611
0.000709897
0.000484653
0.00102397
0.0014379
0.0017522
0.00193901
0.00194922
0.00153757
0.00131989
0.00116582
0.0010484
0.000955714
0.000880688
0.000817162
0.000757945
0.000700443
0.000649312
0.000604445
0.000717971
0.000369692
0.00177197
0.00467193
0.00398037
0.00495694
0.00540634
0.00573323
0.00598863
0.0062145
0.00647592
0.00675868
0.00702955
0.00723879
0.00734093
0.00725831
0.00677066
0.00519198
0.00117317
0.000909594
0.0013297
0.00173855
0.00213655
0.00243326
0.00240491
0.000788983
0.000697617
0.000623413
0.000563198
0.000514
0.000473441
0.000439758
0.000411817
0.000389127
0.000420262
0.0004853
0.000812268
0.000431585
0.0020803
0.00597541
0.0039306
0.00517732
0.00551645
0.00559905
0.00566906
0.00579789
0.00601742
0.00631223
0.00665006
0.0069604
0.00719376
0.00728279
0.0071803
0.00661715
0.00442095
0.00137237
0.00164585
0.00210437
0.00261007
0.00306307
0.00337696
0.00321832
0.000893335
0.000817194
0.000762921
0.00072161
0.00068629
0.000653268
0.000621436
0.000587834
0.000548682
0.000514707
0.000520387
0.000943623
0.000480681
0.00239492
0.00767701
0.00424925
0.00493895
0.00540544
0.00535925
0.00531552
0.00541299
0.00561791
0.00591958
0.00629268
0.00663375
0.0068718
0.0069632
0.00690994
0.00668733
0.00612106
0.00519135
0.0048784
0.0048336
0.0048879
0.00495025
0.00496119
0.00480695
0.00408544
0.00373496
0.00353158
0.00337371
0.00320627
0.00296648
0.00263524
0.00222881
0.00177565
0.00132494
0.000978372
0.000966891
0.00065483
0.000593304
0.000715538
0.000803737
0.00272926
0.00954501
0.00584385
0.00477959
0.00523078
0.00538055
0.0052381
0.00532717
0.00549621
0.0057753
0.00613957
0.00649535
0.00673163
0.006783
0.00666625
0.00646801
0.00628361
0.00617089
0.00618947
0.00622582
0.00620651
0.00612133
0.00597328
0.00575066
0.00541382
0.00511102
0.00484328
0.00458773
0.0043294
0.00405303
0.00370295
0.00326302
0.00273262
0.00214442
0.00161699
0.0011923
0.000911442
0.0007768
0.00110392
0.000840643
0.003043
0.0108939
0.00837439
0.00607184
0.00568036
0.00570835
0.00556158
0.00547864
0.00556071
0.00582765
0.00621273
0.00658689
0.00681189
0.00681318
0.00662827
0.00641369
0.00637283
0.00656345
0.00679296
0.00687156
0.00677179
0.00654254
0.00622812
0.00586043
0.00547243
0.00511838
0.00480194
0.00451274
0.00424799
0.00401211
0.00380435
0.00352123
0.00311465
0.00261207
0.0021217
0.0016695
0.00134812
0.00125383
0.00128221
0.000964077
0.0031108
0.00988025
0.00857752
0.00760928
0.00702173
0.0063513
0.00579553
0.00556587
0.00567557
0.00603832
0.0065044
0.00689804
0.00706752
0.00696484
0.00668853
0.00648453
0.00658629
0.00689312
0.00702299
0.00688594
0.00655603
0.00610833
0.00560944
0.0051232
0.00469971
0.00435488
0.00407334
0.00384178
0.00365852
0.00352887
0.00345988
0.00342945
0.00323473
0.00291765
0.00263392
0.00249177
0.00260267
0.00300784
0.00367176
0.00149515
0.00303587
0.00362465
0.00409329
0.00423928
0.00425052
0.00435467
0.00464724
0.00515536
0.00583257
0.00654479
0.0071242
0.00742552
0.00735534
0.00698568
0.00660077
0.00654069
0.00661565
0.00661878
0.00641528
0.0060081
0.00547236
0.00489517
0.00435911
0.00391718
0.00357901
0.00332282
0.00312115
0.00295539
0.00281391
0.00268725
0.00256693
0.00245227
0.00236061
0.00229272
0.0022665
0.00227412
0.00225544
0.00215747
0.00201159
0.00139883
0.00182266
0.00325319
0.0045212
0.00557995
0.00644347
0.00722039
0.00782081
0.00811996
0.00807817
0.00771381
0.00708407
0.00639182
0.00598007
0.00583104
0.00565962
0.00534077
0.00488256
0.00435285
0.00382285
0.00335646
0.00299445
0.00273276
0.00254755
0.00241457
0.00231719
0.00224609
0.00219636
0.00216589
0.00215715
0.00217143
0.00219531
0.00222539
0.0022536
0.00225477
0.0021889
0.00204428
0.00183436
0.00114846
0.00212504
0.00456768
0.00627753
0.00707957
0.00762507
0.00800601
0.00795631
0.00744786
0.00668245
0.00587011
0.00519295
0.00470622
0.00437882
0.00407925
0.00371873
0.00331514
0.00291832
0.00257525
0.00231111
0.00212522
0.00199677
0.00190992
0.00185753
0.00183338
0.00183217
0.00185038
0.00188482
0.00193121
0.00199544
0.00207438
0.00216528
0.00226149
0.00234733
0.0024045
0.00238512
0.00239936
0.00237304
0.0011679
0.00182797
0.00192499
0.00199666
0.00206624
0.00187582
0.00172652
0.00165668
0.00158278
0.00147495
0.00134077
0.00118901
0.00103918
0.000907261
0.000803011
0.000727678
0.000674414
0.00063592
0.000608079
0.000589313
0.000578956
0.000576164
0.000579837
0.000588958
0.000603031
0.000621156
0.000642977
0.000668601
0.000698337
0.000732782
0.00077305
0.000818399
0.000869047
0.000925607
0.000988641
0.00105793
0.0011414
0.00116749
0.00113752
0.00106564
0.000989055
)
;

boundaryField
{
    floor
    {
        type            nutkWallFunction;
        Cmu             0.09;
        kappa           0.41;
        E               9.8;
        value           nonuniform List<scalar> 
29
(
0.000134214
5.52432e-05
6.67384e-05
7.58341e-05
7.6679e-05
7.44763e-05
7.12443e-05
6.6679e-05
6.19779e-05
5.7665e-05
5.38157e-05
5.03908e-05
4.7335e-05
4.46016e-05
4.21426e-05
3.98719e-05
3.76786e-05
3.54061e-05
3.39684e-05
3.04286e-05
3.04285e-05
4.27502e-05
5.08859e-05
5.7234e-05
0.000134215
5.52431e-05
5.77445e-05
0.000110029
0.00016372
)
;
    }
    ceiling
    {
        type            nutkWallFunction;
        Cmu             0.09;
        kappa           0.41;
        E               9.8;
        value           nonuniform List<scalar> 
43
(
0.000214451
0.00022508
0.000232897
0.000240549
0.000219815
0.000203383
0.000195643
0.000187412
0.000175318
0.000160129
0.00014274
0.000125324
0.000109751
9.72587e-05
8.81132e-05
8.15793e-05
7.68189e-05
7.33544e-05
7.10083e-05
6.97096e-05
6.93589e-05
6.98202e-05
7.09638e-05
7.27241e-05
7.49839e-05
7.7694e-05
8.08625e-05
8.45212e-05
8.87361e-05
9.36341e-05
9.91142e-05
0.000105193
0.000111932
0.000119388
0.00012752
0.000137237
0.000140258
0.000136787
0.000128421
0.000119437
0.000343864
0.000404725
0.000246717
)
;
    }
    sWall
    {
        type            nutkWallFunction;
        Cmu             0.09;
        kappa           0.41;
        E               9.8;
        value           uniform 0.000214511;
    }
    nWall
    {
        type            nutkWallFunction;
        Cmu             0.09;
        kappa           0.41;
        E               9.8;
        value           nonuniform List<scalar> 6(9.7347e-05 0.000101791 0.000116493 0.000138065 0.000140315 0.000119443);
    }
    sideWalls
    {
        type            empty;
    }
    glass1
    {
        type            nutkWallFunction;
        Cmu             0.09;
        kappa           0.41;
        E               9.8;
        value           nonuniform List<scalar> 9(0.000128575 0.000172874 0.000208729 0.00024254 0.000276489 0.000312052 0.000345011 0.000352095 0.000344291);
    }
    glass2
    {
        type            nutkWallFunction;
        Cmu             0.09;
        kappa           0.41;
        E               9.8;
        value           nonuniform List<scalar> 2(0.000177671 0.000166792);
    }
    sun
    {
        type            nutkWallFunction;
        Cmu             0.09;
        kappa           0.41;
        E               9.8;
        value           nonuniform List<scalar> 
14
(
0.000128477
0.000139679
0.000142245
0.000148765
0.00015478
0.000160434
0.000166037
0.000171349
0.000175058
0.000176467
0.000174905
0.000169889
0.000161143
0.000148832
)
;
    }
    heatsource1
    {
        type            nutkWallFunction;
        Cmu             0.09;
        kappa           0.41;
        E               9.8;
        value           nonuniform List<scalar> 3(7.15095e-05 8.66294e-05 9.73462e-05);
    }
    heatsource2
    {
        type            nutkWallFunction;
        Cmu             0.09;
        kappa           0.41;
        E               9.8;
        value           nonuniform List<scalar> 4(0.000136616 8.59399e-05 8.59399e-05 0.000140905);
    }
    Table_master
    {
        type            nutkWallFunction;
        Cmu             0.09;
        kappa           0.41;
        E               9.8;
        value           nonuniform List<scalar> 9(9.55635e-05 8.44341e-05 7.52671e-05 6.77314e-05 6.15014e-05 5.63099e-05 5.19564e-05 4.83134e-05 4.53319e-05);
    }
    Table_slave
    {
        type            nutkWallFunction;
        Cmu             0.09;
        kappa           0.41;
        E               9.8;
        value           nonuniform List<scalar> 9(0.000108091 9.89685e-05 9.24052e-05 8.73724e-05 8.30423e-05 7.89698e-05 7.50206e-05 7.08251e-05 6.58995e-05);
    }
    inlet
    {
        type            calculated;
        value           uniform 0.000100623;
    }
    outlet
    {
        type            calculated;
        value           nonuniform List<scalar> 2(0.00182797 0.00192499);
    }
}


// ************************************************************************* //
