// -*- C++ -*-
// File generated by PyFoam - sorry for the ugliness

FoamFile
{
 version 2.0;
 format ascii;
 class volScalarField;
 location "800";
 object T;
}

dimensions [ 0 0 0 1 0 0 0 ];

internalField nonuniform List<scalar> 459
(
  303.113
  302.857
  302.845
  302.843
  302.84
  302.837
  302.832
  302.824
  302.817
  302.814
  302.818
  302.834
  302.843
  302.851
  302.865
  303.166
  303.133
  303.112
  303.116
  303.133
  303.148
  303.161
  303.173
  303.185
  303.198
  303.21
  303.222
  303.235
  303.247
  303.261
  303.274
  303.29
  303.311
  303.349
  303.278
  302.893
  302.869
  302.871
  302.872
  302.869
  302.859
  302.837
  302.816
  302.805
  302.811
  302.828
  302.84
  302.848
  302.856
  302.856
  302.856
  303.172
  303.096
  303.077
  303.088
  303.111
  303.133
  303.146
  303.157
  303.168
  303.179
  303.19
  303.201
  303.213
  303.225
  303.238
  303.252
  303.27
  303.295
  303.341
  303.454
  302.941
  302.905
  302.915
  302.926
  302.929
  302.91
  302.865
  302.821
  302.799
  302.806
  302.828
  302.847
  302.858
  302.862
  302.863
  302.861
  303.117
  303.058
  303.051
  303.077
  303.116
  303.151
  303.157
  303.165
  303.174
  303.184
  303.194
  303.206
  303.218
  303.23
  303.243
  303.258
  303.275
  303.298
  303.343
  303.635
  303.003
  302.948
  302.971
  303.002
  303.017
  302.98
  302.898
  302.825
  302.79
  302.8
  302.83
  302.861
  302.878
  302.883
  302.882
  302.877
  302.887
  302.913
  302.959
  303.021
  303.09
  303.156
  303.209
  303.253
  303.287
  303.316
  303.342
  303.367
  303.39
  303.412
  303.432
  303.449
  303.388
  303.342
  303.326
  303.352
  303.816
  303.083
  302.999
  303.03
  303.087
  303.117
  303.047
  302.919
  302.822
  302.781
  302.793
  302.837
  302.884
  302.914
  302.924
  302.926
  302.926
  302.945
  302.983
  303.042
  303.114
  303.189
  303.259
  303.319
  303.371
  303.412
  303.445
  303.472
  303.494
  303.509
  303.519
  303.522
  303.516
  303.471
  303.407
  303.362
  303.364
  303.543
  303.629
  303.619
  303.983
  303.188
  303.077
  303.102
  303.198
  303.192
  303.073
  302.92
  302.805
  302.762
  302.787
  302.853
  302.924
  302.974
  302.998
  303.008
  303.02
  303.053
  303.108
  303.177
  303.253
  303.327
  303.394
  303.449
  303.495
  303.531
  303.56
  303.581
  303.596
  303.603
  303.604
  303.596
  303.578
  303.536
  303.471
  303.411
  303.389
  303.467
  303.51
  303.56
  304.145
  303.354
  303.242
  303.263
  303.324
  303.234
  303.048
  302.862
  302.747
  302.728
  302.787
  302.891
  302.996
  303.072
  303.117
  303.137
  303.161
  303.208
  303.274
  303.344
  303.415
  303.481
  303.537
  303.581
  303.617
  303.644
  303.663
  303.675
  303.682
  303.682
  303.675
  303.66
  303.636
  303.595
  303.538
  303.478
  303.443
  303.464
  303.488
  303.527
  304.368
  303.779
  303.651
  303.63
  303.473
  303.19
  302.899
  302.7
  302.635
  302.689
  302.817
  302.98
  303.124
  303.223
  303.274
  303.3
  303.333
  303.388
  303.455
  303.521
  303.579
  303.629
  303.67
  303.7
  303.722
  303.737
  303.746
  303.751
  303.75
  303.743
  303.73
  303.712
  303.688
  303.65
  303.606
  303.56
  303.535
  303.553
  303.575
  303.684
  304.692
  304.408
  304.167
  303.879
  303.246
  302.71
  302.42
  302.372
  302.501
  302.718
  302.946
  303.179
  303.336
  303.407
  303.444
  303.476
  303.517
  303.569
  303.627
  303.679
  303.722
  303.756
  303.78
  303.796
  303.805
  303.808
  303.807
  303.8
  303.79
  303.777
  303.763
  303.749
  303.737
  303.73
  303.732
  303.745
  303.772
  303.803
  303.822
  303.878
  296.161
  297.003
  298.666
  300.158
  301.264
  302.077
  302.694
  303.123
  303.335
  303.459
  303.531
  303.576
  303.61
  303.645
  303.685
  303.729
  303.771
  303.807
  303.833
  303.851
  303.861
  303.864
  303.863
  303.857
  303.848
  303.837
  303.825
  303.813
  303.802
  303.792
  303.786
  303.784
  303.789
  303.803
  303.827
  303.86
  303.904
  303.974
  296.618
  298.352
  300.299
  301.781
  302.574
  303.042
  303.329
  303.494
  303.592
  303.655
  303.699
  303.733
  303.763
  303.794
  303.825
  303.855
  303.88
  303.899
  303.911
  303.916
  303.916
  303.912
  303.905
  303.895
  303.885
  303.874
  303.863
  303.851
  303.841
  303.832
  303.824
  303.82
  303.821
  303.829
  303.844
  303.876
  303.902
  303.954
  299.962
  299.884
  299.876
  302.095
  302.979
  303.328
  303.512
  303.632
  303.714
  303.771
  303.812
  303.843
  303.868
  303.889
  303.908
  303.925
  303.939
  303.95
  303.957
  303.96
  303.959
  303.956
  303.95
  303.942
  303.934
  303.925
  303.916
  303.907
  303.897
  303.888
  303.878
  303.869
  303.861
  303.854
  303.85
  303.852
  303.861
  303.875
  303.892
  303.954
)
;

boundaryField
{
  floor
  {
    type wallHeatTransfer;
    Tinf uniform 305.2;
    alphaWall uniform 0.24;
    value nonuniform List<scalar> 29
(
  303.135
  303.52
  303.456
  303.404
  303.39
  303.402
  303.42
  303.444
  303.47
  303.496
  303.521
  303.545
  303.568
  303.591
  303.614
  303.636
  303.659
  303.684
  303.714
  303.769
  303.769
  303.727
  303.707
  303.699
  303.135
  303.52
  303.53
  303.418
  303.099
)
;
  }
  ceiling
  {
    type wallHeatTransfer;
    Tinf uniform 303.2;
    alphaWall uniform 0.24;
    value nonuniform List<scalar> 43
(
  300.192
  300.11
  300.096
  302.165
  302.994
  303.319
  303.489
  303.599
  303.672
  303.72
  303.755
  303.78
  303.801
  303.819
  303.835
  303.848
  303.859
  303.867
  303.872
  303.872
  303.869
  303.863
  303.856
  303.848
  303.839
  303.831
  303.822
  303.813
  303.805
  303.798
  303.791
  303.786
  303.781
  303.779
  303.778
  303.783
  303.792
  303.803
  303.815
  303.866
  304.624
  304.36
  297.045
)
;
  }
  sWall
  {
    type wallHeatTransfer;
    Tinf uniform 315.2;
    alphaWall uniform 0.36;
    value uniform 301.537;
  }
  nWall
  {
    type wallHeatTransfer;
    Tinf uniform 307.2;
    alphaWall uniform 0.36;
    value nonuniform List<scalar> 6
(
  304.301
  304.233
  304.14
  304.438
  304.412
  304.492
)
;
  }
  sideWalls
  {
    type empty;
  }
  glass1
  {
    type wallHeatTransfer;
    Tinf uniform 315.2;
    alphaWall uniform 4.3;
    value nonuniform List<scalar> 9
(
  311.117
  310.521
  310.149
  309.87
  309.638
  309.428
  309.283
  309.364
  309.6
)
;
  }
  glass2
  {
    type wallHeatTransfer;
    Tinf uniform 307.2;
    alphaWall uniform 4.3;
    value nonuniform List<scalar> 2
(
  305.883
  305.997
)
;
  }
  sun
  {
    type wallHeatTransfer;
    Tinf uniform 305.2;
    alphaWall uniform 0.24;
    value nonuniform List<scalar> 14
(
  303.315
  303.067
  303.051
  303.041
  303.031
  303.021
  303.01
  302.999
  302.992
  302.991
  303.002
  303.033
  303.059
  303.092
)
;
  }
  heatsource1
  {
    type fixedGradient;
    gradient uniform 0;
  }
  heatsource2
  {
    type fixedGradient;
    gradient uniform 0;
  }
  Table_master
  {
    type zeroGradient;
  }
  Table_slave
  {
    type zeroGradient;
  }
  inlet
  {
    type fixedValue;
    value uniform 293.15;
  }
  outlet
  {
    type zeroGradient;
  }
} 	// ************************************************************************* //

