/*--------------------------------*- C++ -*----------------------------------*\
  =========                 |
  \\      /  F ield         | OpenFOAM: The Open Source CFD Toolbox
   \\    /   O peration     | Website:  https://openfoam.org
    \\  /    A nd           | Version:  6
     \\/     M anipulation  |
\*---------------------------------------------------------------------------*/
FoamFile
{
    version     2.0;
    format      ascii;
    class       volScalarField;
    location    "900";
    object      epsilon;
}
// * * * * * * * * * * * * * * * * * * * * * * * * * * * * * * * * * * * * * //

dimensions      [0 2 -3 0 0 0 0];

internalField   nonuniform List<scalar> 
459
(
0.000622892
0.00083431
0.000912382
0.0010667
0.00123459
0.0014272
0.00161121
0.00173683
0.00176566
0.00167957
0.00147624
0.00105593
0.000748666
0.000478552
0.000295642
5.20672e-05
8.38529e-05
0.000134453
0.000170752
0.000175062
0.000162301
0.000133868
0.000107324
8.66102e-05
7.08774e-05
5.88469e-05
4.9532e-05
4.21878e-05
3.63269e-05
3.14924e-05
2.73005e-05
2.33873e-05
2.00028e-05
1.48712e-05
0.00143334
0.00191468
0.000774464
0.000773693
0.00084915
0.000981802
0.00114163
0.00126501
0.00129988
0.00123045
0.00107409
0.00082917
0.000632129
0.000470462
0.000344444
0.000542202
0.000276801
4.9675e-05
8.22717e-05
0.000127785
0.000142845
0.000141102
0.000133533
0.000135891
0.000110223
8.60595e-05
6.71558e-05
5.28987e-05
4.22154e-05
3.41365e-05
2.79886e-05
2.33301e-05
2.03908e-05
1.89775e-05
3.01558e-05
2.39888e-05
0.00246498
0.00424992
0.00091031
0.000764152
0.000869625
0.00106626
0.00128161
0.00142084
0.00144649
0.0013633
0.00118768
0.000962776
0.000758879
0.000585973
0.00044026
0.00040059
0.000509361
0.000121091
0.000158055
0.000170694
0.000170933
0.000161784
0.000159017
0.00034366
0.000225553
0.000152935
0.000107633
7.85369e-05
5.92413e-05
4.60593e-05
3.70192e-05
3.10855e-05
2.33299e-05
1.9526e-05
4.659e-05
3.22543e-05
0.00380675
0.00841318
0.00133971
0.000824353
0.000959149
0.00127327
0.00154498
0.00166791
0.00166254
0.00154866
0.0013467
0.00110281
0.000865357
0.000669029
0.000517557
0.00042977
0.000425245
0.000727692
0.00047624
0.00033967
0.000270193
0.000230039
0.000201406
0.000194004
0.000507674
0.000376832
0.000293501
0.000235509
0.000191932
0.000156369
0.000125669
9.81779e-05
7.24167e-05
3.87619e-05
2.44648e-05
7.22214e-05
3.98472e-05
0.0055814
0.0146939
0.00246393
0.00103692
0.00119289
0.00175231
0.00200933
0.00205482
0.00198652
0.00182107
0.00156553
0.00125231
0.000945405
0.000698462
0.000525901
0.000421774
0.000392035
0.000427678
0.000382418
0.000338724
0.00030382
0.000270048
0.000234853
0.000204196
0.000199931
0.00018374
0.000166368
0.000148345
0.00012959
0.000110312
9.12546e-05
7.33192e-05
5.69012e-05
3.90997e-05
2.72089e-05
5.47405e-05
4.06451e-05
6.84427e-05
0.000120467
0.000171313
0.00798009
0.0217713
0.00534259
0.00192929
0.00224582
0.00271787
0.00274489
0.00263101
0.00245708
0.00220173
0.00184808
0.00142618
0.00102042
0.000704658
0.000501253
0.000397181
0.000371713
0.000384672
0.00038599
0.000372166
0.00034261
0.000301505
0.00025565
0.000213286
0.000183792
0.000164423
0.000148981
0.00013322
0.000116092
9.8257e-05
8.08137e-05
6.48932e-05
5.12752e-05
3.93439e-05
3.25609e-05
4.27356e-05
4.41131e-05
5.42369e-05
0.000225051
0.000196609
0.0106028
0.026088
0.010863
0.00554777
0.00494238
0.00435639
0.00384285
0.00343805
0.00308492
0.00268656
0.00218872
0.00161552
0.0010837
0.000692974
0.000467739
0.000379007
0.000372791
0.000394612
0.00040319
0.000385081
0.000345718
0.000295707
0.000244646
0.00020076
0.000170274
0.000152912
0.000140785
0.000129477
0.000117395
0.000104911
9.25212e-05
8.06814e-05
7.02846e-05
6.1627e-05
5.9748e-05
6.88444e-05
8.99286e-05
0.000148952
0.000338457
0.000317488
0.0111423
0.0271371
0.0158174
0.0110551
0.00813491
0.00626437
0.00511401
0.00438972
0.00383525
0.00324841
0.00254678
0.00175504
0.00106626
0.000611546
0.000413721
0.000366085
0.000371972
0.000385924
0.000379126
0.000347941
0.000301514
0.00025138
0.000206838
0.000173244
0.000152324
0.000141922
0.000137596
0.000137247
0.000140676
0.000147701
0.000157257
0.000168579
0.000184593
0.000212818
0.000263366
0.000403663
0.00074832
0.00144451
0.00421252
0.0011236
0.0102992
0.0169299
0.0134561
0.0104637
0.0082145
0.00679619
0.00590899
0.00526665
0.00460526
0.003746
0.00271532
0.00154858
0.000769946
0.000475808
0.000372556
0.000344426
0.000340366
0.000333544
0.0003111
0.000275056
0.000233798
0.000195242
0.000164131
0.000142599
0.000130455
0.000126023
0.000128009
0.00013652
0.000152964
0.000179623
0.0002196
0.000277119
0.00035892
0.0004769
0.000639861
0.000850914
0.00108805
0.00129711
0.00146486
0.000915044
0.0038995
0.00537534
0.00667633
0.00666574
0.00623656
0.00544706
0.00416217
0.00247911
0.00139822
0.000791828
0.000499497
0.000376415
0.000327209
0.000306268
0.000291413
0.000271526
0.000244052
0.000212918
0.000183512
0.000159322
0.000141385
0.000129271
0.000121999
0.000118878
0.000120069
0.000126532
0.000139895
0.0001625
0.000197633
0.000249829
0.000325027
0.000429778
0.00056645
0.000723958
0.000869427
0.000960908
0.000898944
0.000561822
0.00276251
0.00771787
0.00764299
0.00571604
0.00413892
0.00282599
0.0017976
0.00111124
0.000704585
0.000488757
0.000384468
0.000336142
0.000312828
0.00029926
0.000288071
0.000276137
0.000263157
0.000250434
0.000239317
0.000230432
0.000223696
0.000218602
0.000214493
0.00021084
0.000207574
0.000205481
0.000206438
0.000213377
0.000230143
0.000261367
0.000312162
0.000386651
0.000484181
0.000596606
0.000672086
0.000745984
0.000819787
0.00060109
0.0025572
0.00249277
0.0026296
0.00319146
0.00254592
0.00212204
0.00176791
0.00139955
0.00107311
0.000826179
0.000659914
0.000558417
0.000497076
0.000456896
0.000426149
0.000397514
0.00036692
0.000333527
0.000299338
0.000267467
0.000240241
0.000218396
0.000201423
0.000188337
0.000178307
0.000171003
0.000166698
0.000166178
0.000170577
0.000181233
0.000199658
0.000227711
0.000267818
0.000322812
0.000395826
0.000487831
0.000507277
0.000450274
0.000382374
0.000313391
)
;

boundaryField
{
    floor
    {
        Cmu             0.09;
        kappa           0.41;
        E               9.8;
        type            epsilonWallFunction;
        value           nonuniform List<scalar> 
29
(
0.000295642
5.20672e-05
8.38529e-05
0.000134453
0.000170752
0.000175062
0.000162301
0.000133868
0.000107324
8.66102e-05
7.08774e-05
5.88469e-05
4.9532e-05
4.21878e-05
3.63269e-05
3.14924e-05
2.73005e-05
2.33873e-05
2.00028e-05
1.48712e-05
1.48712e-05
2.39888e-05
3.22543e-05
3.98472e-05
0.000295642
5.20672e-05
4.9675e-05
0.000121091
0.000727692
)
;
    }
    ceiling
    {
        Cmu             0.09;
        kappa           0.41;
        E               9.8;
        type            epsilonWallFunction;
        value           nonuniform List<scalar> 
43
(
0.0025572
0.00249277
0.0026296
0.00319146
0.00254592
0.00212204
0.00176791
0.00139955
0.00107311
0.000826179
0.000659914
0.000558417
0.000497076
0.000456896
0.000426149
0.000397514
0.00036692
0.000333527
0.000299338
0.000267467
0.000240241
0.000218396
0.000201423
0.000188337
0.000178307
0.000171003
0.000166698
0.000166178
0.000170577
0.000181233
0.000199658
0.000227711
0.000267818
0.000322812
0.000395826
0.000487831
0.000507277
0.000450274
0.000382374
0.000313391
0.0102992
0.0169299
0.00276251
)
;
    }
    sWall
    {
        Cmu             0.09;
        kappa           0.41;
        E               9.8;
        type            epsilonWallFunction;
        value           uniform 0.0025572;
    }
    nWall
    {
        Cmu             0.09;
        kappa           0.41;
        E               9.8;
        type            epsilonWallFunction;
        value           nonuniform List<scalar> 6(0.000171313 0.000196609 0.000317488 0.000561822 0.00060109 0.000313391);
    }
    sideWalls
    {
        type            empty;
    }
    glass1
    {
        Cmu             0.09;
        kappa           0.41;
        E               9.8;
        type            epsilonWallFunction;
        value           nonuniform List<scalar> 9(0.000622892 0.00143334 0.00246498 0.00380675 0.0055814 0.00798009 0.0106028 0.0111423 0.0102992);
    }
    glass2
    {
        Cmu             0.09;
        kappa           0.41;
        E               9.8;
        type            epsilonWallFunction;
        value           nonuniform List<scalar> 2(0.0011236 0.000915044);
    }
    sun
    {
        Cmu             0.09;
        kappa           0.41;
        E               9.8;
        type            epsilonWallFunction;
        value           nonuniform List<scalar> 
14
(
0.000622892
0.00083431
0.000912382
0.0010667
0.00123459
0.0014272
0.00161121
0.00173683
0.00176566
0.00167957
0.00147624
0.00105593
0.000748666
0.000478552
)
;
    }
    heatsource1
    {
        Cmu             0.09;
        kappa           0.41;
        E               9.8;
        type            epsilonWallFunction;
        value           nonuniform List<scalar> 3(6.84427e-05 0.000120467 0.000171313);
    }
    heatsource2
    {
        Cmu             0.09;
        kappa           0.41;
        E               9.8;
        type            epsilonWallFunction;
        value           nonuniform List<scalar> 4(0.000542202 0.000276801 0.000276801 0.000509361);
    }
    Table_master
    {
        Cmu             0.09;
        kappa           0.41;
        E               9.8;
        type            epsilonWallFunction;
        value           nonuniform List<scalar> 9(0.00034366 0.000225553 0.000152935 0.000107633 7.85369e-05 5.92413e-05 4.60593e-05 3.70192e-05 3.10855e-05);
    }
    Table_slave
    {
        Cmu             0.09;
        kappa           0.41;
        E               9.8;
        type            epsilonWallFunction;
        value           nonuniform List<scalar> 9(0.000507674 0.000376832 0.000293501 0.000235509 0.000191932 0.000156369 0.000125669 9.81779e-05 7.24167e-05);
    }
    inlet
    {
        type            turbulentMixingLengthDissipationRateInlet;
        mixingLength    0.01;
        phi             phi;
        k               k;
        value           uniform 0.000101881;
    }
    outlet
    {
        type            zeroGradient;
    }
}


// ************************************************************************* //
