/*--------------------------------*- C++ -*----------------------------------*\
  =========                 |
  \\      /  F ield         | OpenFOAM: The Open Source CFD Toolbox
   \\    /   O peration     | Website:  https://openfoam.org
    \\  /    A nd           | Version:  6
     \\/     M anipulation  |
\*---------------------------------------------------------------------------*/
FoamFile
{
    version     2.0;
    format      ascii;
    class       volScalarField;
    location    "900";
    object      nut;
}
// * * * * * * * * * * * * * * * * * * * * * * * * * * * * * * * * * * * * * //

dimensions      [0 2 -1 0 0 0 0];

internalField   nonuniform List<scalar> 
459
(
0.00120734
0.00133086
0.00137114
0.00144445
0.00151656
0.00159164
0.0016573
0.0016993
0.00170867
0.00168047
0.00160982
0.00143964
0.00128372
0.00110578
0.000941751
0.000527891
0.000618772
0.000724233
0.000784276
0.000790811
0.000771104
0.000723155
0.000671797
0.000625453
0.000585024
0.000549851
0.000519157
0.000492113
0.000468178
0.000446412
0.000425654
0.000404259
0.000383736
0.00034763
0.00159397
0.00406126
0.00396906
0.00460897
0.00523962
0.00574631
0.00616302
0.00651988
0.00678313
0.0069236
0.00690395
0.00664196
0.00610272
0.00506387
0.00337199
0.00115283
0.000921321
0.000519684
0.00128025
0.00204477
0.00268231
0.00307236
0.00303382
0.00213246
0.00176166
0.00152184
0.001349
0.00121816
0.00111566
0.00103403
0.000958234
0.000878591
0.000802385
0.00073533
0.000793411
0.000407718
0.00190972
0.00550611
0.00489952
0.00570288
0.00609074
0.00638539
0.00666499
0.00697018
0.00729743
0.00761173
0.00782732
0.00783455
0.00760227
0.00704767
0.00581394
0.00377616
0.0011291
0.000699523
0.00136548
0.00222086
0.00315252
0.00382584
0.00368078
0.000990198
0.000860523
0.000755989
0.000672455
0.000605395
0.00055109
0.000506742
0.000471147
0.000444494
0.000498669
0.000596565
0.000914214
0.000450023
0.00220743
0.00684842
0.00501741
0.0058861
0.00602821
0.00614506
0.00630959
0.00656451
0.00693048
0.00735528
0.00768962
0.0078455
0.00781451
0.00757223
0.00693453
0.00563073
0.00304988
0.0012717
0.00150964
0.00220215
0.00324192
0.00430223
0.00502128
0.00469644
0.00112774
0.00102109
0.000939475
0.000873009
0.000815457
0.00076162
0.000708109
0.000652177
0.000589267
0.000539782
0.000584379
0.00105282
0.000482889
0.00250775
0.00854103
0.00550593
0.00599096
0.00607853
0.00605448
0.00609843
0.00630215
0.00668723
0.00713541
0.00749966
0.00767904
0.0076703
0.00752494
0.00722109
0.00660608
0.00545985
0.0047731
0.0050776
0.00565618
0.00630749
0.00681937
0.00705556
0.00682525
0.00555646
0.004874
0.00442054
0.00401935
0.00358087
0.00310181
0.00258744
0.0020535
0.00152776
0.00107595
0.000834355
0.00101541
0.000611171
0.000578326
0.000698263
0.000785224
0.00282514
0.0104192
0.00729094
0.0065478
0.00653115
0.00626288
0.00613055
0.00625991
0.00664434
0.00712446
0.00750361
0.00765683
0.00760085
0.00746582
0.00737455
0.00734177
0.00724964
0.0074206
0.0079489
0.00839654
0.00866197
0.00870959
0.00854088
0.00814515
0.00747241
0.00682747
0.00623834
0.005648
0.00503701
0.00439497
0.00371959
0.00301903
0.00232229
0.0016947
0.00127963
0.00110947
0.000846142
0.000744363
0.00107335
0.000822115
0.00310586
0.0116912
0.00981758
0.00812203
0.00727772
0.00653136
0.00621063
0.00633601
0.0067853
0.00732874
0.0077243
0.00784347
0.00775846
0.00772616
0.00800374
0.00847369
0.00892066
0.00939627
0.00982949
0.00997797
0.00987804
0.00957387
0.009113
0.00852966
0.00784353
0.00716677
0.00651923
0.0058888
0.00526357
0.00464907
0.00404296
0.0034362
0.00282655
0.00223644
0.00179617
0.00149715
0.00125571
0.00122112
0.00127403
0.000964534
0.00315767
0.0100788
0.00910599
0.00795781
0.00681804
0.00614747
0.00605799
0.00645574
0.00712603
0.00777342
0.0081498
0.0081981
0.00814579
0.0084967
0.00920709
0.00970828
0.010076
0.0103589
0.0104757
0.01032
0.00991783
0.00933441
0.00862867
0.00784687
0.00703855
0.00627392
0.00556684
0.00492578
0.00437411
0.0039408
0.00361592
0.00333567
0.00302681
0.00267732
0.00246167
0.002422
0.0026201
0.00311971
0.00382736
0.00146985
0.00307593
0.00363019
0.00398485
0.00407974
0.00431235
0.00491839
0.00585422
0.00694594
0.00793456
0.00853151
0.00863085
0.00852861
0.00885462
0.00936408
0.00978786
0.010019
0.0101206
0.0100906
0.00986617
0.00941149
0.00875609
0.00795736
0.00707066
0.00615828
0.00528871
0.00450694
0.00384053
0.00330043
0.00289263
0.00260857
0.00242394
0.00231224
0.00224876
0.00222067
0.00222402
0.00224071
0.00221984
0.00211936
0.00197286
0.0013726
0.00148524
0.00301772
0.00570554
0.00761315
0.00881186
0.00943281
0.00955341
0.00922531
0.00870456
0.00850868
0.00873374
0.00896799
0.00904358
0.00899547
0.00883549
0.00852047
0.00801402
0.00732867
0.00652607
0.00568825
0.00489005
0.00418473
0.00359636
0.00312535
0.00276477
0.0025042
0.00233025
0.00222785
0.0021824
0.00218093
0.00221151
0.00226239
0.00231726
0.00234934
0.00232769
0.00225497
0.00208419
0.00116659
0.00198376
0.00590037
0.00822151
0.00907747
0.00901234
0.00849205
0.00782098
0.00724978
0.00689379
0.0067245
0.00662839
0.00651714
0.00639075
0.00623685
0.00601538
0.00568953
0.00525716
0.00475972
0.004262
0.00381913
0.00345685
0.00317394
0.00295479
0.00278093
0.00263729
0.00251469
0.00241101
0.0023307
0.00228182
0.00227137
0.0023001
0.00235808
0.00242369
0.00247492
0.00244625
0.00249444
0.00252984
0.00119315
0.00193332
0.00191692
0.00195137
0.00208145
0.00193044
0.00181677
0.00170953
0.00158145
0.00144746
0.0013266
0.00123082
0.00116413
0.00111981
0.00108876
0.00106375
0.00103936
0.00101197
0.000980279
0.000945562
0.000910731
0.000878714
0.000851229
0.00082858
0.000810235
0.000795593
0.000784586
0.000777959
0.000777167
0.000783988
0.00080001
0.000826278
0.000863317
0.00091131
0.000969863
0.00103809
0.001113
0.0011276
0.00108368
0.00102621
0.000960342
)
;

boundaryField
{
    floor
    {
        type            nutkWallFunction;
        Cmu             0.09;
        kappa           0.41;
        E               9.8;
        value           nonuniform List<scalar> 
29
(
0.00011385
6.32665e-05
7.46905e-05
8.76963e-05
9.49993e-05
9.57908e-05
9.34045e-05
8.75669e-05
8.12627e-05
7.55242e-05
7.0476e-05
6.60494e-05
6.21581e-05
5.87059e-05
5.56308e-05
5.28173e-05
5.01179e-05
4.73181e-05
4.46143e-05
3.98119e-05
3.98118e-05
4.77688e-05
5.32801e-05
5.75166e-05
0.00011385
6.32665e-05
6.22229e-05
8.46593e-05
0.000152232
)
;
    }
    ceiling
    {
        type            nutkWallFunction;
        Cmu             0.09;
        kappa           0.41;
        E               9.8;
        value           nonuniform List<scalar> 
43
(
0.000226102
0.000224225
0.000227979
0.000242241
0.000225834
0.000213373
0.00020153
0.000187277
0.000172229
0.000158524
0.000147566
0.000139881
0.000134746
0.000131135
0.000128218
0.000125364
0.000122151
0.00011842
0.000114316
0.000110182
0.000106364
0.000103075
0.000100354
9.81442e-05
9.63759e-05
9.50436e-05
9.42397e-05
9.41421e-05
9.49663e-05
9.69015e-05
0.000100066
0.000104509
0.000110234
0.000117172
0.000125197
0.000133938
0.000135634
0.000130524
0.000123803
0.000116047
0.000348014
0.000405257
0.000231351
)
;
    }
    sWall
    {
        type            nutkWallFunction;
        Cmu             0.09;
        kappa           0.41;
        E               9.8;
        value           uniform 0.00022616;
    }
    nWall
    {
        type            nutkWallFunction;
        Cmu             0.09;
        kappa           0.41;
        E               9.8;
        value           nonuniform List<scalar> 6(9.51061e-05 9.95596e-05 0.000116542 0.000140167 0.000143236 0.000116052);
    }
    sideWalls
    {
        type            empty;
    }
    glass1
    {
        type            nutkWallFunction;
        Cmu             0.09;
        kappa           0.41;
        E               9.8;
        value           nonuniform List<scalar> 9(0.000145001 0.000188921 0.000223903 0.000256311 0.000288534 0.00032215 0.000351553 0.00035696 0.000348459);
    }
    glass2
    {
        type            nutkWallFunction;
        Cmu             0.09;
        kappa           0.41;
        E               9.8;
        value           nonuniform List<scalar> 2(0.000174817 0.000163812);
    }
    sun
    {
        type            nutkWallFunction;
        Cmu             0.09;
        kappa           0.41;
        E               9.8;
        value           nonuniform List<scalar> 
14
(
0.000144856
0.000158999
0.000163579
0.000171879
0.000179998
0.000188406
0.000195723
0.000200386
0.000201423
0.000198292
0.000190422
0.00017133
0.000153613
0.000133098
)
;
    }
    heatsource1
    {
        type            nutkWallFunction;
        Cmu             0.09;
        kappa           0.41;
        E               9.8;
        value           nonuniform List<scalar> 3(6.9628e-05 8.45092e-05 9.51059e-05);
    }
    heatsource2
    {
        type            nutkWallFunction;
        Cmu             0.09;
        kappa           0.41;
        E               9.8;
        value           nonuniform List<scalar> 4(0.000138549 0.000111423 0.000111423 0.000135797);
    }
    Table_master
    {
        type            nutkWallFunction;
        Cmu             0.09;
        kappa           0.41;
        E               9.8;
        value           nonuniform List<scalar> 9(0.000119574 0.000104177 9.15681e-05 8.1344e-05 7.30262e-05 6.62085e-05 6.05797e-05 5.60179e-05 5.2574e-05);
    }
    Table_slave
    {
        type            nutkWallFunction;
        Cmu             0.09;
        kappa           0.41;
        E               9.8;
        value           nonuniform List<scalar> 9(0.000135655 0.000123207 0.000113582 0.000105671 9.8764e-05 9.22509e-05 8.57229e-05 7.88364e-05 7.10047e-05);
    }
    inlet
    {
        type            calculated;
        value           uniform 0.000100623;
    }
    outlet
    {
        type            calculated;
        value           nonuniform List<scalar> 2(0.00193332 0.00191692);
    }
}


// ************************************************************************* //
