/*--------------------------------*- C++ -*----------------------------------*\
  =========                 |
  \\      /  F ield         | OpenFOAM: The Open Source CFD Toolbox
   \\    /   O peration     | Website:  https://openfoam.org
    \\  /    A nd           | Version:  6
     \\/     M anipulation  |
\*---------------------------------------------------------------------------*/
FoamFile
{
    version     2.0;
    format      ascii;
    class       volScalarField;
    location    "1700";
    object      T;
}
// * * * * * * * * * * * * * * * * * * * * * * * * * * * * * * * * * * * * * //

dimensions      [0 0 0 1 0 0 0];

internalField   nonuniform List<scalar> 
459
(
303.389
303.125
303.112
303.109
303.105
303.101
303.096
303.091
303.082
303.07
303.058
303.047
303.041
303.04
303.046
303.134
303.114
303.107
303.109
303.113
303.117
303.12
303.124
303.128
303.132
303.136
303.14
303.144
303.148
303.152
303.156
303.16
303.166
303.185
303.567
303.167
303.144
303.147
303.15
303.151
303.149
303.141
303.125
303.1
303.072
303.048
303.033
303.026
303.025
303.022
303.02
303.137
303.099
303.092
303.094
303.099
303.103
303.105
303.107
303.108
303.11
303.111
303.112
303.113
303.115
303.117
303.121
303.127
303.136
303.168
303.753
303.218
303.181
303.192
303.207
303.218
303.223
303.216
303.189
303.144
303.096
303.056
303.03
303.02
303.019
303.021
303.021
303.087
303.081
303.084
303.093
303.102
303.11
303.11
303.11
303.11
303.11
303.11
303.11
303.11
303.111
303.111
303.114
303.119
303.127
303.161
303.942
303.28
303.217
303.237
303.267
303.295
303.314
303.309
303.266
303.195
303.119
303.06
303.026
303.014
303.016
303.021
303.026
303.036
303.049
303.066
303.085
303.104
303.121
303.134
303.145
303.154
303.162
303.169
303.175
303.18
303.183
303.186
303.187
303.164
303.144
303.135
303.161
304.125
303.358
303.257
303.273
303.315
303.364
303.405
303.399
303.334
303.232
303.129
303.057
303.018
303.006
303.012
303.025
303.038
303.053
303.072
303.094
303.117
303.139
303.158
303.174
303.188
303.2
303.209
303.217
303.222
303.224
303.223
303.22
303.213
303.195
303.169
303.149
303.158
303.232
303.279
303.285
304.291
303.458
303.322
303.314
303.354
303.416
303.478
303.455
303.362
303.238
303.122
303.041
303
302.995
303.01
303.034
303.059
303.084
303.109
303.136
303.162
303.185
303.204
303.22
303.233
303.243
303.252
303.257
303.26
303.26
303.255
303.246
303.235
303.217
303.192
303.167
303.162
303.192
303.21
303.245
304.44
303.619
303.475
303.44
303.458
303.515
303.541
303.475
303.343
303.194
303.07
302.994
302.968
302.981
303.016
303.057
303.096
303.131
303.162
303.19
303.215
303.236
303.252
303.265
303.276
303.284
303.29
303.293
303.293
303.29
303.282
303.27
303.255
303.237
303.214
303.19
303.178
303.186
303.196
303.225
304.657
304.042
303.878
303.776
303.728
303.709
303.608
303.431
303.232
303.062
302.954
302.914
302.929
302.979
303.043
303.106
303.156
303.195
303.225
303.249
303.268
303.284
303.296
303.306
303.313
303.318
303.32
303.32
303.318
303.314
303.306
303.294
303.279
303.263
303.246
303.229
303.222
303.235
303.254
303.381
304.968
304.68
304.414
304.184
303.996
303.768
303.433
303.114
302.889
302.779
302.767
302.825
302.922
303.022
303.118
303.191
303.233
303.262
303.283
303.3
303.314
303.324
303.333
303.338
303.342
303.344
303.344
303.343
303.34
303.338
303.336
303.336
303.338
303.344
303.359
303.382
303.415
303.448
303.47
303.524
297.019
299.135
300.244
300.707
301.156
301.601
302.013
302.362
302.642
302.869
303.061
303.168
303.234
303.274
303.299
303.317
303.331
303.341
303.35
303.356
303.36
303.363
303.365
303.367
303.367
303.368
303.369
303.37
303.371
303.373
303.378
303.386
303.4
303.419
303.443
303.467
303.486
303.506
297.456
299.326
300.268
300.975
301.578
302.114
302.52
302.804
303.001
303.135
303.222
303.275
303.308
303.329
303.344
303.356
303.364
303.371
303.375
303.379
303.381
303.383
303.384
303.385
303.387
303.388
303.389
303.39
303.391
303.394
303.397
303.403
303.413
303.426
303.442
303.46
303.459
303.488
299.532
299.462
299.457
301.239
302.103
302.546
302.795
302.972
303.1
303.189
303.252
303.295
303.323
303.342
303.355
303.363
303.369
303.374
303.377
303.38
303.382
303.385
303.386
303.388
303.39
303.391
303.393
303.394
303.396
303.398
303.399
303.401
303.404
303.407
303.413
303.423
303.432
303.438
303.441
303.479
)
;

boundaryField
{
    floor
    {
        type            wallHeatTransfer;
        Tinf            uniform 305.2;
        alphaWall       uniform 0.24;
        value           nonuniform List<scalar> 
29
(
303.268
303.531
303.47
303.435
303.434
303.444
303.457
303.475
303.496
303.516
303.535
303.554
303.573
303.591
303.608
303.624
303.641
303.66
303.675
303.716
303.716
303.62
303.572
303.544
303.268
303.531
303.522
303.341
303.226
)
;
    }
    ceiling
    {
        type            wallHeatTransfer;
        Tinf            uniform 303.2;
        alphaWall       uniform 0.24;
        value           nonuniform List<scalar> 
43
(
299.786
299.71
299.699
301.362
302.178
302.594
302.826
302.99
303.108
303.19
303.247
303.284
303.308
303.323
303.333
303.339
303.343
303.346
303.348
303.35
303.352
303.354
303.356
303.358
303.36
303.362
303.364
303.366
303.368
303.371
303.373
303.376
303.38
303.384
303.39
303.401
303.409
303.414
303.415
303.448
304.886
304.621
297.806
)
;
    }
    sWall
    {
        type            wallHeatTransfer;
        Tinf            uniform 315.2;
        alphaWall       uniform 0.36;
        value           uniform 301.111;
    }
    nWall
    {
        type            wallHeatTransfer;
        Tinf            uniform 307.2;
        alphaWall       uniform 0.36;
        value           nonuniform List<scalar> 6(304.01 303.955 303.872 304.038 304.016 304.075);
    }
    sideWalls
    {
        type            empty;
    }
    glass1
    {
        type            wallHeatTransfer;
        Tinf            uniform 315.2;
        alphaWall       uniform 4.3;
        value           nonuniform List<scalar> 9(311.494 310.858 310.457 310.15 309.895 309.662 309.482 309.547 309.77);
    }
    glass2
    {
        type            wallHeatTransfer;
        Tinf            uniform 307.2;
        alphaWall       uniform 4.3;
        value           nonuniform List<scalar> 2(305.737 305.841);
    }
    sun
    {
        type            wallHeatTransfer;
        Tinf            uniform 305.2;
        alphaWall       uniform 0.24;
        value           nonuniform List<scalar> 
14
(
303.582
303.333
303.318
303.307
303.298
303.289
303.279
303.269
303.258
303.246
303.236
303.231
303.233
303.245
)
;
    }
    heatsource1
    {
        type            fixedGradient;
        gradient        uniform 0;
    }
    heatsource2
    {
        type            fixedGradient;
        gradient        uniform 0;
    }
    Table_master
    {
        type            zeroGradient;
    }
    Table_slave
    {
        type            zeroGradient;
    }
    inlet
    {
        type            fixedValue;
        value           uniform 293.15;
    }
    outlet
    {
        type            zeroGradient;
    }
}


// ************************************************************************* //
