/*--------------------------------*- C++ -*----------------------------------*\
  =========                 |
  \\      /  F ield         | OpenFOAM: The Open Source CFD Toolbox
   \\    /   O peration     | Website:  https://openfoam.org
    \\  /    A nd           | Version:  6
     \\/     M anipulation  |
\*---------------------------------------------------------------------------*/
FoamFile
{
    version     2.0;
    format      ascii;
    class       volScalarField;
    location    "1700";
    object      alphat;
}
// * * * * * * * * * * * * * * * * * * * * * * * * * * * * * * * * * * * * * //

dimensions      [1 -1 -1 0 0 0 0];

internalField   nonuniform List<scalar> 
459
(
0.00123666
0.00134956
0.00137523
0.00144093
0.00150184
0.00155932
0.00161646
0.00167096
0.00170921
0.00172389
0.00170801
0.00165661
0.00156731
0.00144258
0.00129616
0.000539659
0.000644183
0.000728229
0.000735875
0.000715229
0.000685152
0.000643043
0.000600059
0.00056095
0.000526326
0.000495759
0.000468686
0.000444642
0.000423151
0.000403431
0.000384496
0.000365001
0.000352854
0.000322983
0.00168309
0.00399982
0.00378672
0.00439297
0.00498728
0.00558297
0.00610008
0.00650303
0.00687727
0.00718829
0.00739338
0.00744871
0.00730181
0.00682875
0.00550666
0.00131992
0.000822363
0.000562428
0.00118622
0.0016648
0.00202858
0.00224513
0.00225774
0.00178289
0.00153107
0.00135254
0.00121626
0.00110866
0.00102157
0.000947867
0.000879298
0.000812753
0.00075353
0.000701358
0.000833397
0.000429405
0.00205398
0.00542492
0.00461948
0.00575435
0.00627601
0.0066553
0.00695158
0.00721307
0.00751666
0.00784582
0.00816148
0.00840454
0.00852176
0.00842438
0.00785595
0.00602541
0.0013612
0.00105642
0.00154237
0.00201418
0.00247371
0.00281689
0.00278495
0.000914369
0.000808657
0.000722781
0.00065307
0.000596094
0.000549113
0.000510094
0.000477723
0.000451425
0.000487663
0.000562961
0.000943058
0.00050161
0.00241011
0.00693764
0.00456028
0.00600978
0.00640386
0.00649903
0.00657851
0.00672656
0.00698161
0.00732521
0.00771972
0.00808101
0.00835109
0.008453
0.00833133
0.00767775
0.00514014
0.00159254
0.00191019
0.00244097
0.00302533
0.00354867
0.0039117
0.0037287
0.00103523
0.000947199
0.000884491
0.000836794
0.000796019
0.000757837
0.000721039
0.000682186
0.000636893
0.000597757
0.000604247
0.00109679
0.000558827
0.00277306
0.00891066
0.00492838
0.00573086
0.00627321
0.00621748
0.00616287
0.00627431
0.0065135
0.00686568
0.00730251
0.00770077
0.0079777
0.00808228
0.00801733
0.00775592
0.00709763
0.00601702
0.00565298
0.00560015
0.00566251
0.00573469
0.00574773
0.00556996
0.00473568
0.00433039
0.00409479
0.0039117
0.00371757
0.00344018
0.00305667
0.00258602
0.002061
0.00153874
0.00113663
0.00112297
0.000761787
0.000689845
0.000831604
0.00093403
0.00315849
0.011074
0.00677539
0.00553932
0.00606383
0.00623415
0.00606477
0.00616935
0.00636859
0.00669587
0.00712208
0.00753803
0.00781377
0.00787251
0.00773367
0.00749879
0.00728015
0.00714627
0.00716682
0.00720919
0.00718754
0.00708955
0.00691808
0.00665959
0.00626869
0.0059169
0.00560591
0.00530958
0.00501063
0.00469192
0.00428837
0.00378089
0.0031683
0.00248809
0.00187742
0.00138372
0.00105931
0.000903174
0.00128396
0.000977147
0.00351999
0.0126318
0.00970624
0.00702826
0.00656754
0.00660109
0.00643547
0.00634372
0.00644251
0.00675541
0.00720537
0.00764236
0.00790487
0.00790522
0.00768655
0.0074312
0.00737724
0.00759494
0.00786135
0.00795384
0.00783906
0.00757286
0.00720621
0.00677708
0.00632542
0.00591465
0.00554884
0.0052155
0.0049109
0.0046402
0.0044024
0.0040776
0.00360954
0.00302954
0.00246257
0.00193818
0.00156608
0.00145707
0.00149028
0.00112053
0.00359584
0.011444
0.00993634
0.00881112
0.00812521
0.00735593
0.00671468
0.00644997
0.00657853
0.00700092
0.00754352
0.00800193
0.00819876
0.00807702
0.0077505
0.00750574
0.00761732
0.00797308
0.00812544
0.00796653
0.00758238
0.00706013
0.00647823
0.00591282
0.00542303
0.00502653
0.00470432
0.00444015
0.00423157
0.00408475
0.00400791
0.00397551
0.00375219
0.00338687
0.00305914
0.00289534
0.00302577
0.00349787
0.00426957
0.00173696
0.00350557
0.00418983
0.00473672
0.00491107
0.00492822
0.00504839
0.00538806
0.00597762
0.00676348
0.00759031
0.008263
0.00861273
0.00852971
0.00809553
0.00763877
0.00756351
0.00764982
0.00765482
0.00741794
0.00694192
0.00631661
0.00564444
0.00502278
0.00451362
0.004127
0.00383605
0.00360773
0.00341992
0.00325909
0.00311463
0.00297706
0.00284554
0.00274029
0.0026623
0.00263238
0.00264143
0.00261955
0.00250532
0.00233557
0.00162383
0.0021656
0.00383642
0.00529795
0.00652078
0.00751269
0.00840105
0.00908814
0.00942816
0.00937413
0.00894841
0.00821427
0.00740037
0.00691281
0.00673796
0.0065401
0.00616908
0.00563392
0.00501589
0.00439891
0.00385976
0.00344475
0.00314767
0.00293945
0.00279088
0.00268225
0.00260275
0.00254699
0.0025129
0.00250353
0.00252077
0.00254897
0.00258423
0.00261714
0.00261841
0.0025416
0.0023732
0.00212894
0.0013327
0.00251487
0.00538106
0.00734625
0.00826481
0.00888008
0.00930306
0.00925006
0.00865494
0.00775693
0.00680218
0.00600532
0.00543417
0.0050527
0.00470546
0.00428479
0.00381185
0.00334764
0.00294903
0.00264544
0.00243428
0.00229055
0.00219498
0.00213962
0.00211613
0.00211824
0.00214204
0.00218405
0.00223943
0.00231514
0.00240772
0.00251402
0.00262627
0.00272629
0.00279293
0.00277053
0.00278692
0.00275295
0.00135513
0.00230232
0.00230961
0.00235306
0.00242461
0.00219096
0.00200924
0.00192321
0.00183563
0.00170906
0.0015531
0.00137624
0.00120155
0.00104765
0.000926058
0.000838236
0.000776215
0.000731523
0.000699427
0.000678116
0.000666768
0.000664303
0.000669354
0.000680705
0.000697768
0.000719367
0.000745181
0.000775333
0.000810183
0.000850432
0.00089738
0.000950216
0.00100918
0.00107498
0.00114827
0.0012288
0.00132592
0.00135613
0.00132129
0.00123769
0.00114845
)
;

boundaryField
{
    floor
    {
        type            compressible::alphatWallFunction;
        Prt             0.85;
        value           nonuniform List<scalar> 
29
(
0.000183359
7.52858e-05
9.0962e-05
0.00010334
0.000104458
0.000101438
9.70193e-05
9.0793e-05
8.43859e-05
7.85072e-05
7.32603e-05
6.85922e-05
6.44275e-05
6.07032e-05
5.73527e-05
5.4259e-05
5.12704e-05
4.81732e-05
4.62327e-05
4.14232e-05
4.14226e-05
5.83302e-05
6.9489e-05
7.81874e-05
0.000183357
7.52849e-05
7.87298e-05
0.000150216
0.00022339
)
;
    }
    ceiling
    {
        type            compressible::alphatWallFunction;
        Prt             0.85;
        value           nonuniform List<scalar> 
43
(
0.000316207
0.00031703
0.000322592
0.000331853
0.000301932
0.000278409
0.000267195
0.000255718
0.000239016
0.000218243
0.000194397
0.000170501
0.000149117
0.000131964
0.000119412
0.000110453
0.000103944
9.92403e-05
9.61027e-05
9.44271e-05
9.40628e-05
9.48096e-05
9.64851e-05
9.89972e-05
0.000102167
0.000105939
0.000110326
0.000115372
0.000121166
0.000127884
0.000135396
0.000143721
0.000152944
0.000163142
0.000174261
0.00018756
0.000191676
0.000186931
0.000175485
0.000163172
0.000467253
0.000550484
0.000343103
)
;
    }
    sWall
    {
        type            compressible::alphatWallFunction;
        Prt             0.85;
        value           uniform 0.000315036;
    }
    nWall
    {
        type            compressible::alphatWallFunction;
        Prt             0.85;
        value           nonuniform List<scalar> 6(0.000132774 0.000138873 0.000158949 0.000188155 0.000191207 0.000162845);
    }
    sideWalls
    {
        type            empty;
    }
    glass1
    {
        type            compressible::alphatWallFunction;
        Prt             0.85;
        value           nonuniform List<scalar> 9(0.000170902 0.000230332 0.000278505 0.000323965 0.000369629 0.000417487 0.000461868 0.00047125 0.000460464);
    }
    glass2
    {
        type            compressible::alphatWallFunction;
        Prt             0.85;
        value           nonuniform List<scalar> 2(0.000240949 0.000226056);
    }
    sun
    {
        type            compressible::alphatWallFunction;
        Prt             0.85;
        value           nonuniform List<scalar> 
14
(
0.000175225
0.000190646
0.000194135
0.000203032
0.00021124
0.000218951
0.000226587
0.000233841
0.000238916
0.000240861
0.000238756
0.000231931
0.000220018
0.000203251
)
;
    }
    heatsource1
    {
        type            compressible::alphatWallFunction;
        Prt             0.85;
        value           nonuniform List<scalar> 3(9.78237e-05 0.000118451 0.000133092);
    }
    heatsource2
    {
        type            compressible::alphatWallFunction;
        Prt             0.85;
        value           nonuniform List<scalar> 4(0.000186733 0.00011712 0.000117119 0.000192353);
    }
    Table_master
    {
        type            compressible::alphatWallFunction;
        Prt             0.85;
        value           nonuniform List<scalar> 9(0.000130294 0.00011514 0.000102656 9.239e-05 8.38999e-05 7.68238e-05 7.08895e-05 6.5923e-05 6.18569e-05);
    }
    Table_slave
    {
        type            compressible::alphatWallFunction;
        Prt             0.85;
        value           nonuniform List<scalar> 9(0.000147372 0.00013496 0.000126036 0.000119198 0.000113316 0.000107775 0.000102403 9.66955e-05 8.99912e-05);
    }
    inlet
    {
        type            fixedValue;
        value           uniform 1.94e-05;
    }
    outlet
    {
        type            zeroGradient;
    }
}


// ************************************************************************* //
