// -*- C++ -*-
// File generated by PyFoam - sorry for the ugliness

FoamFile
{
 version 2.0;
 format ascii;
 class volScalarField;
 location "200";
 object T;
}

dimensions [ 0 0 0 1 0 0 0 ];

internalField nonuniform List<scalar> 459
(
  302.165
  301.81
  301.8
  301.8
  301.801
  301.802
  301.802
  301.802
  301.801
  301.801
  301.8
  301.797
  301.792
  301.787
  301.782
  301.664
  301.644
  301.642
  301.641
  301.638
  301.633
  301.628
  301.623
  301.618
  301.612
  301.606
  301.599
  301.592
  301.585
  301.577
  301.569
  301.561
  301.552
  301.564
  302.415
  301.836
  301.807
  301.811
  301.817
  301.821
  301.825
  301.828
  301.83
  301.832
  301.83
  301.823
  301.811
  301.794
  301.774
  301.755
  301.683
  301.666
  301.65
  301.647
  301.647
  301.64
  301.632
  301.619
  301.606
  301.593
  301.58
  301.567
  301.554
  301.542
  301.53
  301.519
  301.511
  301.503
  301.496
  301.536
  302.656
  301.885
  301.829
  301.838
  301.851
  301.863
  301.873
  301.882
  301.888
  301.891
  301.888
  301.876
  301.856
  301.827
  301.794
  301.762
  301.74
  301.675
  301.666
  301.669
  301.666
  301.654
  301.642
  301.625
  301.603
  301.581
  301.561
  301.543
  301.526
  301.51
  301.495
  301.483
  301.478
  301.474
  301.472
  301.522
  302.88
  301.952
  301.855
  301.867
  301.888
  301.909
  301.93
  301.947
  301.959
  301.966
  301.964
  301.949
  301.92
  301.879
  301.833
  301.787
  301.747
  301.721
  301.701
  301.697
  301.693
  301.684
  301.666
  301.651
  301.634
  301.625
  301.619
  301.614
  301.609
  301.604
  301.597
  301.589
  301.579
  301.545
  301.51
  301.483
  301.522
  303.087
  302.036
  301.885
  301.891
  301.92
  301.95
  301.981
  302.009
  302.033
  302.047
  302.049
  302.034
  302
  301.952
  301.896
  301.842
  301.795
  301.76
  301.737
  301.722
  301.711
  301.698
  301.678
  301.663
  301.652
  301.645
  301.641
  301.637
  301.632
  301.626
  301.617
  301.606
  301.591
  301.567
  301.534
  301.499
  301.51
  301.567
  301.601
  301.618
  303.265
  302.138
  301.936
  301.912
  301.941
  301.976
  302.014
  302.052
  302.088
  302.115
  302.127
  302.115
  302.079
  302.025
  301.963
  301.9
  301.844
  301.798
  301.765
  301.741
  301.725
  301.71
  301.688
  301.675
  301.667
  301.662
  301.66
  301.657
  301.653
  301.646
  301.635
  301.62
  301.602
  301.58
  301.55
  301.516
  301.508
  301.527
  301.536
  301.575
  303.399
  302.309
  302.083
  301.981
  301.971
  301.996
  302.031
  302.069
  302.111
  302.156
  302.182
  302.176
  302.14
  302.084
  302.019
  301.952
  301.889
  301.834
  301.789
  301.756
  301.734
  301.72
  301.698
  301.686
  301.681
  301.679
  301.678
  301.677
  301.673
  301.666
  301.654
  301.634
  301.612
  301.589
  301.563
  301.534
  301.519
  301.522
  301.529
  301.562
  303.639
  302.811
  302.56
  302.327
  302.18
  302.115
  302.104
  302.12
  302.149
  302.197
  302.217
  302.204
  302.166
  302.111
  302.049
  301.983
  301.92
  301.86
  301.808
  301.767
  301.741
  301.729
  301.706
  301.697
  301.694
  301.695
  301.696
  301.696
  301.694
  301.688
  301.678
  301.662
  301.633
  301.61
  301.591
  301.574
  301.572
  301.595
  301.626
  301.814
  303.97
  303.622
  303.333
  303.034
  302.777
  302.589
  302.465
  302.391
  302.353
  302.317
  302.268
  302.211
  302.151
  302.09
  302.03
  301.973
  301.918
  301.866
  301.819
  301.776
  301.745
  301.738
  301.715
  301.708
  301.708
  301.711
  301.714
  301.717
  301.718
  301.718
  301.717
  301.719
  301.726
  301.737
  301.762
  301.802
  301.854
  301.903
  301.934
  302.009
  297.984
  300.414
  301.533
  301.921
  302.061
  302.109
  302.119
  302.111
  302.091
  302.061
  302.026
  301.988
  301.949
  301.911
  301.874
  301.839
  301.806
  301.773
  301.747
  301.745
  301.725
  301.72
  301.724
  301.728
  301.733
  301.739
  301.745
  301.752
  301.759
  301.767
  301.776
  301.79
  301.813
  301.843
  301.877
  301.904
  301.915
  301.927
  298.337
  300.364
  301.158
  301.539
  301.722
  301.806
  301.841
  301.85
  301.852
  301.848
  301.841
  301.831
  301.82
  301.808
  301.796
  301.783
  301.771
  301.757
  301.746
  301.753
  301.738
  301.737
  301.742
  301.747
  301.751
  301.756
  301.761
  301.768
  301.775
  301.783
  301.792
  301.804
  301.821
  301.843
  301.867
  301.886
  301.876
  301.907
  299.431
  299.383
  299.38
  300.629
  301.139
  301.473
  301.574
  301.627
  301.656
  301.671
  301.68
  301.688
  301.696
  301.703
  301.71
  301.716
  301.722
  301.728
  301.733
  301.738
  301.744
  301.768
  301.773
  301.777
  301.781
  301.784
  301.788
  301.791
  301.793
  301.796
  301.798
  301.801
  301.805
  301.81
  301.819
  301.838
  301.851
  301.857
  301.858
  301.895
)
;

boundaryField
{
  floor
  {
    type wallHeatTransfer;
    Tinf uniform 305.2;
    alphaWall uniform 0.24;
    value nonuniform List<scalar> 29
(
  302.189
  302.283
  302.177
  302.151
  302.149
  302.154
  302.163
  302.184
  302.208
  302.231
  302.254
  302.276
  302.297
  302.319
  302.34
  302.362
  302.385
  302.409
  302.414
  302.462
  302.462
  302.279
  302.176
  302.124
  302.189
  302.283
  302.212
  302.076
  302.054
)
;
  }
  ceiling
  {
    type wallHeatTransfer;
    Tinf uniform 303.2;
    alphaWall uniform 0.24;
    value nonuniform List<scalar> 43
(
  299.663
  299.609
  299.6
  300.771
  301.259
  301.583
  301.684
  301.739
  301.771
  301.791
  301.806
  301.819
  301.832
  301.844
  301.856
  301.868
  301.88
  301.891
  301.901
  301.909
  301.92
  301.939
  301.935
  301.936
  301.94
  301.943
  301.945
  301.947
  301.948
  301.947
  301.945
  301.943
  301.941
  301.94
  301.942
  301.953
  301.962
  301.971
  301.978
  302.019
  303.935
  303.606
  298.607
)
;
  }
  sWall
  {
    type wallHeatTransfer;
    Tinf uniform 315.2;
    alphaWall uniform 0.36;
    value uniform 300.846;
  }
  nWall
  {
    type wallHeatTransfer;
    Tinf uniform 307.2;
    alphaWall uniform 0.36;
    value nonuniform List<scalar> 6
(
  302.539
  302.467
  302.356
  302.621
  302.595
  302.617
)
;
  }
  sideWalls
  {
    type empty;
  }
  glass1
  {
    type wallHeatTransfer;
    Tinf uniform 315.2;
    alphaWall uniform 4.3;
    value nonuniform List<scalar> 9
(
  311.969
  310.999
  310.349
  309.846
  309.458
  309.148
  308.877
  308.923
  309.155
)
;
  }
  glass2
  {
    type wallHeatTransfer;
    Tinf uniform 307.2;
    alphaWall uniform 4.3;
    value nonuniform List<scalar> 2
(
  304.971
  305.15
)
;
  }
  sun
  {
    type wallHeatTransfer;
    Tinf uniform 305.2;
    alphaWall uniform 0.24;
    value nonuniform List<scalar> 14
(
  302.595
  302.278
  302.281
  302.269
  302.258
  302.25
  302.242
  302.235
  302.228
  302.221
  302.214
  302.207
  302.201
  302.194
)
;
  }
  heatsource1
  {
    type fixedGradient;
    gradient uniform 0;
  }
  heatsource2
  {
    type fixedGradient;
    gradient uniform 0;
  }
  Table_master
  {
    type zeroGradient;
  }
  Table_slave
  {
    type zeroGradient;
  }
  inlet
  {
    type fixedValue;
    value uniform 293.15;
  }
  outlet
  {
    type zeroGradient;
  }
} 	// ************************************************************************* //

