/*--------------------------------*- C++ -*----------------------------------*\
  =========                 |
  \\      /  F ield         | OpenFOAM: The Open Source CFD Toolbox
   \\    /   O peration     | Website:  https://openfoam.org
    \\  /    A nd           | Version:  6
     \\/     M anipulation  |
\*---------------------------------------------------------------------------*/
FoamFile
{
    version     2.0;
    format      ascii;
    class       volScalarField;
    location    "1300";
    object      nut;
}
// * * * * * * * * * * * * * * * * * * * * * * * * * * * * * * * * * * * * * //

dimensions      [0 2 -1 0 0 0 0];

internalField   nonuniform List<scalar> 
459
(
0.00106235
0.00115787
0.00117954
0.00123568
0.00128766
0.00133666
0.00138526
0.00143192
0.00146483
0.00147776
0.00146472
0.00142142
0.00134594
0.00124066
0.00111712
0.00046259
0.000552337
0.000623632
0.000628923
0.000610752
0.000584759
0.000548858
0.000512287
0.000479008
0.000449528
0.000423484
0.000400404
0.000379907
0.000361578
0.000344753
0.000328598
0.000311969
0.000301901
0.000276635
0.00144755
0.0034229
0.00323805
0.00375604
0.00426288
0.00477192
0.00521607
0.00556024
0.00588034
0.0061469
0.00632322
0.00637103
0.00624414
0.00583253
0.00467068
0.00113666
0.000699875
0.000483122
0.00101339
0.00141743
0.00172271
0.00190271
0.00191261
0.00151612
0.00130406
0.00115326
0.00103795
0.00094667
0.000872627
0.000809641
0.000751059
0.000694448
0.000644353
0.000600068
0.000714111
0.000369318
0.00176842
0.00464332
0.00394669
0.00492177
0.00536877
0.0056941
0.00594864
0.00617121
0.00642923
0.00670865
0.00697696
0.0071835
0.00728285
0.00720218
0.00671759
0.00516089
0.00116709
0.000910321
0.0013215
0.00171744
0.00210081
0.00238569
0.00235812
0.000780567
0.000690884
0.000617992
0.000558782
0.000510354
0.000470391
0.000437174
0.000409586
0.000387135
0.000417937
0.000481636
0.000805628
0.000431947
0.0020772
0.00594585
0.003894
0.00514135
0.00548206
0.00556506
0.00563307
0.00575825
0.00597359
0.00626307
0.00659724
0.00690352
0.00713297
0.00722342
0.00712214
0.00657191
0.00443474
0.00136663
0.00163783
0.00208692
0.00257677
0.00301205
0.00331236
0.00315785
0.000883375
0.000808943
0.000756009
0.000715791
0.000681379
0.000648954
0.000617683
0.000584632
0.000546074
0.000512722
0.000517179
0.00093486
0.000481366
0.00239233
0.00764792
0.00421002
0.00489984
0.00537098
0.00532591
0.00527977
0.00537261
0.00557467
0.00586965
0.00623957
0.00657756
0.00681412
0.00690474
0.00684997
0.00662699
0.00606605
0.0051351
0.00481645
0.00476169
0.00480415
0.00485616
0.00486135
0.00471115
0.00401509
0.00367856
0.00348457
0.00333413
0.00317317
0.00294053
0.00261438
0.00221197
0.00176284
0.00131627
0.000971255
0.000955803
0.000653267
0.000594995
0.000716948
0.000804881
0.00272715
0.00951627
0.00579889
0.00473004
0.00518507
0.0053365
0.00519375
0.00528328
0.00545159
0.00572588
0.00608443
0.00643701
0.00667307
0.00672504
0.00660603
0.0064002
0.0062034
0.00607606
0.00608123
0.00610625
0.00607843
0.00598882
0.00584143
0.00562597
0.00530475
0.00501835
0.00476586
0.00452425
0.0042786
0.00401469
0.00367445
0.00324122
0.00271503
0.00212977
0.00160367
0.0011764
0.000903099
0.000772723
0.0011005
0.000841439
0.00304189
0.0108686
0.0083313
0.00600989
0.00560288
0.00564595
0.0055137
0.00543717
0.00551641
0.0057755
0.00615279
0.00652307
0.0067486
0.00675119
0.00656243
0.00633344
0.006267
0.00643167
0.00664507
0.006715
0.00661149
0.00638358
0.0060762
0.00572202
0.00535384
0.00502167
0.00472585
0.00445468
0.00420499
0.00398133
0.00378316
0.00350606
0.0030995
0.00259433
0.00210137
0.00164675
0.00132789
0.00123381
0.00126434
0.000961086
0.00311021
0.00987324
0.00856082
0.00757809
0.00697204
0.00632682
0.00577445
0.00553584
0.00563103
0.00597903
0.00643464
0.00682482
0.00699647
0.00689505
0.00660968
0.00637999
0.00644438
0.00672677
0.00684845
0.00670783
0.00638067
0.00594356
0.00546342
0.0050024
0.00460617
0.00428567
0.00402332
0.00380586
0.00363251
0.00350976
0.00344577
0.00341875
0.00322035
0.00289551
0.00260363
0.00245372
0.0025585
0.0029645
0.00364081
0.00149394
0.0030356
0.00362548
0.00409585
0.00424585
0.00426127
0.00435267
0.00462684
0.00511181
0.00576658
0.00646316
0.00703672
0.00734198
0.00728049
0.00690976
0.00649438
0.00639948
0.00644911
0.00644188
0.00623645
0.00583402
0.00531285
0.0047601
0.00425433
0.00384189
0.00352687
0.00328598
0.00309311
0.0029318
0.00279227
0.00266634
0.00254634
0.00243136
0.0023395
0.00227112
0.0022448
0.00225343
0.00223752
0.0021436
0.00200101
0.00139772
0.00183369
0.00326545
0.00449996
0.00552614
0.00636103
0.00711305
0.00770912
0.00801771
0.00799033
0.00764049
0.00701933
0.0062984
0.00584414
0.00567449
0.00549815
0.00518356
0.00473709
0.0042261
0.00371933
0.00327949
0.00293995
0.00269342
0.00251662
0.0023875
0.00229172
0.00222147
0.00217258
0.00214307
0.00213506
0.00215035
0.00217475
0.002205
0.00223355
0.00223592
0.00217256
0.0020313
0.00182491
0.00114724
0.00213165
0.00455025
0.00621583
0.007005
0.00753401
0.00789634
0.00789593
0.00740794
0.00664101
0.00580823
0.00510473
0.00459336
0.00425384
0.00395699
0.00360304
0.00320925
0.0028268
0.00250072
0.00225249
0.00207678
0.00195391
0.00186947
0.00182005
0.00179824
0.00179942
0.00182035
0.00185777
0.0019072
0.00197383
0.00205457
0.00214663
0.00224342
0.00232968
0.00238775
0.00237051
0.00238825
0.00235831
0.00116615
0.00183299
0.00193018
0.00200221
0.00207134
0.00187733
0.00172188
0.0016459
0.00157168
0.00146373
0.00133126
0.00117866
0.0010266
0.000891705
0.000784921
0.00070819
0.000654858
0.000617471
0.000591671
0.000575501
0.000567857
0.000567553
0.000573315
0.000584171
0.00059968
0.000618722
0.000641263
0.00066745
0.000697609
0.000732348
0.000772776
0.000818295
0.000869041
0.000925626
0.000988623
0.00105786
0.00114158
0.00116774
0.00113808
0.00106621
0.000989697
)
;

boundaryField
{
    floor
    {
        type            nutkWallFunction;
        Cmu             0.09;
        kappa           0.41;
        E               9.8;
        value           nonuniform List<scalar> 
29
(
0.000134416
5.49056e-05
6.63584e-05
7.52921e-05
7.595e-05
7.36878e-05
7.04374e-05
6.59188e-05
6.12785e-05
5.70201e-05
5.32169e-05
4.98308e-05
4.68081e-05
4.4105e-05
4.16719e-05
3.94246e-05
3.72532e-05
3.50036e-05
3.36338e-05
3.01693e-05
3.01692e-05
4.27008e-05
5.09333e-05
5.73223e-05
0.000134416
5.49056e-05
5.75482e-05
0.000110115
0.000163067
)
;
    }
    ceiling
    {
        type            nutkWallFunction;
        Cmu             0.09;
        kappa           0.41;
        E               9.8;
        value           nonuniform List<scalar> 
43
(
0.000215003
0.000225647
0.000233501
0.000241101
0.000219979
0.000202869
0.000194444
0.00018617
0.000174053
0.000159045
0.000141545
0.000123849
0.000107898
9.50722e-05
8.57296e-05
7.91653e-05
7.45254e-05
7.13037e-05
6.92759e-05
6.83148e-05
6.82766e-05
6.90012e-05
7.03639e-05
7.23055e-05
7.46811e-05
7.74817e-05
8.07205e-05
8.44319e-05
8.86832e-05
9.36009e-05
9.91016e-05
0.000105192
0.000111935
0.000119385
0.000127512
0.000137258
0.000140286
0.000136852
0.000128488
0.000119512
0.000343835
0.00040481
0.000247433
)
;
    }
    sWall
    {
        type            nutkWallFunction;
        Cmu             0.09;
        kappa           0.41;
        E               9.8;
        value           uniform 0.000215063;
    }
    nWall
    {
        type            nutkWallFunction;
        Cmu             0.09;
        kappa           0.41;
        E               9.8;
        value           nonuniform List<scalar> 6(9.7485e-05 0.000101886 0.000116139 0.000137924 0.000140113 0.000119518);
    }
    sideWalls
    {
        type            empty;
    }
    glass1
    {
        type            nutkWallFunction;
        Cmu             0.09;
        kappa           0.41;
        E               9.8;
        value           nonuniform List<scalar> 9(0.000128134 0.000172447 0.000208337 0.000242203 0.000276212 0.000311829 0.000344894 0.000352033 0.000344263);
    }
    glass2
    {
        type            nutkWallFunction;
        Cmu             0.09;
        kappa           0.41;
        E               9.8;
        value           nonuniform List<scalar> 2(0.000177535 0.000166667);
    }
    sun
    {
        type            nutkWallFunction;
        Cmu             0.09;
        kappa           0.41;
        E               9.8;
        value           nonuniform List<scalar> 
14
(
0.000128038
0.000139141
0.000141646
0.000148112
0.00015407
0.00015966
0.000165184
0.000170465
0.000174179
0.000175636
0.000174166
0.000169277
0.000160716
0.000148683
)
;
    }
    heatsource1
    {
        type            nutkWallFunction;
        Cmu             0.09;
        kappa           0.41;
        E               9.8;
        value           nonuniform List<scalar> 3(7.17212e-05 8.6802e-05 9.74842e-05);
    }
    heatsource2
    {
        type            nutkWallFunction;
        Cmu             0.09;
        kappa           0.41;
        E               9.8;
        value           nonuniform List<scalar> 4(0.00013668 8.47115e-05 8.47115e-05 0.000140204);
    }
    Table_master
    {
        type            nutkWallFunction;
        Cmu             0.09;
        kappa           0.41;
        E               9.8;
        value           nonuniform List<scalar> 9(9.4545e-05 8.36074e-05 7.45925e-05 6.71751e-05 6.1037e-05 5.59176e-05 5.1621e-05 4.80215e-05 4.50694e-05);
    }
    Table_slave
    {
        type            nutkWallFunction;
        Cmu             0.09;
        kappa           0.41;
        E               9.8;
        value           nonuniform List<scalar> 9(0.000106903 9.79741e-05 9.15654e-05 8.66608e-05 8.24382e-05 7.84361e-05 7.45535e-05 7.04239e-05 6.55701e-05);
    }
    inlet
    {
        type            calculated;
        value           uniform 0.000100623;
    }
    outlet
    {
        type            calculated;
        value           nonuniform List<scalar> 2(0.00183299 0.00193018);
    }
}


// ************************************************************************* //
