// -*- C++ -*-
// File generated by PyFoam - sorry for the ugliness

FoamFile
{
 version 2.0;
 format ascii;
 class volScalarField;
 location "1300";
 object T;
}

dimensions [ 0 0 0 1 0 0 0 ];

internalField nonuniform List<scalar> 459
(
  303.387
  303.123
  303.11
  303.107
  303.103
  303.099
  303.095
  303.089
  303.08
  303.068
  303.056
  303.045
  303.039
  303.037
  303.043
  303.129
  303.109
  303.102
  303.104
  303.107
  303.111
  303.115
  303.119
  303.123
  303.127
  303.13
  303.134
  303.138
  303.142
  303.145
  303.149
  303.153
  303.158
  303.178
  303.566
  303.165
  303.143
  303.146
  303.149
  303.15
  303.147
  303.14
  303.124
  303.099
  303.071
  303.047
  303.031
  303.024
  303.022
  303.02
  303.016
  303.132
  303.094
  303.088
  303.09
  303.094
  303.098
  303.1
  303.102
  303.103
  303.104
  303.105
  303.106
  303.107
  303.108
  303.111
  303.114
  303.12
  303.129
  303.161
  303.753
  303.216
  303.179
  303.191
  303.206
  303.217
  303.222
  303.215
  303.189
  303.145
  303.096
  303.055
  303.029
  303.018
  303.017
  303.018
  303.018
  303.083
  303.076
  303.08
  303.088
  303.097
  303.105
  303.105
  303.105
  303.104
  303.104
  303.104
  303.104
  303.104
  303.104
  303.105
  303.108
  303.111
  303.119
  303.153
  303.941
  303.278
  303.216
  303.235
  303.265
  303.294
  303.313
  303.308
  303.267
  303.196
  303.12
  303.061
  303.025
  303.013
  303.013
  303.019
  303.023
  303.033
  303.045
  303.063
  303.081
  303.099
  303.115
  303.128
  303.138
  303.147
  303.155
  303.162
  303.167
  303.172
  303.175
  303.178
  303.178
  303.156
  303.137
  303.127
  303.153
  304.125
  303.356
  303.255
  303.271
  303.314
  303.362
  303.403
  303.399
  303.336
  303.235
  303.132
  303.058
  303.017
  303.005
  303.01
  303.022
  303.035
  303.05
  303.068
  303.09
  303.112
  303.133
  303.152
  303.167
  303.181
  303.192
  303.201
  303.209
  303.213
  303.215
  303.214
  303.211
  303.203
  303.186
  303.161
  303.141
  303.15
  303.224
  303.269
  303.276
  304.291
  303.456
  303.32
  303.312
  303.352
  303.413
  303.477
  303.457
  303.366
  303.242
  303.125
  303.042
  303
  302.993
  303.007
  303.031
  303.055
  303.079
  303.105
  303.131
  303.156
  303.178
  303.197
  303.212
  303.225
  303.235
  303.243
  303.249
  303.251
  303.251
  303.245
  303.237
  303.226
  303.208
  303.183
  303.158
  303.153
  303.184
  303.201
  303.236
  304.439
  303.617
  303.473
  303.437
  303.455
  303.51
  303.54
  303.478
  303.348
  303.199
  303.074
  302.995
  302.968
  302.978
  303.012
  303.053
  303.091
  303.125
  303.156
  303.184
  303.208
  303.228
  303.244
  303.257
  303.267
  303.275
  303.28
  303.283
  303.284
  303.28
  303.272
  303.26
  303.246
  303.228
  303.205
  303.181
  303.169
  303.176
  303.187
  303.216
  304.657
  304.04
  303.876
  303.773
  303.724
  303.708
  303.611
  303.438
  303.24
  303.068
  302.957
  302.914
  302.927
  302.974
  303.037
  303.099
  303.149
  303.188
  303.218
  303.241
  303.26
  303.276
  303.288
  303.297
  303.304
  303.308
  303.31
  303.311
  303.308
  303.304
  303.296
  303.284
  303.269
  303.253
  303.236
  303.219
  303.212
  303.225
  303.244
  303.372
  304.967
  304.679
  304.413
  304.183
  303.996
  303.778
  303.448
  303.128
  302.899
  302.784
  302.768
  302.821
  302.916
  303.015
  303.11
  303.182
  303.225
  303.254
  303.275
  303.291
  303.305
  303.315
  303.323
  303.329
  303.332
  303.334
  303.334
  303.333
  303.33
  303.328
  303.326
  303.326
  303.328
  303.335
  303.349
  303.373
  303.406
  303.439
  303.461
  303.515
  297.037
  299.171
  300.291
  300.739
  301.174
  301.606
  302.01
  302.354
  302.632
  302.856
  303.052
  303.159
  303.225
  303.265
  303.29
  303.308
  303.321
  303.332
  303.34
  303.346
  303.35
  303.353
  303.355
  303.357
  303.357
  303.358
  303.359
  303.36
  303.361
  303.364
  303.368
  303.377
  303.39
  303.41
  303.434
  303.457
  303.476
  303.497
  297.474
  299.352
  300.288
  300.981
  301.571
  302.095
  302.505
  302.791
  302.99
  303.125
  303.213
  303.266
  303.299
  303.32
  303.335
  303.346
  303.354
  303.36
  303.365
  303.368
  303.37
  303.372
  303.374
  303.375
  303.376
  303.378
  303.379
  303.38
  303.382
  303.384
  303.388
  303.394
  303.403
  303.417
  303.433
  303.451
  303.449
  303.479
  299.529
  299.459
  299.455
  301.227
  302.088
  302.531
  302.784
  302.961
  303.09
  303.179
  303.242
  303.285
  303.314
  303.332
  303.345
  303.353
  303.359
  303.363
  303.367
  303.37
  303.372
  303.374
  303.376
  303.378
  303.38
  303.381
  303.383
  303.385
  303.386
  303.388
  303.39
  303.392
  303.394
  303.398
  303.403
  303.413
  303.423
  303.429
  303.431
  303.47
)
;

boundaryField
{
  floor
  {
    type wallHeatTransfer;
    Tinf uniform 305.2;
    alphaWall uniform 0.24;
    value nonuniform List<scalar> 29
(
  303.265
  303.528
  303.467
  303.432
  303.432
  303.441
  303.455
  303.473
  303.494
  303.514
  303.533
  303.552
  303.571
  303.588
  303.605
  303.622
  303.638
  303.657
  303.671
  303.712
  303.712
  303.614
  303.565
  303.537
  303.265
  303.528
  303.519
  303.337
  303.224
)
;
  }
  ceiling
  {
    type wallHeatTransfer;
    Tinf uniform 303.2;
    alphaWall uniform 0.24;
    value nonuniform List<scalar> 43
(
  299.783
  299.707
  299.696
  301.351
  302.164
  302.58
  302.815
  302.98
  303.099
  303.181
  303.238
  303.276
  303.3
  303.315
  303.324
  303.33
  303.334
  303.337
  303.339
  303.341
  303.343
  303.345
  303.347
  303.349
  303.351
  303.353
  303.356
  303.358
  303.36
  303.362
  303.365
  303.368
  303.371
  303.376
  303.381
  303.392
  303.401
  303.406
  303.406
  303.439
  304.885
  304.62
  297.823
)
;
  }
  sWall
  {
    type wallHeatTransfer;
    Tinf uniform 315.2;
    alphaWall uniform 0.36;
    value uniform 301.107;
  }
  nWall
  {
    type wallHeatTransfer;
    Tinf uniform 307.2;
    alphaWall uniform 0.36;
    value nonuniform List<scalar> 6
(
  304.002
  303.947
  303.868
  304.031
  304.009
  304.068
)
;
  }
  sideWalls
  {
    type empty;
  }
  glass1
  {
    type wallHeatTransfer;
    Tinf uniform 315.2;
    alphaWall uniform 4.3;
    value nonuniform List<scalar> 9
(
  311.499
  310.863
  310.461
  310.154
  309.898
  309.665
  309.483
  309.548
  309.77
)
;
  }
  glass2
  {
    type wallHeatTransfer;
    Tinf uniform 307.2;
    alphaWall uniform 4.3;
    value nonuniform List<scalar> 2
(
  305.736
  305.84
)
;
  }
  sun
  {
    type wallHeatTransfer;
    Tinf uniform 305.2;
    alphaWall uniform 0.24;
    value nonuniform List<scalar> 14
(
  303.581
  303.331
  303.317
  303.306
  303.297
  303.287
  303.278
  303.268
  303.257
  303.245
  303.235
  303.229
  303.231
  303.242
)
;
  }
  heatsource1
  {
    type fixedGradient;
    gradient uniform 0;
  }
  heatsource2
  {
    type fixedGradient;
    gradient uniform 0;
  }
  Table_master
  {
    type zeroGradient;
  }
  Table_slave
  {
    type zeroGradient;
  }
  inlet
  {
    type fixedValue;
    value uniform 293.15;
  }
  outlet
  {
    type zeroGradient;
  }
} 	// ************************************************************************* //

