/*--------------------------------*- C++ -*----------------------------------*\
  =========                 |
  \\      /  F ield         | OpenFOAM: The Open Source CFD Toolbox
   \\    /   O peration     | Website:  https://openfoam.org
    \\  /    A nd           | Version:  6
     \\/     M anipulation  |
\*---------------------------------------------------------------------------*/
FoamFile
{
    version     2.0;
    format      ascii;
    class       volScalarField;
    location    "100";
    object      alphat;
}
// * * * * * * * * * * * * * * * * * * * * * * * * * * * * * * * * * * * * * //

dimensions      [1 -1 -1 0 0 0 0];

internalField   nonuniform List<scalar> 
459
(
0.000861864
0.000880585
0.00071182
0.000702188
0.000722309
0.000745068
0.000769287
0.000795133
0.000822967
0.000849117
0.000871802
0.00088882
0.000897597
0.000894842
0.000872679
0.000386093
0.000436148
0.000308715
0.000243321
0.000220956
0.000217048
0.000225607
0.000242936
0.000265542
0.000292096
0.000321675
0.000353482
0.000385964
0.000421423
0.000468057
0.00052173
0.000538213
0.000502526
0.00043518
0.00156513
0.00322331
0.00195296
0.00299843
0.00338693
0.00356203
0.00372695
0.003884
0.00401677
0.00411854
0.0041613
0.00409939
0.00385596
0.00330243
0.00228468
0.000948165
0.000654497
0.000483134
0.00151949
0.00086104
0.000557263
0.000393383
0.000343299
0.00037631
0.000401753
0.000452492
0.000530836
0.000637387
0.000776031
0.000953719
0.00115705
0.00137845
0.00170712
0.00147226
0.0010731
0.000522358
0.00217
0.005717
0.00249783
0.00352021
0.00492006
0.00536979
0.00560002
0.00577388
0.00589721
0.00597308
0.00596689
0.00582462
0.00546165
0.00476079
0.00363473
0.0022306
0.000995791
0.000719199
0.00191857
0.00142428
0.00102405
0.000781452
0.000549075
0.000250321
0.000267431
0.000315448
0.00037622
0.000443685
0.000514831
0.000591565
0.00068135
0.000800118
0.00228582
0.00216
0.00160861
0.000841587
0.00271628
0.00857771
0.00386074
0.00345943
0.0052557
0.00614494
0.00655342
0.00682854
0.00703449
0.00719133
0.00728304
0.00725928
0.00703392
0.00647599
0.00543458
0.00386943
0.00214833
0.0011051
0.00259869
0.00293008
0.00260106
0.00218271
0.00175944
0.00131214
0.000904532
0.000898001
0.00089178
0.000885981
0.000883556
0.000889065
0.000909024
0.0009526
0.00103469
0.00306039
0.00308908
0.00257676
0.00113568
0.00320056
0.01143
0.00622632
0.00417907
0.00492401
0.0059448
0.00663317
0.00713098
0.00752801
0.00787893
0.00820634
0.0084853
0.00867132
0.00870371
0.00851843
0.00807814
0.00742167
0.00668995
0.00623819
0.00602351
0.00591742
0.00586804
0.00578397
0.00560694
0.00540095
0.00526652
0.00510291
0.00490097
0.00466673
0.00442238
0.0042075
0.00406607
0.00402301
0.00409059
0.00394461
0.00371242
0.00326118
0.00136159
0.00117969
0.0010195
0.00363537
0.0138081
0.00955261
0.00644322
0.00527219
0.00530259
0.00589382
0.00656443
0.0071695
0.00775659
0.00835616
0.00894332
0.00947825
0.0099114
0.0101902
0.0102672
0.0101147
0.00975631
0.00929779
0.0088668
0.00859902
0.00844635
0.00831319
0.00817512
0.00801352
0.00782112
0.00758397
0.00728906
0.00692177
0.00647547
0.00596962
0.00546087
0.00501643
0.00465936
0.00435474
0.00404932
0.00364242
0.0030769
0.00226666
0.00106938
0.00398986
0.0149691
0.012587
0.00951716
0.00729451
0.0058592
0.00548259
0.00572898
0.00621786
0.00684638
0.00761178
0.00845527
0.00929732
0.0100544
0.0106578
0.01105
0.0111864
0.0110704
0.010774
0.0104218
0.0101199
0.00989114
0.00971065
0.00955307
0.00939469
0.00922203
0.00902795
0.00879983
0.00851236
0.00812537
0.00759491
0.00691279
0.00615612
0.00545546
0.00487055
0.00435101
0.00379269
0.00315142
0.00241551
0.00109986
0.00398097
0.0129597
0.0117035
0.01106
0.00936262
0.00763205
0.0064682
0.00586413
0.00569897
0.00591039
0.00642788
0.00721674
0.0081804
0.00917012
0.0100515
0.010729
0.0111228
0.0112471
0.0111523
0.0109333
0.0106857
0.0104617
0.0102727
0.010112
0.00996705
0.00983016
0.00970029
0.00957595
0.00944797
0.00929029
0.00904809
0.00863457
0.00797446
0.00711493
0.00621918
0.0054193
0.00466332
0.00399849
0.00347751
0.00176598
0.0037754
0.00433623
0.0113851
0.0119912
0.0103204
0.00856304
0.00721442
0.00632089
0.00581664
0.00563617
0.00575842
0.00619254
0.00689544
0.00776122
0.00865174
0.00943846
0.0100256
0.0103786
0.0105123
0.0104847
0.0103686
0.0102205
0.0100711
0.00993312
0.00980805
0.00969638
0.00960182
0.00953027
0.00948754
0.00947523
0.00948342
0.0094799
0.00940305
0.00918986
0.00889115
0.0084907
0.00795109
0.00704925
0.00673996
0.00193105
0.0241111
0.0215473
0.0123655
0.00945276
0.00801522
0.00711812
0.00657397
0.0062994
0.00623867
0.00635182
0.00661063
0.00699391
0.00746507
0.00797378
0.00846036
0.00886756
0.00915664
0.00932044
0.00938005
0.00936755
0.00931142
0.00923124
0.00914046
0.00904941
0.00896723
0.00890275
0.00886442
0.00885894
0.0088875
0.00893823
0.0089758
0.00893923
0.0087612
0.00838858
0.00779702
0.00696561
0.00588716
0.00189453
0.00809771
0.0165711
0.0117295
0.00905577
0.00761886
0.00680376
0.0063681
0.00619082
0.00619576
0.00632673
0.00653896
0.006799
0.00708434
0.00737799
0.00766112
0.00791212
0.00811244
0.00825366
0.00833901
0.00837901
0.00838323
0.0083483
0.00828905
0.00821809
0.00814474
0.00807522
0.00801276
0.00795735
0.00790477
0.00784482
0.00775904
0.00762035
0.00739768
0.00706207
0.00659115
0.00593751
0.00552536
0.0018313
0.00171086
0.00226076
0.00563367
0.0050901
0.0042552
0.00356829
0.00305717
0.00268085
0.00240202
0.00219547
0.00204495
0.00193949
0.00187034
0.00182942
0.00180923
0.00180303
0.00180508
0.0018106
0.0018158
0.00181809
0.00181624
0.00181014
0.00180064
0.00178998
0.00177796
0.00176479
0.00175087
0.00173656
0.00172208
0.00170743
0.0016923
0.00167604
0.0016577
0.00163612
0.00161015
0.00157848
0.00153923
0.00149133
0.00149348
0.00132731
)
;

boundaryField
{
    floor
    {
        type            compressible::alphatWallFunction;
        Prt             0.85;
        value           nonuniform List<scalar> 
29
(
0.000124282
5.15592e-05
5.94058e-05
3.91363e-05
2.83177e-05
2.4528e-05
2.38572e-05
2.53153e-05
2.82481e-05
3.20335e-05
3.64256e-05
4.12558e-05
4.63838e-05
5.15639e-05
5.71561e-05
6.44159e-05
7.26539e-05
7.51506e-05
6.96976e-05
5.92839e-05
5.92831e-05
7.27089e-05
0.000119892
0.000161403
0.000124281
5.15585e-05
6.66898e-05
0.000102038
0.000157039
)
;
    }
    ceiling
    {
        type            compressible::alphatWallFunction;
        Prt             0.85;
        value           nonuniform List<scalar> 
43
(
0.000239659
0.000311444
0.00072222
0.000658224
0.000558585
0.000475133
0.000411977
0.000364779
0.000329358
0.000302836
0.000283339
0.000269584
0.000260518
0.000255133
0.000252468
0.000251645
0.000251908
0.000252631
0.000253312
0.000253609
0.00025336
0.000252554
0.000251297
0.000249887
0.000248297
0.000246556
0.000244713
0.000242817
0.000240897
0.000238952
0.000236943
0.000234781
0.00023234
0.000229466
0.000226
0.000221766
0.000216506
0.000210069
0.000210355
0.000187849
0.000500332
0.000568191
0.00100546
)
;
    }
    sWall
    {
        type            compressible::alphatWallFunction;
        Prt             0.85;
        value           uniform 0.000238774;
    }
    nWall
    {
        type            compressible::alphatWallFunction;
        Prt             0.85;
        value           nonuniform List<scalar> 6(0.000144978 0.000151962 0.000156217 0.00026328 0.000254971 0.00018756);
    }
    sideWalls
    {
        type            empty;
    }
    glass1
    {
        type            compressible::alphatWallFunction;
        Prt             0.85;
        value           nonuniform List<scalar> 9(0.000119587 0.000215273 0.000293908 0.000363049 0.000423221 0.00047651 0.000519524 0.000518604 0.000493959);
    }
    glass2
    {
        type            compressible::alphatWallFunction;
        Prt             0.85;
        value           nonuniform List<scalar> 2(0.000245611 0.000267261);
    }
    sun
    {
        type            compressible::alphatWallFunction;
        Prt             0.85;
        value           nonuniform List<scalar> 
14
(
0.000122751
0.000125415
0.000100994
9.95816e-05
0.000102532
0.000105858
0.000109383
0.000113131
0.00011715
0.000120912
0.000124164
0.000126596
0.000127848
0.000127453
)
;
    }
    heatsource1
    {
        type            compressible::alphatWallFunction;
        Prt             0.85;
        value           nonuniform List<scalar> 3(0.000192419 0.000167499 0.000145179);
    }
    heatsource2
    {
        type            compressible::alphatWallFunction;
        Prt             0.85;
        value           nonuniform List<scalar> 4(0.000135092 9.2607e-05 9.26059e-05 0.000141811);
    }
    Table_master
    {
        type            compressible::alphatWallFunction;
        Prt             0.85;
        value           nonuniform List<scalar> 9(2.95332e-05 3.23854e-05 4.02703e-05 5.00342e-05 6.06425e-05 7.16114e-05 8.32306e-05 9.65907e-05 0.000113935);
    }
    Table_slave
    {
        type            compressible::alphatWallFunction;
        Prt             0.85;
        value           nonuniform List<scalar> 9(0.000128906 0.000127979 0.000127094 0.000126267 0.000125921 0.000126708 0.000129554 0.000135744 0.000147317);
    }
    inlet
    {
        type            fixedValue;
        value           uniform 1.94e-05;
    }
    outlet
    {
        type            zeroGradient;
    }
}


// ************************************************************************* //
