// -*- C++ -*-
// File generated by PyFoam - sorry for the ugliness

FoamFile
{
 version 2.0;
 format ascii;
 class volScalarField;
 location "100";
 object T;
}

dimensions [ 0 0 0 1 0 0 0 ];

internalField nonuniform List<scalar> 459
(
  304.35
  304.053
  304.049
  304.059
  304.07
  304.081
  304.09
  304.098
  304.105
  304.109
  304.11
  304.107
  304.101
  304.091
  304.077
  303.659
  303.643
  303.637
  303.636
  303.637
  303.64
  303.643
  303.646
  303.652
  303.662
  303.678
  303.701
  303.729
  303.764
  303.81
  303.864
  303.881
  303.837
  303.787
  304.58
  304.173
  304.138
  304.15
  304.166
  304.181
  304.193
  304.204
  304.212
  304.216
  304.214
  304.204
  304.186
  304.157
  304.116
  304.066
  303.949
  303.666
  303.649
  303.63
  303.619
  303.612
  303.606
  303.601
  303.607
  303.623
  303.65
  303.69
  303.742
  303.803
  303.875
  303.957
  304.035
  304.024
  303.952
  303.866
  304.789
  304.297
  304.233
  304.239
  304.26
  304.281
  304.299
  304.315
  304.326
  304.332
  304.329
  304.316
  304.289
  304.245
  304.183
  304.108
  304.039
  303.723
  303.738
  303.748
  303.757
  303.771
  303.751
  303.593
  303.602
  303.634
  303.688
  303.765
  303.86
  303.966
  304.082
  304.21
  304.336
  304.363
  304.393
  304.449
  304.981
  304.433
  304.344
  304.338
  304.362
  304.39
  304.417
  304.44
  304.458
  304.469
  304.47
  304.457
  304.427
  304.375
  304.301
  304.203
  304.09
  303.994
  303.941
  304.017
  304.093
  304.156
  304.2
  304.235
  304.266
  304.284
  304.305
  304.329
  304.358
  304.393
  304.434
  304.481
  304.532
  304.571
  304.619
  304.667
  304.714
  305.161
  304.587
  304.49
  304.468
  304.485
  304.515
  304.549
  304.58
  304.607
  304.627
  304.635
  304.63
  304.608
  304.567
  304.508
  304.434
  304.354
  304.285
  304.239
  304.259
  304.302
  304.341
  304.371
  304.393
  304.41
  304.426
  304.446
  304.47
  304.499
  304.536
  304.579
  304.627
  304.678
  304.726
  304.776
  304.819
  304.853
  304.861
  304.811
  304.768
  305.327
  304.769
  304.703
  304.674
  304.664
  304.68
  304.711
  304.746
  304.779
  304.805
  304.821
  304.824
  304.812
  304.782
  304.735
  304.673
  304.607
  304.546
  304.505
  304.49
  304.498
  304.512
  304.524
  304.533
  304.541
  304.55
  304.561
  304.577
  304.599
  304.629
  304.668
  304.715
  304.767
  304.819
  304.866
  304.903
  304.925
  304.925
  304.851
  304.764
  305.484
  305.004
  305.027
  305.014
  304.97
  304.944
  304.95
  304.969
  304.993
  305.016
  305.033
  305.041
  305.036
  305.017
  304.982
  304.932
  304.873
  304.816
  304.768
  304.737
  304.72
  304.712
  304.706
  304.702
  304.697
  304.694
  304.692
  304.694
  304.7
  304.715
  304.739
  304.775
  304.821
  304.872
  304.919
  304.957
  304.978
  304.975
  304.928
  304.764
  305.697
  305.374
  305.527
  305.537
  305.449
  305.369
  305.326
  305.305
  305.294
  305.288
  305.293
  305.296
  305.292
  305.279
  305.254
  305.214
  305.164
  305.11
  305.059
  305.015
  304.981
  304.955
  304.932
  304.913
  304.894
  304.876
  304.859
  304.844
  304.832
  304.824
  304.825
  304.836
  304.862
  304.901
  304.948
  304.995
  305.035
  305.068
  305.095
  305.124
  305.982
  305.883
  306.364
  306.326
  306.103
  305.919
  305.804
  305.735
  305.695
  305.669
  305.647
  305.626
  305.609
  305.59
  305.564
  305.53
  305.487
  305.437
  305.384
  305.333
  305.287
  305.245
  305.207
  305.172
  305.139
  305.106
  305.074
  305.043
  305.012
  304.984
  304.96
  304.944
  304.939
  304.945
  304.963
  304.988
  305.016
  305.045
  305.08
  305.161
  309.897
  307.275
  306.548
  306.295
  306.183
  306.123
  306.09
  306.069
  306.053
  306.034
  306.009
  305.978
  305.941
  305.899
  305.851
  305.798
  305.742
  305.684
  305.628
  305.573
  305.522
  305.472
  305.425
  305.378
  305.332
  305.287
  305.242
  305.197
  305.155
  305.117
  305.087
  305.067
  305.059
  305.062
  305.073
  305.088
  305.106
  305.126
  309.246
  307.781
  307.275
  306.974
  306.804
  306.705
  306.639
  306.59
  306.546
  306.503
  306.458
  306.41
  306.357
  306.3
  306.238
  306.173
  306.107
  306.039
  305.971
  305.905
  305.841
  305.779
  305.719
  305.661
  305.604
  305.547
  305.492
  305.436
  305.382
  305.33
  305.284
  305.244
  305.213
  305.192
  305.179
  305.17
  305.161
  305.156
  309.329
  309.287
  309.149
  308.678
  308.271
  307.969
  307.759
  307.597
  307.462
  307.343
  307.233
  307.13
  307.031
  306.937
  306.845
  306.758
  306.673
  306.59
  306.51
  306.432
  306.356
  306.281
  306.209
  306.138
  306.068
  305.999
  305.931
  305.864
  305.798
  305.733
  305.669
  305.605
  305.544
  305.485
  305.429
  305.377
  305.327
  305.279
  305.227
  305.185
)
;

boundaryField
{
  floor
  {
    type wallHeatTransfer;
    Tinf uniform 305.2;
    alphaWall uniform 0.24;
    value nonuniform List<scalar> 29
(
  304.232
  304.024
  303.985
  304.059
  304.117
  304.142
  304.149
  304.141
  304.124
  304.106
  304.09
  304.08
  304.075
  304.078
  304.087
  304.102
  304.126
  304.134
  304.111
  304.098
  304.098
  304.127
  304.555
  304.769
  304.232
  304.024
  303.982
  303.957
  304.134
)
;
  }
  ceiling
  {
    type wallHeatTransfer;
    Tinf uniform 303.2;
    alphaWall uniform 0.24;
    value nonuniform List<scalar> 43
(
  308.82
  308.882
  308.964
  308.492
  308.071
  307.751
  307.521
  307.342
  307.192
  307.061
  306.942
  306.834
  306.735
  306.642
  306.556
  306.474
  306.396
  306.321
  306.248
  306.176
  306.106
  306.037
  305.969
  305.902
  305.837
  305.772
  305.708
  305.646
  305.584
  305.522
  305.462
  305.402
  305.344
  305.288
  305.235
  305.184
  305.135
  305.087
  305.04
  304.985
  305.86
  305.779
  309.108
)
;
  }
  sWall
  {
    type wallHeatTransfer;
    Tinf uniform 315.2;
    alphaWall uniform 0.36;
    value uniform 310.032;
  }
  nWall
  {
    type wallHeatTransfer;
    Tinf uniform 307.2;
    alphaWall uniform 0.36;
    value nonuniform List<scalar> 6
(
  305.191
  305.174
  305.166
  305.355
  305.388
  305.476
)
;
  }
  sideWalls
  {
    type empty;
  }
  glass1
  {
    type wallHeatTransfer;
    Tinf uniform 315.2;
    alphaWall uniform 4.3;
    value nonuniform List<scalar> 9
(
  312.46
  311.386
  310.761
  310.348
  310.072
  309.881
  309.768
  309.891
  310.156
)
;
  }
  glass2
  {
    type wallHeatTransfer;
    Tinf uniform 307.2;
    alphaWall uniform 4.3;
    value nonuniform List<scalar> 2
(
  306.397
  306.374
)
;
  }
  sun
  {
    type wallHeatTransfer;
    Tinf uniform 305.2;
    alphaWall uniform 0.24;
    value nonuniform List<scalar> 14
(
  304.468
  304.21
  304.232
  304.242
  304.248
  304.253
  304.257
  304.26
  304.262
  304.262
  304.26
  304.256
  304.249
  304.241
)
;
  }
  heatsource1
  {
    type fixedGradient;
    gradient uniform 0;
  }
  heatsource2
  {
    type fixedGradient;
    gradient uniform 0;
  }
  Table_master
  {
    type zeroGradient;
  }
  Table_slave
  {
    type zeroGradient;
  }
  inlet
  {
    type fixedValue;
    value uniform 293.15;
  }
  outlet
  {
    type zeroGradient;
  }
} 	// ************************************************************************* //

