/*--------------------------------*- C++ -*----------------------------------*\
  =========                 |
  \\      /  F ield         | OpenFOAM: The Open Source CFD Toolbox
   \\    /   O peration     | Website:  https://openfoam.org
    \\  /    A nd           | Version:  6
     \\/     M anipulation  |
\*---------------------------------------------------------------------------*/
FoamFile
{
    version     2.0;
    format      ascii;
    class       volScalarField;
    location    "200";
    object      epsilon;
}
// * * * * * * * * * * * * * * * * * * * * * * * * * * * * * * * * * * * * * //

dimensions      [0 2 -3 0 0 0 0];

internalField   nonuniform List<scalar> 
459
(
0.000144853
0.000151138
9.45686e-05
0.000102541
0.00011458
0.000127502
0.000141034
0.000155369
0.000171084
0.000188078
0.000203458
0.000215901
0.000224379
0.000228177
0.000223598
1.97663e-05
2.57797e-05
2.74816e-05
1.48308e-05
6.76359e-06
4.79588e-06
4.44461e-06
4.49424e-06
4.78731e-06
6.05978e-06
8.24292e-06
1.12625e-05
1.50863e-05
1.97936e-05
2.74168e-05
3.82834e-05
4.56741e-05
4.30875e-05
3.02353e-05
0.000851399
0.00200589
0.000170121
8.05251e-05
8.178e-05
8.84781e-05
9.6261e-05
0.00010545
0.000116831
0.000130909
0.000146903
0.000164449
0.000182362
0.000198141
0.000215122
0.00028703
9.29818e-05
4.70381e-05
8.73125e-05
6.7166e-05
4.05975e-05
2.30209e-05
1.12386e-05
7.43086e-06
6.41899e-06
8.22415e-06
1.24481e-05
1.95343e-05
2.9077e-05
4.15547e-05
5.87094e-05
7.8255e-05
8.70122e-05
9.60749e-05
0.000121972
6.12888e-05
0.00228314
0.00687548
0.00052611
0.000106386
8.66237e-05
9.2049e-05
0.000101055
0.000112131
0.000125391
0.00014106
0.00015827
0.000176599
0.000195762
0.000215569
0.000238481
0.000277275
0.000366682
0.000262046
0.000239012
0.000106904
7.47576e-05
6.18119e-05
5.78318e-05
2.40795e-05
1.03331e-05
1.56588e-05
2.29247e-05
3.24103e-05
4.52971e-05
6.36542e-05
9.16653e-05
0.000138462
0.000106967
0.000123174
0.000145172
0.00013608
0.00452632
0.0148215
0.00136056
0.000168877
0.000100075
0.000102654
0.000113516
0.000127156
0.000142861
0.000160399
0.00017808
0.000194907
0.000211492
0.000229535
0.000253364
0.000295322
0.00038526
0.000559544
0.000266828
0.000130824
9.73629e-05
8.98514e-05
9.49568e-05
0.000111287
0.000152934
0.000155828
0.000159553
0.000163056
0.000166823
0.000172209
0.000181699
0.000200197
0.000253145
0.000202287
0.000260187
0.000378691
0.000471064
0.00748831
0.0245604
0.00289862
0.00030421
0.000126678
0.000121545
0.000135487
0.000154748
0.000177081
0.000201188
0.000221625
0.000237322
0.000249852
0.000259498
0.000263588
0.000258148
0.000241214
0.000206144
0.000143063
0.000109296
9.3932e-05
8.93416e-05
9.08469e-05
9.62421e-05
0.000104399
0.000112779
0.000123366
0.00013696
0.000154799
0.000179199
0.000213878
0.000263926
0.000334392
0.000413428
0.000541523
0.000686784
0.000771687
0.00116995
0.000819044
0.000542217
0.0111208
0.0325753
0.00541357
0.000704239
0.000223873
0.000179112
0.00019141
0.000218
0.000251594
0.000285914
0.000304369
0.000312629
0.000318257
0.0003242
0.000326783
0.000317452
0.000288379
0.000241363
0.000191021
0.000153113
0.000129504
0.000117859
0.000114482
0.000116944
0.000123834
0.000134869
0.000150973
0.000173278
0.000203872
0.000246764
0.000308523
0.000397696
0.000522312
0.000685827
0.000890315
0.00111699
0.0012437
0.00115867
0.000685746
0.000620285
0.0151896
0.0353988
0.0101591
0.00263718
0.000899041
0.000500343
0.00042394
0.000426605
0.00046652
0.000479662
0.000461621
0.000432915
0.00040927
0.000396711
0.000391424
0.000381498
0.000354808
0.000310573
0.000259955
0.000215155
0.000182137
0.000161504
0.000151345
0.000149743
0.000155589
0.000169181
0.000191797
0.000225014
0.000270881
0.000332579
0.000415235
0.000525536
0.000668501
0.000843899
0.00103541
0.00119969
0.00125913
0.00118065
0.00099686
0.000579991
0.0158286
0.0414619
0.0210001
0.0120508
0.0057613
0.00274312
0.00164454
0.00123638
0.00106545
0.000903729
0.00075392
0.000630735
0.000538825
0.000477844
0.000443422
0.000423232
0.000399213
0.000362914
0.000318339
0.000274211
0.000237258
0.000210447
0.000194118
0.000187741
0.000191208
0.000205916
0.000234744
0.000281504
0.000350777
0.000446574
0.000569594
0.000713306
0.000864589
0.00101063
0.00114866
0.00128751
0.00145105
0.00164042
0.00181435
0.0011674
0.0140588
0.0225135
0.0340225
0.0250953
0.0153254
0.00901675
0.00545023
0.00348956
0.00233015
0.00162282
0.00118104
0.000894291
0.000702526
0.000573422
0.000489081
0.000436854
0.000402347
0.000372253
0.000340017
0.000306149
0.000274438
0.000248348
0.000229873
0.000219946
0.000219382
0.000230227
0.00025614
0.000301017
0.00037099
0.000470811
0.000602344
0.000769835
0.000975553
0.00123127
0.00155439
0.00189257
0.00204494
0.00238853
0.00386896
0.00161097
0.0722749
0.0887961
0.0279154
0.013158
0.00729069
0.00444424
0.00290793
0.00200429
0.00143732
0.0010666
0.000815839
0.000641981
0.000520255
0.000435915
0.000378693
0.000339768
0.000311556
0.000288886
0.000269529
0.000253422
0.000241501
0.000234922
0.000234883
0.000243016
0.000261765
0.000294456
0.000345574
0.000418951
0.000517249
0.000636575
0.000766586
0.000895331
0.00100758
0.00107277
0.00106192
0.000999317
0.00166544
0.00150292
0.0599436
0.0557865
0.0206862
0.0106673
0.00633512
0.00407031
0.00276994
0.00196998
0.00145042
0.0010974
0.000848782
0.000668809
0.000536107
0.000437512
0.000364575
0.000311465
0.000273774
0.000247958
0.000231193
0.000221394
0.000217202
0.000217935
0.000223562
0.000234868
0.000253842
0.00028403
0.000329863
0.000394767
0.000478154
0.000573094
0.000664179
0.000733962
0.000768149
0.000755046
0.000701991
0.000665768
0.0011677
0.0010345
0.00735239
0.0137908
0.0285701
0.0225536
0.0126614
0.00794976
0.00535772
0.00378578
0.00276757
0.00207547
0.00159595
0.00125258
0.000998386
0.000806007
0.000658383
0.000544261
0.000455867
0.000387617
0.000335346
0.000295845
0.000266585
0.000245567
0.000231238
0.000222466
0.000218559
0.000219373
0.000225542
0.000238807
0.000262171
0.000301981
0.000369151
0.000463452
0.000570226
0.000662338
0.000713767
0.000709502
0.000673461
0.000621636
0.000606478
0.000504493
)
;

boundaryField
{
    floor
    {
        Cmu             0.09;
        kappa           0.41;
        E               9.8;
        type            epsilonWallFunction;
        value           nonuniform List<scalar> 
29
(
0.000223598
1.97663e-05
2.57797e-05
2.74816e-05
1.48308e-05
6.76359e-06
4.79588e-06
4.44461e-06
4.49424e-06
4.78731e-06
6.05978e-06
8.24292e-06
1.12625e-05
1.50863e-05
1.97936e-05
2.74168e-05
3.82834e-05
4.56741e-05
4.30875e-05
3.02353e-05
3.02353e-05
6.12888e-05
0.00013608
0.000471064
0.000223598
1.97663e-05
4.70381e-05
0.000262046
0.000559544
)
;
    }
    ceiling
    {
        Cmu             0.09;
        kappa           0.41;
        E               9.8;
        type            epsilonWallFunction;
        value           nonuniform List<scalar> 
43
(
0.00735239
0.0137908
0.0285701
0.0225536
0.0126614
0.00794976
0.00535772
0.00378578
0.00276757
0.00207547
0.00159595
0.00125258
0.000998386
0.000806007
0.000658383
0.000544261
0.000455867
0.000387617
0.000335346
0.000295845
0.000266585
0.000245567
0.000231238
0.000222466
0.000218559
0.000219373
0.000225542
0.000238807
0.000262171
0.000301981
0.000369151
0.000463452
0.000570226
0.000662338
0.000713767
0.000709502
0.000673461
0.000621636
0.000606478
0.000504493
0.0140588
0.0225135
0.0599436
)
;
    }
    sWall
    {
        Cmu             0.09;
        kappa           0.41;
        E               9.8;
        type            epsilonWallFunction;
        value           uniform 0.00735239;
    }
    nWall
    {
        Cmu             0.09;
        kappa           0.41;
        E               9.8;
        type            epsilonWallFunction;
        value           nonuniform List<scalar> 6(0.000542217 0.000620285 0.000579991 0.00150292 0.0010345 0.000504493);
    }
    sideWalls
    {
        type            empty;
    }
    glass1
    {
        Cmu             0.09;
        kappa           0.41;
        E               9.8;
        type            epsilonWallFunction;
        value           nonuniform List<scalar> 9(0.000144853 0.000851399 0.00228314 0.00452632 0.00748831 0.0111208 0.0151896 0.0158286 0.0140588);
    }
    glass2
    {
        Cmu             0.09;
        kappa           0.41;
        E               9.8;
        type            epsilonWallFunction;
        value           nonuniform List<scalar> 2(0.0011674 0.00161097);
    }
    sun
    {
        Cmu             0.09;
        kappa           0.41;
        E               9.8;
        type            epsilonWallFunction;
        value           nonuniform List<scalar> 
14
(
0.000144853
0.000151138
9.45686e-05
0.000102541
0.00011458
0.000127502
0.000141034
0.000155369
0.000171084
0.000188078
0.000203458
0.000215901
0.000224379
0.000228177
)
;
    }
    heatsource1
    {
        Cmu             0.09;
        kappa           0.41;
        E               9.8;
        type            epsilonWallFunction;
        value           nonuniform List<scalar> 3(0.00116995 0.000819044 0.000542217);
    }
    heatsource2
    {
        Cmu             0.09;
        kappa           0.41;
        E               9.8;
        type            epsilonWallFunction;
        value           nonuniform List<scalar> 4(0.00028703 9.29818e-05 9.29818e-05 0.000366682);
    }
    Table_master
    {
        Cmu             0.09;
        kappa           0.41;
        E               9.8;
        type            epsilonWallFunction;
        value           nonuniform List<scalar> 9(2.40795e-05 1.03331e-05 1.56588e-05 2.29247e-05 3.24103e-05 4.52971e-05 6.36542e-05 9.16653e-05 0.000138462);
    }
    Table_slave
    {
        Cmu             0.09;
        kappa           0.41;
        E               9.8;
        type            epsilonWallFunction;
        value           nonuniform List<scalar> 9(0.000152934 0.000155828 0.000159553 0.000163056 0.000166823 0.000172209 0.000181699 0.000200197 0.000253145);
    }
    inlet
    {
        type            turbulentMixingLengthDissipationRateInlet;
        mixingLength    0.01;
        phi             phi;
        k               k;
        value           uniform 0.0722749;
    }
    outlet
    {
        type            zeroGradient;
    }
}


// ************************************************************************* //
