/*--------------------------------*- C++ -*----------------------------------*\
  =========                 |
  \\      /  F ield         | OpenFOAM: The Open Source CFD Toolbox
   \\    /   O peration     | Website:  https://openfoam.org
    \\  /    A nd           | Version:  6
     \\/     M anipulation  |
\*---------------------------------------------------------------------------*/
FoamFile
{
    version     2.0;
    format      ascii;
    class       surfaceScalarField;
    location    "200";
    object      phi;
}
// * * * * * * * * * * * * * * * * * * * * * * * * * * * * * * * * * * * * * //

dimensions      [1 0 -1 0 0 0 0];

internalField   nonuniform List<scalar> 
852
(
-0.00245825
0.0025275
-0.00249936
4.13096e-05
-0.0025729
7.37479e-05
-0.00273694
0.000164232
-0.00292155
0.000184812
-0.00308649
0.000165135
-0.00320684
0.000120545
-0.00326295
5.62988e-05
-0.00323673
-2.60211e-05
-0.00310948
-0.000127062
-0.00286439
-0.000244903
-0.00248842
-0.000375787
-0.00195284
-0.000535389
-0.00116052
-0.000792133
-0.00115712
-0.000934846
0.000942721
-0.000965185
3.04575e-05
-0.000758393
-0.000206668
-0.000652427
-0.000105831
-0.000651178
-1.10244e-06
-0.0006084
-4.26297e-05
-0.000410044
-0.000198209
-3.46777e-05
-0.000375219
0.000212848
-0.000247376
0.000378982
-0.000165984
0.000504664
-0.000125532
0.000603651
-9.88363e-05
0.000678068
-7.42646e-05
0.000727837
-4.96173e-05
0.000792453
-6.44621e-05
0.000899001
-0.000106394
0.00102475
-0.000125589
0.000953396
7.15206e-05
0.000960571
-0.00176391
0.00446647
-0.00223762
0.000515219
-0.0024961
0.000332427
-0.00270981
0.000378142
-0.00290988
0.000385085
-0.00308166
0.000337114
-0.0032089
0.000247977
-0.00327657
0.00012416
-0.00327073
-3.16705e-05
-0.00317927
-0.00021833
-0.00298875
-0.000435232
-0.0026838
-0.00068055
-0.00225529
-0.000963709
-0.00175768
-0.00128956
-0.00133502
-0.00157959
0.000179909
-0.0015148
0.000180049
0.00108609
-0.000124373
0.000914591
0.000202068
0.000418767
0.000289262
0.000125808
0.00018724
-1.67203e-05
0.000141549
-0.000293225
0.000234004
-0.00035516
-0.000136128
-0.000195791
-0.000534434
-0.000154419
-0.000288588
-0.00014504
-0.0001752
-0.000153244
-0.000117162
-0.000176039
-7.58732e-05
-0.0002206
-2.95304e-05
-0.000290435
2.04001e-05
-0.00033687
-1.78396e-05
-0.000201457
-0.000241614
0.000127162
-0.000454007
0.00024725
-4.83787e-05
0.00122578
-0.00128962
0.00601225
-0.00193996
0.00116576
-0.00230047
0.000693138
-0.00255592
0.000633799
-0.00277287
0.000602227
-0.0029546
0.000519049
-0.00309474
0.00038831
-0.00318437
0.000213988
-0.0032146
-1.25491e-06
-0.00317965
-0.000253086
-0.00307916
-0.000535527
-0.00291607
-0.000843447
-0.00270582
-0.00117377
-0.00248918
-0.00150601
-0.00230332
-0.00176527
-0.00197322
-0.00184472
-0.00179299
-0.000584669
0.00047929
-0.000738559
0.000356086
-0.000679461
0.000230289
-0.000577239
8.51451e-05
-0.000386072
-4.94886e-05
0.000115791
-0.000267715
-2.00347e-05
-0.000554151
-0.000842406
-0.00101726
-0.00113407
-0.00120958
-0.00123874
-0.00121798
-0.00123545
-0.0012107
-0.000266151
-0.00168084
1.63544e-05
-0.00172565
-3.36013e-06
-0.000476818
-0.000947628
0.0072819
-0.00166464
0.00188298
-0.00205123
0.00107994
-0.00232503
0.000907794
-0.00254001
0.00081741
-0.00271092
0.000690157
-0.00284222
0.000519809
-0.00293292
0.000304886
-0.00298034
4.63638e-05
-0.00298549
-0.000247733
-0.00296313
-0.000557695
-0.00293701
-0.000869372
-0.00293906
-0.00117152
-0.00300644
-0.00143844
-0.00315108
-0.00162043
-0.00335248
-0.00164313
-0.00387087
-0.00127442
-0.00317179
-0.000683013
-0.00251998
-0.000172355
-0.00222058
5.68554e-05
-0.00203644
4.63303e-05
-0.00192836
-2.27541e-05
-0.00184613
-0.000131521
-0.00188569
-0.000227966
-0.00165882
-0.00022683
-0.00141147
-0.00024731
-0.00114592
-0.000265508
-0.000875074
-0.000270805
-0.000613293
-0.00026174
-0.000372634
-0.000240618
-0.000158008
-0.000214584
3.48911e-05
-0.000192854
0.000214709
-0.000179772
0.000225153
-0.000276391
0.000464721
-0.000222996
0.000558568
-9.69718e-05
0.000101316
-0.000696982
0.00835726
-0.00144434
0.00263054
-0.00177532
0.00141112
-0.00203762
0.0011703
-0.00222764
0.00100764
-0.00235606
0.00081877
-0.0024385
0.000602451
-0.00248436
0.000350951
-0.00249682
5.90227e-05
-0.00248408
-0.000260266
-0.00247221
-0.000569365
-0.0024914
-0.000849988
-0.00256482
-0.0010979
-0.00270281
-0.00130025
-0.002899
-0.00142404
-0.00313825
-0.00140369
-0.00326336
-0.00114911
-0.00317099
-0.000775188
-0.002897
-0.000446153
-0.00259212
-0.000247829
-0.002356
-0.000189592
-0.00217154
-0.000207019
-0.00203273
-0.000270135
-0.00192492
-0.000335583
-0.0017734
-0.00037815
-0.00160561
-0.000414907
-0.00143149
-0.00043943
-0.00125785
-0.000444241
-0.00109314
-0.000426248
-0.000942697
-0.000390863
-0.00080372
-0.000353357
-0.000659513
-0.000336854
-0.000467271
-0.000371804
-0.000242383
-0.000501064
0.000215936
-0.000681091
0.000998913
-0.000879715
0.00213492
-0.00103445
0.00290119
-0.000766225
0.00235465
0.000546574
0.0024032
-0.000660949
0.00944645
-0.0013777
0.00334749
-0.00145171
0.00148535
-0.00164221
0.00136101
-0.00181766
0.00118329
-0.00188796
0.000889279
-0.00188665
0.000601344
-0.00184691
0.000311414
-0.00177885
-8.83171e-06
-0.00170464
-0.00033427
-0.00166492
-0.000608881
-0.0016862
-0.000828503
-0.00177973
-0.00100417
-0.00194119
-0.00113858
-0.0021522
-0.00121283
-0.00237102
-0.00118466
-0.00249581
-0.00102412
-0.00248733
-0.00078347
-0.00237004
-0.000563236
-0.00220533
-0.000412338
-0.00205167
-0.000343055
-0.00192441
-0.000334086
-0.00182962
-0.000364724
-0.00175601
-0.000408992
-0.00168402
-0.000449941
-0.00161447
-0.000484264
-0.00155179
-0.000501905
-0.00150247
-0.000493366
-0.00147375
-0.000454759
-0.00147019
-0.000394219
-0.00148929
-0.000334056
-0.00151931
-0.000306621
-0.00153721
-0.000353683
-0.0015212
-0.000516864
-0.00138566
-0.000816404
-0.000985661
-0.0012795
-0.000139192
-0.0018807
0.00121167
-0.00211687
0.00175657
1.90538e-06
0.00421666
-0.000922983
0.0108436
-0.00110232
0.00352704
-0.000647052
0.00103029
-0.000761765
0.00147594
-0.0010661
0.00148784
-0.00113761
0.000961001
-0.00104816
0.000512106
-0.000899599
0.000163062
-0.000746972
-0.000161249
-0.000628488
-0.000452544
-0.000575539
-0.00066162
-0.000604405
-0.000799427
-0.00071562
-0.00089274
-0.000896557
-0.000957431
-0.00111994
-0.000989232
-0.00133977
-0.000964619
-0.00149767
-0.000866003
-0.00156233
-0.000718602
-0.00155107
-0.00057429
-0.00149774
-0.000465462
-0.00143688
-0.000403706
-0.00138761
-0.000383158
-0.00135951
-0.00039262
-0.00135158
-0.00041672
-0.00135921
-0.000442108
-0.00138448
-0.000458801
-0.00143366
-0.000452524
-0.00151757
-0.000409249
-0.00165076
-0.000321371
-0.00184746
-0.000197315
-0.00211138
-6.99195e-05
-0.00243052
1.27276e-05
-0.00278485
8.55315e-07
-0.00314769
-0.000153816
-0.00347379
-0.000490091
-0.00370542
-0.00104765
-0.00373668
-0.00184922
-0.00325251
-0.00260083
-0.00124062
-0.00200976
0.00304409
0.00181112
0.00956377
0.00240991
0.00292845
0.00221417
0.00122625
0.00151518
0.00217515
0.000918798
0.00208444
0.000661961
0.00121806
0.000612365
0.000561921
0.000674601
0.000101044
0.000771403
-0.000257836
0.000816254
-0.00049718
0.00079122
-0.000636371
0.00070199
-0.00070998
0.000553165
-0.000743697
0.000349836
-0.000753885
0.000107769
-0.000746947
-0.000136236
-0.000720396
-0.000336931
-0.00066509
-0.000470424
-0.000584891
-0.000544667
-0.000499832
-0.000580426
-0.000429489
-0.00060021
-0.00038371
-0.000620612
-0.000362547
-0.000652135
-0.000360888
-0.000698755
-0.000369894
-0.000761161
-0.000379497
-0.000841537
-0.000378222
-0.000944658
-0.000349202
-0.0010795
-0.000274203
-0.00126099
-0.000139679
-0.00151446
5.63581e-05
-0.0018851
0.000300921
-0.00242243
0.000550257
-0.00314269
0.000721327
-0.00401313
0.000716827
-0.00495612
0.000453102
-0.00592915
-7.44035e-05
-0.00710548
-0.000672685
-0.00842638
-0.00127972
-0.0077978
-0.00263813
-0.00443997
0.0101578
0.0130844
0.0101357
0.00417514
0.00698091
0.00533013
0.00547013
0.00359545
0.00453813
0.00215028
0.00390282
0.00119745
0.00342929
0.000574803
0.0030269
0.000144769
0.00268454
-0.000154596
0.00239634
-0.000347948
0.00214264
-0.000456054
0.00190287
-0.000503709
0.00166148
-0.000512265
0.00141241
-0.000497651
0.00116304
-0.000470802
0.000934016
-0.000435842
0.000744356
-0.000395006
0.000598517
-0.000353768
0.000488218
-0.000318967
0.000399853
-0.000295124
0.000320632
-0.000283106
0.000240935
-0.000280975
0.000155578
-0.000284322
6.32138e-05
-0.000286922
-3.42931e-05
-0.000280506
-0.000130896
-0.000252392
-0.000218034
-0.00018686
-0.000288113
-6.93959e-05
-0.000344786
0.000113234
-0.00039624
0.000352579
-0.000448558
0.000602778
-0.00050439
0.000777363
-0.000570135
0.000782776
-0.000697029
0.000580199
-0.000998671
0.000227441
-0.00147725
-0.0001939
-0.00202709
-0.000729671
-0.00211645
-0.00254857
-0.00621307
-0.000324419
0.00364227
0.0021106
0.00289536
0.00344933
0.00225694
0.00387553
0.00172431
0.00397566
0.00109755
0.00395669
0.000593994
0.00385518
0.000246512
0.00368839
1.24204e-05
0.00348256
-0.000141888
0.00326012
-0.000233378
0.00303394
-0.000277298
0.00280934
-0.000287428
0.00258758
-0.000275665
0.00236919
-0.000252173
0.00215838
-0.000224803
0.00196266
-0.000199049
0.0017878
-0.000178675
0.00163461
-0.000165537
0.00149928
-0.000159572
0.00137602
-0.00015961
0.0012592
-0.00016393
0.0011453
-0.000170195
0.00103383
-0.000175238
0.000928084
-0.000174539
0.000836656
-0.000160751
0.000772935
-0.000122927
0.000752125
-4.83771e-05
0.00079214
7.34281e-05
0.000906636
0.000238291
0.00109081
0.000418807
0.00131588
0.000552508
0.00153208
0.000566777
0.00168803
0.000424457
0.00177594
0.000139737
0.00185331
-0.000271068
0.00200577
-0.000881917
0.00165547
-0.00219806
-0.00448217
-0.000955718
0.0045919
0.00115393
0.000785978
0.00244064
0.000970485
0.00328606
0.000879135
0.00380379
0.000580067
0.00406973
0.00032829
0.00416488
0.000151608
0.00414712
3.04273e-05
0.00405353
-4.80598e-05
0.00391521
-9.4812e-05
0.00375487
-0.000116717
0.00358814
-0.000120454
0.00342467
-0.000111942
0.00326888
-9.61463e-05
0.00312165
-7.73224e-05
0.00298195
-5.9107e-05
0.00284814
-4.46168e-05
0.00271875
-3.59045e-05
0.0025928
-3.33755e-05
0.0024697
-3.62757e-05
0.00234918
-4.31711e-05
0.0022315
-5.22776e-05
0.00211811
-6.16095e-05
0.00201267
-6.88773e-05
0.00192286
-7.07125e-05
0.00186139
-6.12366e-05
0.00184489
-3.16634e-05
0.00190029
1.82473e-05
0.00205102
8.77834e-05
0.00229452
0.000175518
0.00259701
0.000250229
0.00289515
0.00026886
0.00311456
0.000205257
0.00319403
6.04788e-05
0.00310371
-0.00018053
0.00275772
-0.000535713
0.00172934
-0.00116947
-0.00266118
-0.00330349
-0.00382961
0.000754577
0.00153543
0.00250176
0.00337735
0.00395423
0.00427954
0.00442833
0.00445608
0.00440549
0.00430835
0.00418955
0.00406729
0.00395388
0.00385665
0.00377869
0.00371944
0.00367524
0.00364039
0.00360874
0.00357495
0.00353506
0.0034869
0.00343029
0.0033673
0.00330339
0.00324985
0.00322676
0.0032544
0.00335231
0.00353858
0.00380008
0.00408067
0.00429813
0.00437132
0.00420409
0.00368233
0.00252725
)
;

boundaryField
{
    floor
    {
        type            calculated;
        value           nonuniform List<scalar> 
29
(
0
0
0
0
0
0
0
0
0
0
0
0
0
0
0
0
0
0
0
0
-7.01077e-06
-1.77917e-05
-2.28452e-05
-1.93276e-05
-3.21419e-06
-7.75905e-06
-1.88864e-05
-1.88629e-05
-1.5885e-05
)
;
    }
    ceiling
    {
        type            calculated;
        value           nonuniform List<scalar> 
43
(
1.20582e-05
9.84834e-06
8.01693e-06
5.43872e-06
4.44433e-06
3.82516e-06
3.46962e-06
3.2452e-06
3.08395e-06
2.94942e-06
2.79004e-06
2.59005e-06
2.34825e-06
2.06186e-06
1.72739e-06
1.34105e-06
8.9897e-07
3.97512e-07
-1.66178e-07
-7.93413e-07
-1.48315e-06
-2.23143e-06
-3.03151e-06
-3.87452e-06
-4.75061e-06
-5.64942e-06
-6.55918e-06
-7.46347e-06
-8.33815e-06
-9.15677e-06
-9.88834e-06
-1.05133e-05
-1.10394e-05
-1.1504e-05
-1.19643e-05
-1.24878e-05
-1.30709e-05
-1.37198e-05
-1.41674e-05
-1.45047e-05
3.86773e-06
2.02297e-06
6.38876e-06
)
;
    }
    sWall
    {
        type            calculated;
        value           uniform -0.000132011;
    }
    nWall
    {
        type            calculated;
        value           nonuniform List<scalar> 6(-4.85188e-05 -5.66625e-05 -6.78128e-05 -7.52198e-05 -9.1426e-05 -0.000119206);
    }
    sideWalls
    {
        type            empty;
        value           nonuniform 0();
    }
    glass1
    {
        type            calculated;
        value           nonuniform List<scalar> 9(-6.90509e-05 -0.000174853 -0.000255977 -0.000321826 -0.000378201 -0.00042805 -0.000473955 -0.000531154 -0.000597683);
    }
    glass2
    {
        type            calculated;
        value           nonuniform List<scalar> 2(-0.000313537 -0.000343135);
    }
    sun
    {
        type            calculated;
        value           uniform 0;
    }
    heatsource1
    {
        type            calculated;
        value           nonuniform List<scalar> 3(2.0476e-07 2.04873e-07 2.05185e-07);
    }
    heatsource2
    {
        type            calculated;
        value           nonuniform List<scalar> 4(5.15362e-08 5.17646e-08 0 0);
    }
    Table_master
    {
        type            calculated;
        value           nonuniform List<scalar> 9(-1.56113e-07 -1.56251e-07 -1.56082e-07 -1.55943e-07 -1.55825e-07 -1.55718e-07 -1.55621e-07 -1.55527e-07 -1.55401e-07);
    }
    Table_slave
    {
        type            calculated;
        value           nonuniform List<scalar> 9(1.54294e-07 1.5437e-07 1.54448e-07 1.54532e-07 1.54617e-07 1.54699e-07 1.54773e-07 1.54827e-07 1.54809e-07);
    }
    inlet
    {
        type            calculated;
        value           uniform 0.00085761;
    }
    outlet
    {
        type            calculated;
        value           nonuniform List<scalar> 2(0.00342375 0.000516569);
    }
}


// ************************************************************************* //
