// -*- C++ -*-
// File generated by PyFoam - sorry for the ugliness

FoamFile
{
 version 2.0;
 format ascii;
 class volScalarField;
 location "100";
 object T;
}

dimensions [ 0 0 0 1 0 0 0 ];

internalField nonuniform List<scalar> 459
(
  302.739
  302.484
  302.468
  302.463
  302.461
  302.467
  302.506
  302.653
  302.732
  302.786
  302.821
  302.843
  302.861
  302.878
  302.897
  303.93
  303.844
  303.777
  303.77
  303.816
  303.859
  303.898
  303.936
  303.973
  304.011
  304.049
  304.087
  304.125
  304.163
  304.203
  304.244
  304.29
  304.349
  304.44
  302.877
  302.495
  302.449
  302.434
  302.424
  302.418
  302.478
  302.664
  302.805
  302.901
  302.955
  302.976
  302.98
  302.968
  302.947
  302.957
  302.972
  303.957
  303.804
  303.679
  303.696
  303.755
  303.817
  303.859
  303.9
  303.942
  303.984
  304.027
  304.07
  304.114
  304.158
  304.203
  304.248
  304.299
  304.361
  304.453
  303.029
  302.534
  302.465
  302.442
  302.417
  302.372
  302.442
  302.673
  302.886
  303.033
  303.11
  303.131
  303.12
  303.087
  303.042
  303.019
  303.006
  303.92
  303.627
  303.577
  303.641
  303.745
  303.839
  303.866
  303.903
  303.944
  303.989
  304.037
  304.089
  304.142
  304.195
  304.245
  304.293
  304.339
  304.393
  304.474
  303.188
  302.603
  302.519
  302.498
  302.445
  302.331
  302.403
  302.677
  302.974
  303.187
  303.295
  303.316
  303.287
  303.229
  303.158
  303.103
  303.059
  303.08
  303.175
  303.286
  303.454
  303.645
  303.822
  303.964
  304.076
  304.163
  304.242
  304.318
  304.392
  304.466
  304.542
  304.624
  304.707
  304.541
  304.465
  304.455
  304.502
  303.35
  302.7
  302.614
  302.611
  302.495
  302.298
  302.365
  302.687
  303.076
  303.365
  303.506
  303.53
  303.478
  303.391
  303.299
  303.227
  303.182
  303.208
  303.301
  303.467
  303.673
  303.884
  304.075
  304.231
  304.362
  304.466
  304.55
  304.619
  304.677
  304.729
  304.776
  304.818
  304.844
  304.706
  304.573
  304.523
  304.534
  304.601
  304.747
  304.999
  303.51
  302.829
  302.751
  302.757
  302.516
  302.263
  302.329
  302.716
  303.207
  303.576
  303.746
  303.765
  303.687
  303.581
  303.483
  303.418
  303.402
  303.478
  303.636
  303.837
  304.052
  304.254
  304.426
  304.562
  304.672
  304.757
  304.818
  304.865
  304.904
  304.935
  304.959
  304.971
  304.954
  304.833
  304.685
  304.614
  304.597
  304.652
  304.746
  304.948
  303.69
  303.016
  302.964
  302.886
  302.485
  302.174
  302.295
  302.788
  303.4
  303.841
  304.018
  304.014
  303.925
  303.825
  303.748
  303.72
  303.764
  303.901
  304.099
  304.302
  304.498
  304.668
  304.804
  304.907
  304.984
  305.029
  305.06
  305.084
  305.101
  305.11
  305.111
  305.098
  305.06
  304.971
  304.852
  304.76
  304.718
  304.76
  304.814
  304.93
  303.922
  303.429
  303.378
  302.957
  302.284
  301.981
  302.285
  302.962
  303.712
  304.192
  304.313
  304.289
  304.223
  304.162
  304.132
  304.154
  304.25
  304.419
  304.615
  304.794
  304.952
  305.075
  305.165
  305.221
  305.251
  305.266
  305.275
  305.279
  305.278
  305.271
  305.258
  305.236
  305.203
  305.155
  305.087
  304.988
  304.942
  305.016
  305.024
  305.067
  304.268
  304.017
  303.77
  302.494
  301.563
  301.625
  302.437
  303.389
  304.262
  304.577
  304.642
  304.626
  304.6
  304.59
  304.612
  304.679
  304.795
  304.949
  305.108
  305.245
  305.349
  305.419
  305.46
  305.48
  305.486
  305.485
  305.481
  305.473
  305.464
  305.451
  305.438
  305.423
  305.402
  305.367
  305.321
  305.29
  305.304
  305.353
  305.395
  305.522
  294.735
  296.136
  299.005
  301.506
  303.54
  304.478
  304.855
  304.977
  305.009
  305.02
  305.034
  305.064
  305.117
  305.198
  305.301
  305.416
  305.523
  305.608
  305.666
  305.701
  305.716
  305.719
  305.715
  305.708
  305.699
  305.69
  305.679
  305.666
  305.649
  305.626
  305.588
  305.534
  305.473
  305.43
  305.424
  305.458
  305.521
  305.885
  296.791
  300.708
  302.889
  304.165
  304.875
  305.187
  305.313
  305.373
  305.409
  305.441
  305.477
  305.523
  305.579
  305.647
  305.721
  305.793
  305.855
  305.9
  305.929
  305.943
  305.947
  305.945
  305.939
  305.931
  305.923
  305.913
  305.9
  305.884
  305.862
  305.829
  305.783
  305.723
  305.654
  305.59
  305.549
  305.57
  305.675
  305.871
  303.001
  302.903
  302.862
  304.475
  305.217
  305.511
  305.656
  305.742
  305.797
  305.842
  305.88
  305.915
  305.95
  305.986
  306.023
  306.06
  306.095
  306.126
  306.15
  306.166
  306.174
  306.176
  306.175
  306.171
  306.165
  306.158
  306.149
  306.138
  306.125
  306.107
  306.083
  306.051
  306.011
  305.961
  305.904
  305.847
  305.806
  305.857
  306.046
  306.317
)
;

boundaryField
{
  floor
  {
    type wallHeatTransfer;
    Tinf uniform 305.2;
    alphaWall uniform 0.24;
    value nonuniform List<scalar> 29
(
  303.109
  304.112
  304.017
  303.938
  303.92
  303.959
  303.999
  304.041
  304.083
  304.123
  304.164
  304.203
  304.242
  304.281
  304.319
  304.357
  304.397
  304.441
  304.496
  304.581
  304.581
  304.586
  304.602
  304.625
  303.109
  304.112
  304.139
  304.106
  303.274
)
;
  }
  ceiling
  {
    type wallHeatTransfer;
    Tinf uniform 303.2;
    alphaWall uniform 0.24;
    value nonuniform List<scalar> 43
(
  303.015
  302.922
  302.883
  304.405
  305.095
  305.359
  305.485
  305.556
  305.602
  305.641
  305.675
  305.708
  305.741
  305.775
  305.809
  305.843
  305.875
  305.9
  305.919
  305.929
  305.932
  305.93
  305.924
  305.917
  305.909
  305.9
  305.89
  305.879
  305.865
  305.847
  305.824
  305.792
  305.752
  305.702
  305.645
  305.588
  305.544
  305.584
  305.756
  305.997
  304.222
  303.985
  297.19
)
;
  }
  sWall
  {
    type wallHeatTransfer;
    Tinf uniform 315.2;
    alphaWall uniform 0.36;
    value uniform 304.17;
  }
  nWall
  {
    type wallHeatTransfer;
    Tinf uniform 307.2;
    alphaWall uniform 0.36;
    value nonuniform List<scalar> 6
(
  305.531
  305.39
  305.332
  306.066
  306.038
  306.447
)
;
  }
  sideWalls
  {
    type empty;
  }
  glass1
  {
    type wallHeatTransfer;
    Tinf uniform 315.2;
    alphaWall uniform 4.3;
    value nonuniform List<scalar> 9
(
  310.454
  309.885
  309.515
  309.233
  309.007
  308.829
  308.788
  308.925
  309.214
)
;
  }
  glass2
  {
    type wallHeatTransfer;
    Tinf uniform 307.2;
    alphaWall uniform 4.3;
    value nonuniform List<scalar> 2
(
  306.557
  306.657
)
;
  }
  sun
  {
    type wallHeatTransfer;
    Tinf uniform 305.2;
    alphaWall uniform 0.24;
    value nonuniform List<scalar> 14
(
  302.94
  302.685
  302.663
  302.648
  302.636
  302.634
  302.667
  302.809
  302.89
  302.948
  302.989
  303.019
  303.047
  303.075
)
;
  }
  heatsource1
  {
    type fixedGradient;
    gradient uniform 0;
  }
  heatsource2
  {
    type fixedGradient;
    gradient uniform 0;
  }
  Table_master
  {
    type zeroGradient;
  }
  Table_slave
  {
    type zeroGradient;
  }
  inlet
  {
    type fixedValue;
    value uniform 293.15;
  }
  outlet
  {
    type zeroGradient;
  }
} 	// ************************************************************************* //

