/*--------------------------------*- C++ -*----------------------------------*\
  =========                 |
  \\      /  F ield         | OpenFOAM: The Open Source CFD Toolbox
   \\    /   O peration     | Website:  https://openfoam.org
    \\  /    A nd           | Version:  6
     \\/     M anipulation  |
\*---------------------------------------------------------------------------*/
FoamFile
{
    version     2.0;
    format      ascii;
    class       volScalarField;
    location    "300";
    object      alphat;
}
// * * * * * * * * * * * * * * * * * * * * * * * * * * * * * * * * * * * * * //

dimensions      [1 -1 -1 0 0 0 0];

internalField   nonuniform List<scalar> 
459
(
0.00101028
0.0010772
0.00108231
0.00112451
0.00116156
0.00119443
0.00122473
0.00125421
0.00128265
0.00130359
0.00131273
0.00130458
0.00127435
0.00122212
0.00115714
0.000384442
0.000428134
0.000455046
0.000436603
0.00042073
0.000420813
0.000426547
0.000426703
0.000419453
0.00040304
0.000376707
0.0003436
0.000308095
0.000280042
0.000275771
0.00030911
0.000453844
0.000720162
0.000573806
0.00143972
0.00270321
0.00238659
0.00273455
0.00301085
0.0033069
0.00359763
0.00384289
0.00402384
0.00419851
0.00434009
0.00440989
0.00435703
0.0040779
0.0032077
0.00117366
0.000623302
0.000436917
0.000906534
0.0010132
0.00121009
0.00140574
0.00154994
0.0015916
0.00162602
0.0016359
0.00158947
0.00146202
0.00126495
0.00101859
0.000762423
0.000582803
0.000620123
0.000949057
0.00189793
0.00075498
0.00181253
0.00370768
0.00267014
0.00352978
0.00376265
0.00391592
0.00402391
0.00411015
0.00419576
0.00430723
0.00441876
0.00450765
0.0045767
0.00466132
0.0047188
0.00425177
0.000997638
0.00084214
0.00100049
0.00103374
0.00106096
0.00111506
0.00116969
0.00060999
0.00057821
0.000552535
0.000529001
0.000505627
0.000480149
0.000451901
0.000421799
0.000393906
0.000530899
0.00095821
0.00256427
0.000876138
0.00218786
0.0051071
0.00249816
0.00369553
0.00388403
0.00387177
0.00382648
0.00381641
0.00386846
0.00396539
0.00406155
0.00412211
0.00416934
0.00432403
0.00468378
0.00492507
0.00413793
0.00122854
0.00142565
0.00153923
0.00161359
0.00167731
0.00176905
0.00181579
0.000699778
0.000685976
0.000696879
0.000724341
0.000759788
0.000792347
0.000807842
0.000790469
0.000762222
0.000856823
0.00117454
0.00237322
0.000980476
0.00257548
0.00704028
0.00271341
0.00345102
0.00380635
0.00371051
0.00358344
0.00354716
0.00362908
0.00377259
0.00389087
0.00392165
0.0038862
0.00396169
0.00430395
0.00461097
0.00446686
0.00376711
0.00337107
0.00322432
0.00319181
0.00327991
0.00349211
0.00374279
0.00374127
0.00388059
0.00404234
0.00417878
0.00427257
0.004305
0.0042463
0.00405775
0.00354123
0.00294478
0.00236036
0.00201576
0.00237901
0.00123453
0.00112824
0.00108155
0.00298267
0.00919339
0.00412984
0.00300571
0.00356428
0.00356971
0.00342357
0.00336492
0.00350744
0.00372802
0.00388104
0.00388779
0.00377282
0.00376394
0.00403772
0.00433169
0.00436604
0.00424408
0.00423498
0.00433622
0.00450947
0.00475542
0.00502366
0.00524332
0.00535459
0.00540924
0.00542715
0.00543654
0.00545112
0.0054491
0.0053941
0.00525585
0.00497218
0.00448564
0.00390924
0.00330278
0.00313464
0.0029107
0.00303944
0.00139869
0.00340345
0.0109423
0.00714043
0.00376209
0.0030094
0.0030404
0.00324755
0.00334248
0.0035832
0.00381434
0.00395356
0.00391686
0.00372695
0.00364583
0.00392185
0.00427444
0.00440539
0.00453961
0.00485652
0.00519994
0.00546526
0.0056538
0.00577001
0.00581523
0.00578986
0.00573253
0.00569496
0.0057115
0.00577137
0.00583027
0.00585558
0.00584827
0.00581988
0.0056901
0.00538741
0.00509168
0.00487826
0.00449588
0.0041015
0.00165743
0.00351644
0.0108283
0.0087385
0.00665695
0.00498738
0.00404999
0.00384203
0.0038917
0.00394823
0.00404381
0.00410007
0.00396182
0.00365306
0.00352052
0.00389589
0.0043934
0.00464592
0.00502812
0.00540604
0.00563127
0.00571663
0.00571536
0.005661
0.0055725
0.00548143
0.00542861
0.00545088
0.00553731
0.00564717
0.00574387
0.00582058
0.00591033
0.00607851
0.00638026
0.00672515
0.00691372
0.00689363
0.00599128
0.00563629
0.00178843
0.00345649
0.00421845
0.00476892
0.0049164
0.00475184
0.00445696
0.00426699
0.00416862
0.00418104
0.00425057
0.00424061
0.00392822
0.00344595
0.00331201
0.00394427
0.00467407
0.00506033
0.00526733
0.00537809
0.00537163
0.0053158
0.00523427
0.00513228
0.00503214
0.00497268
0.00498414
0.00505643
0.00515266
0.00523198
0.00525825
0.00520851
0.00507289
0.00486031
0.00460013
0.00429824
0.00396004
0.00348828
0.00298876
0.00266461
0.00170391
0.00258937
0.00411711
0.00459101
0.00467344
0.00468443
0.00469863
0.00467461
0.00458653
0.0043017
0.00361385
0.00294377
0.00295428
0.00409662
0.00510804
0.00517553
0.00501571
0.00483371
0.00471854
0.0046572
0.00462634
0.00461352
0.00461877
0.00464921
0.00470999
0.00479805
0.00490342
0.00500898
0.00510207
0.0051771
0.00521399
0.00518753
0.00505582
0.00480487
0.00442046
0.00390527
0.00333528
0.00276405
0.00153074
0.00273217
0.00480766
0.00518174
0.00509665
0.00495898
0.00477751
0.00455909
0.00414813
0.00353159
0.00263431
0.0020177
0.00233373
0.0037537
0.00425793
0.00429556
0.00421012
0.0041299
0.00408627
0.00407307
0.0040806
0.00410243
0.0041347
0.00417413
0.00421725
0.00426206
0.00431208
0.00437907
0.00447999
0.00461798
0.00479154
0.00496977
0.00510896
0.00516899
0.00509161
0.00480465
0.00441933
0.00357904
0.00156786
0.00239424
0.00251161
0.00261237
0.00275516
0.00257618
0.00232562
0.0021188
0.00191874
0.00171824
0.00156209
0.00141551
0.00119241
0.000854712
0.000861338
0.000904237
0.000910663
0.000896163
0.000884336
0.000880123
0.000881136
0.000885764
0.000893132
0.000902813
0.000914588
0.00092828
0.000943788
0.000961496
0.000983178
0.00101319
0.00105855
0.00112727
0.00122245
0.00134157
0.00148281
0.0016175
0.00171185
0.0017439
0.00167787
0.00155665
0.00141645
)
;

boundaryField
{
    floor
    {
        type            compressible::alphatWallFunction;
        Prt             0.85;
        value           nonuniform List<scalar> 
29
(
0.000164203
5.11816e-05
5.8047e-05
6.2231e-05
5.93658e-05
5.68876e-05
5.69019e-05
5.7798e-05
5.782e-05
5.66818e-05
5.41008e-05
4.99344e-05
4.46448e-05
3.89009e-05
3.43068e-05
3.36105e-05
3.9088e-05
6.20424e-05
0.000102043
8.03291e-05
8.03281e-05
0.00010713
0.000124622
0.000139445
0.000164201
5.11809e-05
5.94213e-05
0.000119794
0.000174062
)
;
    }
    ceiling
    {
        type            compressible::alphatWallFunction;
        Prt             0.85;
        value           nonuniform List<scalar> 
43
(
0.000327867
0.000342824
0.000355607
0.000373724
0.000351146
0.000319227
0.000292594
0.000266559
0.000240166
0.000219377
0.000199652
0.000169198
0.000121739
0.000122686
0.000128816
0.000129734
0.000127668
0.000125979
0.000125376
0.00012552
0.000126181
0.000127232
0.000128612
0.00013029
0.000132239
0.000134444
0.000136959
0.000140031
0.000144267
0.000150635
0.000160216
0.000173374
0.00018968
0.00020881
0.000226848
0.000239392
0.000243638
0.000234888
0.00021872
0.000199843
0.000461193
0.000553903
0.000370666
)
;
    }
    sWall
    {
        type            compressible::alphatWallFunction;
        Prt             0.85;
        value           uniform 0.000326634;
    }
    nWall
    {
        type            compressible::alphatWallFunction;
        Prt             0.85;
        value           nonuniform List<scalar> 6(0.000153419 0.000197036 0.000231746 0.00021489 0.000219865 0.000199484);
    }
    sideWalls
    {
        type            empty;
    }
    glass1
    {
        type            compressible::alphatWallFunction;
        Prt             0.85;
        value           nonuniform List<scalar> 9(0.000139774 0.00019797 0.000247055 0.000295469 0.000344622 0.000395482 0.000447323 0.000461267 0.000454169);
    }
    glass2
    {
        type            compressible::alphatWallFunction;
        Prt             0.85;
        value           nonuniform List<scalar> 2(0.000247232 0.000236245);
    }
    sun
    {
        type            compressible::alphatWallFunction;
        Prt             0.85;
        value           nonuniform List<scalar> 
14
(
0.000143725
0.000153084
0.000153797
0.000159673
0.00016481
0.000169353
0.000173527
0.000177577
0.000181474
0.000184337
0.000185585
0.000184473
0.000180339
0.00017317
)
;
    }
    heatsource1
    {
        type            compressible::alphatWallFunction;
        Prt             0.85;
        value           nonuniform List<scalar> 3(0.000175057 0.000160388 0.000153847);
    }
    heatsource2
    {
        type            compressible::alphatWallFunction;
        Prt             0.85;
        value           nonuniform List<scalar> 4(0.000166654 8.79822e-05 8.79812e-05 0.000142096);
    }
    Table_master
    {
        type            compressible::alphatWallFunction;
        Prt             0.85;
        value           nonuniform List<scalar> 9(8.59821e-05 8.12157e-05 7.73408e-05 7.37692e-05 7.02017e-05 6.62891e-05 6.19208e-05 5.72285e-05 5.28432e-05);
    }
    Table_slave
    {
        type            compressible::alphatWallFunction;
        Prt             0.85;
        value           nonuniform List<scalar> 9(9.92828e-05 9.72526e-05 9.8854e-05 0.000102876 0.000108041 0.00011276 0.000114995 0.000112479 0.000108382);
    }
    inlet
    {
        type            fixedValue;
        value           uniform 1.94e-05;
    }
    outlet
    {
        type            zeroGradient;
    }
}


// ************************************************************************* //
