/*--------------------------------*- C++ -*----------------------------------*\
  =========                 |
  \\      /  F ield         | OpenFOAM: The Open Source CFD Toolbox
   \\    /   O peration     | Website:  https://openfoam.org
    \\  /    A nd           | Version:  6
     \\/     M anipulation  |
\*---------------------------------------------------------------------------*/
FoamFile
{
    version     2.0;
    format      ascii;
    class       surfaceScalarField;
    location    "300";
    object      phi;
}
// * * * * * * * * * * * * * * * * * * * * * * * * * * * * * * * * * * * * * //

dimensions      [1 0 -1 0 0 0 0];

internalField   nonuniform List<scalar> 
852
(
-0.00237565
0.00244095
-0.00239686
2.13791e-05
-0.00241125
1.4566e-05
-0.00251936
0.000108276
-0.0026541
0.000134916
-0.00277598
0.000122055
-0.00286152
8.57217e-05
-0.00289281
3.14726e-05
-0.00285344
-3.91864e-05
-0.00272642
-0.000126828
-0.0024968
-0.00022942
-0.00215318
-0.000343412
-0.00167327
-0.000479702
-0.000982765
-0.00069028
-0.000979965
-0.000616936
0.000621834
-0.000426186
-0.000190671
-0.000202309
-0.000223783
-0.000146753
-5.54961e-05
-0.000218135
7.14107e-05
-0.000309448
9.13235e-05
-0.000248627
-6.08306e-05
-1.24905e-05
-0.000236166
0.000268943
-0.000281446
0.000501183
-0.000232222
0.00066333
-0.000162122
0.000770007
-0.000106657
0.000839937
-6.99165e-05
0.00088028
-4.03368e-05
0.000916072
-3.58074e-05
0.000949679
-3.36516e-05
0.000973875
-2.42386e-05
0.00083275
0.000141153
0.000837612
-0.00170173
0.00430739
-0.00214793
0.000467756
-0.00235285
0.000219666
-0.00251244
0.000268046
-0.00266199
0.000284649
-0.00278934
0.00024959
-0.00288038
0.00017696
-0.00292211
7.33969e-05
-0.00290243
-5.86585e-05
-0.00281017
-0.000218874
-0.0026329
-0.000406474
-0.00235659
-0.000619494
-0.00197267
-0.000863383
-0.00152447
-0.00113823
-0.00112944
-0.00137474
0.000161552
-0.00129079
0.000161676
0.000200733
0.000433876
2.67753e-05
-1.65745e-05
-0.000107803
-8.90064e-05
-4.56379e-05
-0.000117429
0.000108324
-8.23532e-05
-4.08936e-05
0.000240691
-7.33913e-05
-2.83027e-05
5.24091e-06
-0.000314786
6.10761e-05
-0.000337207
8.20459e-05
-0.000253068
8.14433e-05
-0.000161395
6.25539e-05
-8.76642e-05
1.74662e-05
-2.47505e-05
-5.12881e-05
2.8498e-05
-9.18868e-05
4.86329e-06
2.39144e-05
-0.000149386
0.000269821
-0.000270086
0.00032557
8.54838e-05
0.00117548
-0.00124139
0.00578997
-0.00185532
0.00108185
-0.00217025
0.000534775
-0.00237819
0.00047617
-0.0025464
0.000453055
-0.00268289
0.000386272
-0.00278455
0.000278815
-0.00284505
0.000134106
-0.00285781
-4.56815e-05
-0.00281832
-0.000258141
-0.0027245
-0.000500059
-0.00257678
-0.000766971
-0.00238509
-0.00105481
-0.00218004
-0.00134302
-0.00199151
-0.001563
-0.00167121
-0.0016108
-0.00150925
-0.000314797
0.000764228
-0.000673454
0.000342341
-0.000820647
5.84779e-05
-0.000802836
-0.000134933
-0.000589882
-0.000295008
0.000164275
-0.000513209
0.000136458
-0.000178058
-0.000514886
-0.000767483
-0.000928409
-0.00101565
-0.00104003
-0.00101123
-0.00100611
-0.000957888
-0.000197548
-0.00130528
7.73137e-05
-0.00134098
0.000121149
-0.000148312
-0.000908934
0.00700238
-0.00158526
0.00175835
-0.00193604
0.000885736
-0.00217218
0.000712505
-0.00234441
0.000625469
-0.0024733
0.000515365
-0.0025675
0.000373216
-0.00262925
0.00019607
-0.002658
-1.67188e-05
-0.00265706
-0.000258857
-0.00263875
-0.000518128
-0.00261968
-0.000785794
-0.00262313
-0.00105111
-0.002678
-0.00128788
-0.00279367
-0.00144705
-0.00294541
-0.00145876
-0.00332933
-0.00112501
-0.00277593
-0.000540862
-0.00210666
9.52696e-05
-0.00198011
0.000216098
-0.00195249
3.11434e-05
-0.00194421
-0.000142911
-0.0019447
-0.000294222
-0.00209577
-0.000361839
-0.00181791
-0.000277706
-0.00156384
-0.000253923
-0.00131712
-0.000246565
-0.00108343
-0.000233533
-0.000873347
-0.000209922
-0.000696
-0.000177194
-0.000552118
-0.000143743
-0.000428268
-0.000123736
-0.000293977
-0.000134223
-0.000283421
-0.000207959
-2.60935e-05
-0.000179951
0.000175865
-8.08366e-05
4.15612e-05
-0.000667451
0.00802672
-0.00137156
0.00246264
-0.0016715
0.00118587
-0.00190284
0.000944029
-0.00206098
0.000783809
-0.0021561
0.00061068
-0.00220754
0.000424854
-0.00222983
0.00021857
-0.00223036
-1.59664e-05
-0.00222039
-0.000268608
-0.00222217
-0.000516124
-0.00225705
-0.000750679
-0.0023416
-0.000966315
-0.00248324
-0.00114598
-0.00267537
-0.00125463
-0.0029026
-0.00123124
-0.00303659
-0.000990711
-0.00297639
-0.000600737
-0.00264747
-0.00023331
-0.00233918
-9.18668e-05
-0.00216736
-0.000140375
-0.00207296
-0.000237013
-0.00203153
-0.000335358
-0.00200568
-0.000387403
-0.00189531
-0.000387789
-0.00176264
-0.000386297
-0.00162854
-0.000380377
-0.00150025
-0.000361533
-0.00138379
-0.000326099
-0.0012808
-0.000279913
-0.00118402
-0.000240262
-0.0010741
-0.000233422
-0.000919121
-0.000288986
-0.00070458
-0.000422312
-0.000265241
-0.000619126
0.000524179
-0.000870107
0.00165551
-0.00108965
0.00255288
-0.000897428
0.00216932
0.000383532
0.00221005
-0.000636921
0.00906774
-0.00129981
0.00312571
-0.00133307
0.00121932
-0.00148283
0.00109399
-0.00164803
0.00094921
-0.00170701
0.000669856
-0.00168837
0.000406415
-0.0016333
0.000163715
-0.00156683
-8.22265e-05
-0.00151265
-0.000322582
-0.00149786
-0.000530692
-0.00154142
-0.000706903
-0.00164978
-0.000857719
-0.0018167
-0.000978812
-0.00202393
-0.00104715
-0.00223415
-0.00102075
-0.0023592
-0.000865371
-0.00234214
-0.000617507
-0.00218536
-0.000389799
-0.00200298
-0.000273956
-0.00187586
-0.000267207
-0.00180257
-0.000310019
-0.00177245
-0.000365202
-0.00175652
-0.000403059
-0.0017274
-0.000416632
-0.00169421
-0.000419218
-0.00166639
-0.000407923
-0.00165041
-0.000377236
-0.00165036
-0.000325889
-0.00166676
-0.000263258
-0.00169459
-0.000212186
-0.0017225
-0.000205284
-0.0017312
-0.000280066
-0.00168884
-0.000464472
-0.00152357
-0.000784203
-0.00113047
-0.00126302
-0.00035612
-0.00186381
0.000905331
-0.00215869
0.0015228
-0.000233749
0.00378114
-0.00087888
0.0103944
-0.000983285
0.0032303
-0.000466703
0.000702934
-0.000500515
0.00112801
-0.000805194
0.0012541
-0.000917983
0.000782853
-0.000859189
0.000347831
-0.000733391
3.81273e-05
-0.000609104
-0.000206303
-0.000525315
-0.000406162
-0.000503372
-0.000552426
-0.000555236
-0.000654827
-0.000679723
-0.000733016
-0.000863128
-0.000795182
-0.00107904
-0.000831007
-0.00128584
-0.000813707
-0.00142894
-0.000722011
-0.00146961
-0.000576574
-0.00142276
-0.000436376
-0.00134547
-0.00035098
-0.00128657
-0.000325842
-0.00125946
-0.000336864
-0.00126243
-0.000361965
-0.00128261
-0.000382619
-0.00130886
-0.00039013
-0.00134383
-0.000383995
-0.00139397
-0.000357518
-0.00146866
-0.000302289
-0.00158002
-0.000214278
-0.00174053
-0.000102501
-0.00195575
3.28419e-06
-0.00222109
6.0287e-05
-0.00252144
2.05067e-05
-0.00282708
-0.000158628
-0.00310367
-0.000507406
-0.00331125
-0.00105525
-0.00336949
-0.00180537
-0.00302846
-0.00249954
-0.00120788
-0.00205414
0.00263075
0.00176362
0.0091335
0.00243698
0.00255712
0.00239704
0.000743068
0.00178576
0.0017395
0.00121413
0.00182595
0.000920966
0.00107623
0.00080215
0.000466867
0.000777524
6.29722e-05
0.000794329
-0.000222893
0.000794187
-0.000405808
0.000747013
-0.000505044
0.000647275
-0.000554881
0.000494522
-0.000580054
0.000294078
-0.000594527
6.35932e-05
-0.000600304
-0.000160423
-0.000589464
-0.000334792
-0.000547407
-0.000434926
-0.000476197
-0.00047081
-0.000400244
-0.000475769
-0.000345772
-0.000481085
-0.000320277
-0.000501582
-0.000316121
-0.000540408
-0.000322896
-0.000592663
-0.000330123
-0.000652293
-0.000330263
-0.000717961
-0.000318092
-0.000790192
-0.000285052
-0.000872252
-0.000219994
-0.000972597
-0.000113695
-0.00111262
3.77634e-05
-0.00134244
0.000233347
-0.00172677
0.000444852
-0.00231013
0.000604099
-0.00307636
0.000607823
-0.00395023
0.000366672
-0.00488826
-0.000117021
-0.00604704
-0.000646402
-0.0074386
-0.00110779
-0.00707151
-0.00242106
-0.00418526
0.0096926
0.0122445
0.00962876
0.00335902
0.00656199
0.00480647
0.00511548
0.00327267
0.00423455
0.00195737
0.00362382
0.00107781
0.0031654
0.000521612
0.00278559
0.000157127
0.00246709
-8.70959e-05
0.00220339
-0.000241133
0.00197375
-0.000325029
0.00175592
-0.000362019
0.0015339
-0.000372297
0.00130395
-0.000370137
0.0010775
-0.00036281
0.000878704
-0.000348388
0.000727056
-0.000324324
0.000622607
-0.000295566
0.000548308
-0.000271242
0.000484444
-0.000256182
0.000418252
-0.0002497
0.000344323
-0.000248741
0.000263295
-0.000248873
0.000178704
-0.000245453
9.43857e-05
-0.000233557
1.5518e-05
-0.000205971
-5.12078e-05
-0.000153057
-9.99274e-05
-6.47625e-05
-0.000131041
6.90936e-05
-0.0001485
0.000251026
-0.000159661
0.000456237
-0.000168881
0.000613543
-0.000183526
0.000622684
-0.000242565
0.00042592
-0.000412297
5.29185e-05
-0.000696526
-0.000361961
-0.00106145
-0.00074265
-0.00129647
-0.00218583
-0.00520054
-0.000956284
0.00327071
0.00130923
0.0025412
0.00276354
0.00181858
0.00330891
0.00141221
0.00347321
0.000913722
0.0034941
0.000500934
0.00343297
0.000218478
0.00331511
3.09737e-05
0.00316401
-8.98117e-05
0.00299742
-0.000158234
0.00282411
-0.00018849
0.00264614
-0.000194119
0.00246332
-0.000187106
0.00227752
-0.0001768
0.00209686
-0.000167517
0.00193216
-0.000159411
0.00178889
-0.000152083
0.00166412
-0.000146261
0.0015508
-0.000142643
0.00144253
-0.000141216
0.00133539
-0.000141396
0.00122847
-0.000141746
0.0011233
-0.000140083
0.0010234
-0.000133456
0.000935081
-0.000117455
0.000868192
-8.59766e-05
0.000835016
-3.13955e-05
0.000848415
5.58856e-05
0.000922183
0.000177453
0.00106176
0.000316861
0.00125147
0.000424031
0.00144758
0.000426776
0.00160065
0.000273051
0.00168416
-3.03937e-05
0.00175376
-0.000431374
0.00195801
-0.00094672
0.00174723
-0.00197488
-0.00338941
-0.000789181
0.00404945
0.00110249
0.000649787
0.00217514
0.000746182
0.00293074
0.000656834
0.0034246
0.000420094
0.00369398
0.000231782
0.00381059
0.000102096
0.00382992
1.18624e-05
0.00378128
-4.09422e-05
0.00369183
-6.8572e-05
0.00358105
-7.74876e-05
0.00346078
-7.36284e-05
0.00333636
-6.24745e-05
0.00320808
-4.83098e-05
0.00307499
-3.42137e-05
0.00293818
-2.2403e-05
0.00280088
-1.45806e-05
0.00266648
-1.16537e-05
0.00253731
-1.32772e-05
0.0024144
-1.81055e-05
0.00229766
-2.44663e-05
0.00218682
-3.07163e-05
0.00208226
-3.53359e-05
0.00198585
-3.68665e-05
0.00190228
-3.36968e-05
0.00184036
-2.38813e-05
0.00181405
-4.91775e-06
0.00183891
3.11988e-05
0.00193161
8.49227e-05
0.00210105
0.000147586
0.00232887
0.000196387
0.00256239
0.000193429
0.00273042
0.000105205
0.00276858
-6.83767e-05
0.0026381
-0.000300722
0.0022857
-0.000594157
0.00133489
-0.0010239
-0.00197702
0.00133612
-0.00261461
0.00142046
0.00205747
0.00279074
0.00343425
0.00384039
0.0040575
0.00414416
0.00413982
0.004082
0.00399596
0.0039005
0.0038085
0.00372736
0.00366024
0.00360722
0.00356618
0.00353332
0.00350391
0.00347355
0.0034391
0.0033991
0.00335367
0.00330445
0.00325454
0.00320866
0.00317346
0.00315814
0.00317996
0.00325663
0.00339715
0.00358758
0.00377596
0.00387676
0.00380441
0.00350007
0.00290259
0.00187579
)
;

boundaryField
{
    floor
    {
        type            calculated;
        value           nonuniform List<scalar> 
29
(
0
0
0
0
0
0
0
0
0
0
0
0
0
0
0
0
0
0
0
0
-4.77026e-06
-1.21783e-05
-1.72651e-05
-1.3984e-05
-2.57181e-06
-4.84691e-06
-1.27178e-05
-1.53539e-05
-1.2219e-05
)
;
    }
    ceiling
    {
        type            calculated;
        value           nonuniform List<scalar> 
43
(
2.91e-05
1.97091e-05
1.46843e-05
1.30393e-05
1.31638e-05
1.35798e-05
1.42056e-05
1.49265e-05
1.56838e-05
1.64461e-05
1.71238e-05
1.77103e-05
1.82047e-05
1.85992e-05
1.88803e-05
1.90296e-05
1.90245e-05
1.88443e-05
1.84809e-05
1.79481e-05
1.72809e-05
1.65242e-05
1.57179e-05
1.48897e-05
1.40528e-05
1.32092e-05
1.23527e-05
1.14729e-05
1.05579e-05
9.53242e-06
8.3935e-06
7.21113e-06
6.10306e-06
5.19034e-06
4.54589e-06
4.11953e-06
3.76578e-06
3.47088e-06
3.0433e-06
3.57139e-06
7.42369e-06
5.35871e-06
1.07583e-05
)
;
    }
    sWall
    {
        type            calculated;
        value           uniform -0.000143217;
    }
    nWall
    {
        type            calculated;
        value           nonuniform List<scalar> 6(-4.0745e-05 -4.80858e-05 -5.72858e-05 -6.37382e-05 -7.73437e-05 -0.000104647);
    }
    sideWalls
    {
        type            empty;
        value           nonuniform 0();
    }
    glass1
    {
        type            calculated;
        value           nonuniform List<scalar> 9(-6.51406e-05 -0.000164555 -0.000241035 -0.000303322 -0.000356736 -0.000403941 -0.00044764 -0.000502567 -0.000566382);
    }
    glass2
    {
        type            calculated;
        value           nonuniform List<scalar> 2(-0.000255347 -0.000281032);
    }
    sun
    {
        type            calculated;
        value           uniform 0;
    }
    heatsource1
    {
        type            calculated;
        value           nonuniform List<scalar> 3(2.03544e-07 2.03643e-07 2.0388e-07);
    }
    heatsource2
    {
        type            calculated;
        value           nonuniform List<scalar> 4(5.13021e-08 5.15058e-08 0 0);
    }
    Table_master
    {
        type            calculated;
        value           nonuniform List<scalar> 9(-1.55033e-07 -1.55124e-07 -1.54981e-07 -1.54757e-07 -1.54563e-07 -1.54409e-07 -1.54292e-07 -1.54195e-07 -1.54091e-07);
    }
    Table_slave
    {
        type            calculated;
        value           nonuniform List<scalar> 9(1.53425e-07 1.53523e-07 1.53602e-07 1.53675e-07 1.53739e-07 1.53788e-07 1.53816e-07 1.53822e-07 1.53789e-07);
    }
    inlet
    {
        type            calculated;
        value           uniform 0.00104494;
    }
    outlet
    {
        type            calculated;
        value           nonuniform List<scalar> 2(-0.00122151 0.00393152);
    }
}


// ************************************************************************* //
