/*--------------------------------*- C++ -*----------------------------------*\
  =========                 |
  \\      /  F ield         | OpenFOAM: The Open Source CFD Toolbox
   \\    /   O peration     | Website:  https://openfoam.org
    \\  /    A nd           | Version:  6
     \\/     M anipulation  |
\*---------------------------------------------------------------------------*/
FoamFile
{
    version     2.0;
    format      ascii;
    class       volScalarField;
    location    "1000";
    object      nut;
}
// * * * * * * * * * * * * * * * * * * * * * * * * * * * * * * * * * * * * * //

dimensions      [0 2 -1 0 0 0 0];

internalField   nonuniform List<scalar> 
459
(
0.00104489
0.00113706
0.00115701
0.00121125
0.0012612
0.0013079
0.00135374
0.00139928
0.00143231
0.00144697
0.00143728
0.00139877
0.00132999
0.00123468
0.00112735
0.000453513
0.000542484
0.000609033
0.000608492
0.000588325
0.000561657
0.000527326
0.000492902
0.00046163
0.00043389
0.000409337
0.000387528
0.00036814
0.000350758
0.000334765
0.000319362
0.000303443
0.000294477
0.000270567
0.0014288
0.00333259
0.00313661
0.0036355
0.00411964
0.0046098
0.00504757
0.00537608
0.00568531
0.00594686
0.00612253
0.00616987
0.00603543
0.00559483
0.00435388
0.00114368
0.000659412
0.000477909
0.000970948
0.00133384
0.00159978
0.00174966
0.0017559
0.00142019
0.00123105
0.00109419
0.000988476
0.000904192
0.000835464
0.0007764
0.000721495
0.000668853
0.000622693
0.000581049
0.000697624
0.000365755
0.00174969
0.00452301
0.00380716
0.00477178
0.00520664
0.00552211
0.00576845
0.00597369
0.00621557
0.00648021
0.0067362
0.00693278
0.00702222
0.00694167
0.00649509
0.00503919
0.00114514
0.000915969
0.00128945
0.00163261
0.00195477
0.0021895
0.00216483
0.00075017
0.000666988
0.000599102
0.000543705
0.000498196
0.000460487
0.000429018
0.000402744
0.000381156
0.000409251
0.000468272
0.000787361
0.000429424
0.0020596
0.00582001
0.00374276
0.00498777
0.00532983
0.00540872
0.00546274
0.0055703
0.00576842
0.00603771
0.00635366
0.00664542
0.00686288
0.00695816
0.00686936
0.00637911
0.00448813
0.00134905
0.00160544
0.00201091
0.00243367
0.00279751
0.0030463
0.00291493
0.000847415
0.000779209
0.000730934
0.000694437
0.000663144
0.000633334
0.000604476
0.000573745
0.000537519
0.000504842
0.000506645
0.000916727
0.000479435
0.00237637
0.00752259
0.00404833
0.004733
0.00521783
0.0051722
0.00510893
0.00518179
0.00537462
0.00564754
0.0059983
0.00632462
0.00655744
0.00664838
0.00659238
0.00637075
0.0058334
0.00490331
0.00455888
0.00446114
0.00445771
0.00447557
0.00446992
0.00434949
0.00376159
0.00348261
0.00332552
0.00320193
0.00306298
0.00285267
0.00254864
0.00216748
0.00173681
0.00130186
0.000959833
0.00093845
0.000649553
0.000594853
0.00071692
0.000804305
0.00271296
0.00939163
0.00561758
0.00452118
0.00498443
0.00514559
0.00499541
0.00508494
0.00525431
0.00551098
0.00584537
0.0061828
0.00641894
0.00647832
0.00635687
0.00612288
0.00587186
0.00567942
0.00562667
0.00561044
0.00556201
0.00547475
0.00535249
0.00518501
0.00493548
0.00471343
0.00451332
0.00431483
0.0041057
0.00387436
0.00356463
0.0031608
0.00266195
0.00209809
0.00158304
0.0011557
0.000891606
0.000764963
0.00109239
0.000840249
0.00303157
0.0107569
0.00815932
0.00576332
0.00529099
0.00539455
0.00530837
0.00525999
0.0053316
0.00556069
0.0059054
0.0062573
0.00648591
0.00650059
0.00630645
0.00602469
0.00585021
0.00589818
0.00604359
0.00609156
0.00599534
0.00579607
0.00553525
0.00524511
0.00495509
0.00469941
0.00447009
0.00425434
0.00404932
0.00385985
0.00368592
0.00342599
0.00303716
0.00255081
0.00207188
0.00162268
0.00130973
0.00121738
0.00124855
0.000956353
0.00310203
0.00983082
0.00848511
0.00745083
0.00676877
0.00621792
0.00568401
0.00541606
0.00545803
0.00574885
0.00616108
0.00653386
0.00671734
0.00663173
0.00632636
0.00600185
0.00590952
0.00607953
0.00617459
0.00603392
0.00572962
0.00534122
0.00493665
0.00457074
0.0042723
0.00403694
0.00384293
0.00367833
0.00354403
0.00344824
0.00340143
0.0033835
0.00317999
0.00286332
0.00257623
0.00242845
0.00253316
0.00293835
0.00361923
0.00149327
0.00302902
0.00362267
0.00409715
0.00425788
0.00428604
0.00433718
0.00454856
0.00495294
0.0055251
0.00616054
0.00670718
0.007021
0.00700209
0.00664813
0.00614851
0.00590761
0.00584668
0.00578632
0.00556364
0.00517439
0.00470198
0.0042369
0.00384213
0.00353912
0.00331507
0.00314325
0.00300097
0.0028755
0.00275971
0.00264774
0.00253423
0.00242072
0.00232773
0.00225865
0.0022335
0.0022452
0.00223313
0.00214208
0.00200024
0.00139785
0.00186514
0.00330104
0.00442812
0.00533762
0.00607624
0.00673859
0.00730142
0.00764028
0.00766582
0.00736736
0.00677652
0.00599728
0.0053916
0.00511114
0.00488851
0.00456134
0.00413729
0.00368025
0.00325891
0.00292629
0.00268668
0.00251995
0.00240205
0.0023149
0.002248
0.00219633
0.00215807
0.00213341
0.00212633
0.00214082
0.00216386
0.00219329
0.00222194
0.00222483
0.00216133
0.00201766
0.0018095
0.00114566
0.00214822
0.00449587
0.00601898
0.00676534
0.0072368
0.00751422
0.0076198
0.00727812
0.00654046
0.00564588
0.0048298
0.00421326
0.00379386
0.00345873
0.00309251
0.0027186
0.0023919
0.00214206
0.00197115
0.00185642
0.00178198
0.00174176
0.00172663
0.00173114
0.00175227
0.00178795
0.00183584
0.00189215
0.00196269
0.00204539
0.00213818
0.00223534
0.00232221
0.00238042
0.00236488
0.00238182
0.00234455
0.00116416
0.00184622
0.00194415
0.00201745
0.00208722
0.0018848
0.00171113
0.00161427
0.0015402
0.00143532
0.00130325
0.00115301
0.00099498
0.000851712
0.000738883
0.000658979
0.000606539
0.000573589
0.000554497
0.000545831
0.000545284
0.000551098
0.000561925
0.000577043
0.000595294
0.00061655
0.000640853
0.00066838
0.000699479
0.000734777
0.000775398
0.000820916
0.000871443
0.00092764
0.000990158
0.001059
0.00114196
0.00116974
0.00114107
0.00106828
0.000991389
)
;

boundaryField
{
    floor
    {
        type            nutkWallFunction;
        Cmu             0.09;
        kappa           0.41;
        E               9.8;
        value           nonuniform List<scalar> 
29
(
0.000135604
5.37323e-05
6.51125e-05
7.34727e-05
7.3405e-05
7.08835e-05
6.7533e-05
6.31907e-05
5.88015e-05
5.47811e-05
5.11863e-05
4.79801e-05
4.51118e-05
4.25445e-05
4.0228e-05
3.80834e-05
3.60055e-05
3.3844e-05
3.262e-05
2.93312e-05
2.93311e-05
4.22273e-05
5.06049e-05
5.70743e-05
0.000135604
5.37323e-05
5.68783e-05
0.000110786
0.000161069
)
;
    }
    ceiling
    {
        type            nutkWallFunction;
        Cmu             0.09;
        kappa           0.41;
        E               9.8;
        value           nonuniform List<scalar> 
43
(
0.000216457
0.000227173
0.00023516
0.000242821
0.000220797
0.000201676
0.000190919
0.000182643
0.000170845
0.000155848
0.000138577
0.000120131
0.000103115
8.9478e-05
7.96725e-05
7.31603e-05
6.9034e-05
6.66302e-05
6.55359e-05
6.54671e-05
6.6202e-05
6.75678e-05
6.94695e-05
7.17571e-05
7.44106e-05
7.7431e-05
8.08354e-05
8.46615e-05
8.89798e-05
9.39188e-05
9.94173e-05
0.000105479
0.000112173
0.000119566
0.000127645
0.000137301
0.000140516
0.000137198
0.00012873
0.000119712
0.00034315
0.000404523
0.000249228
)
;
    }
    sWall
    {
        type            nutkWallFunction;
        Cmu             0.09;
        kappa           0.41;
        E               9.8;
        value           uniform 0.000216517;
    }
    nWall
    {
        type            nutkWallFunction;
        Cmu             0.09;
        kappa           0.41;
        E               9.8;
        value           nonuniform List<scalar> 6(9.74156e-05 0.000101743 0.000115579 0.00013774 0.000139882 0.000119718);
    }
    sideWalls
    {
        type            empty;
    }
    glass1
    {
        type            nutkWallFunction;
        Cmu             0.09;
        kappa           0.41;
        E               9.8;
        value           nonuniform List<scalar> 9(0.000126085 0.000170324 0.000206263 0.000240289 0.000274502 0.000310329 0.000343817 0.000351182 0.000343576);
    }
    glass2
    {
        type            nutkWallFunction;
        Cmu             0.09;
        kappa           0.41;
        E               9.8;
        value           nonuniform List<scalar> 2(0.00017746 0.000166681);
    }
    sun
    {
        type            nutkWallFunction;
        Cmu             0.09;
        kappa           0.41;
        E               9.8;
        value           nonuniform List<scalar> 
14
(
0.000125995
0.000136731
0.000139041
0.000145302
0.000151039
0.000156381
0.000161603
0.000166771
0.000170508
0.000172164
0.000171069
0.000166713
0.000158899
0.000147996
)
;
    }
    heatsource1
    {
        type            nutkWallFunction;
        Cmu             0.09;
        kappa           0.41;
        E               9.8;
        value           nonuniform List<scalar> 3(7.17038e-05 8.67987e-05 9.74148e-05);
    }
    heatsource2
    {
        type            nutkWallFunction;
        Cmu             0.09;
        kappa           0.41;
        E               9.8;
        value           nonuniform List<scalar> 4(0.000137494 7.97289e-05 7.97289e-05 0.000137662);
    }
    Table_master
    {
        type            nutkWallFunction;
        Cmu             0.09;
        kappa           0.41;
        E               9.8;
        value           nonuniform List<scalar> 9(9.08542e-05 8.06643e-05 7.22352e-05 6.52709e-05 5.94845e-05 5.46403e-05 5.05596e-05 4.71239e-05 4.42795e-05);
    }
    Table_slave
    {
        type            nutkWallFunction;
        Cmu             0.09;
        kappa           0.41;
        E               9.8;
        value           nonuniform List<scalar> 9(0.000102599 9.43793e-05 8.85103e-05 8.40427e-05 8.01897e-05 7.64991e-05 7.29062e-05 6.90573e-05 6.44875e-05);
    }
    inlet
    {
        type            calculated;
        value           uniform 0.000100623;
    }
    outlet
    {
        type            calculated;
        value           nonuniform List<scalar> 2(0.00184622 0.00194415);
    }
}


// ************************************************************************* //
