/*--------------------------------*- C++ -*----------------------------------*\
  =========                 |
  \\      /  F ield         | OpenFOAM: The Open Source CFD Toolbox
   \\    /   O peration     | Website:  https://openfoam.org
    \\  /    A nd           | Version:  6
     \\/     M anipulation  |
\*---------------------------------------------------------------------------*/
FoamFile
{
    version     2.0;
    format      ascii;
    class       surfaceScalarField;
    location    "100";
    object      phi;
}
// * * * * * * * * * * * * * * * * * * * * * * * * * * * * * * * * * * * * * //

dimensions      [1 0 -1 0 0 0 0];

internalField   nonuniform List<scalar> 
852
(
-0.00277077
0.00284293
-0.00318781
0.000417127
-0.0037252
0.000537479
-0.00425342
0.000528303
-0.00471997
0.000466635
-0.00510072
0.000380831
-0.00537597
0.000275344
-0.00552458
0.000148694
-0.00552259
-1.89816e-06
-0.00534079
-0.00018172
-0.00495406
-0.000386643
-0.00434665
-0.000607316
-0.00347879
-0.000867779
-0.00216722
-0.00131147
-0.00216348
0.000792399
-0.000788067
0.00120484
-0.00041237
0.00138689
-0.000181977
0.00152499
-0.00013802
0.00166224
-0.000137168
0.00176775
-0.000105422
0.0017809
-1.3053e-05
0.00173759
4.34092e-05
0.00167954
5.81641e-05
0.00162071
5.89386e-05
0.00156409
5.67405e-05
0.00151087
5.33506e-05
0.00146011
5.08794e-05
0.00140554
5.46978e-05
0.00132838
7.7274e-05
0.00119874
0.000129758
0.00102147
0.000177375
0.000847961
0.000173604
0.000855496
-0.00202335
0.00505663
-0.00275005
0.00114392
-0.00344077
0.00122829
-0.00401571
0.00110333
-0.00450424
0.000955258
-0.00490287
0.000779554
-0.00519856
0.000571123
-0.0053737
0.000323926
-0.00540844
3.29344e-05
-0.00528757
-0.0003025
-0.0049978
-0.000676317
-0.00452674
-0.00107828
-0.003871
-0.00152343
-0.00315555
-0.00202684
-0.00295532
-0.00236362
-0.000951557
-0.00200373
-0.000951532
0.000553813
-0.0013306
0.000720985
-0.000579479
0.000858967
-0.000319892
0.00102854
-0.000307522
0.0012114
-0.000319947
0.00137653
-0.00027047
0.00140998
-4.64203e-05
0.00141269
4.07946e-05
0.00141504
5.59137e-05
0.00141789
5.61952e-05
0.0014206
5.41469e-05
0.00142314
5.09251e-05
0.00142498
4.91555e-05
0.00142351
5.62937e-05
0.00139171
0.000109182
0.00123815
0.000283425
0.000979606
0.000436022
0.000681695
0.000471602
0.00155563
-0.00149994
0.00684144
-0.00233105
0.00197512
-0.00302809
0.00192542
-0.00357598
0.00165131
-0.00404569
0.00142506
-0.0044381
0.00117206
-0.00474175
0.000874874
-0.00494024
0.000522512
-0.0050158
0.000108596
-0.00495377
-0.000364429
-0.00474956
-0.000880428
-0.00441469
-0.00141305
-0.00399546
-0.00194255
-0.00359777
-0.00242444
-0.00322835
-0.00273295
-0.00233942
-0.00289257
-0.00329088
-0.00036574
-0.000948159
-0.000100063
-0.000845093
0.000239413
-0.000659302
0.000517194
-0.000585235
0.000758745
-0.000561427
0.00107072
-0.000582369
0.00102453
0.00106557
0.00112174
0.00117819
0.0012326
0.00128379
0.00133321
0.00138977
0.00149922
0.00123012
0.000552634
0.000905031
0.000761206
0.000556326
0.000820392
0.00213902
-0.00112519
0.00832773
-0.0019663
0.00281632
-0.00252361
0.00248282
-0.00297566
0.00210346
-0.00338042
0.00182992
-0.00373144
0.00152318
-0.00401709
0.00116063
-0.00422146
0.000726983
-0.00432385
0.000211094
-0.00430484
-0.000383333
-0.00416984
-0.00101533
-0.00395916
-0.00162362
-0.00374055
-0.00216106
-0.00357759
-0.0025873
-0.00343965
-0.00287079
-0.00331865
-0.00301349
-0.00393163
-0.00267782
-0.00204489
-0.00186886
-0.00123857
-0.00175442
-0.000646198
-0.0014374
-0.000204183
-0.00110125
0.000119909
-0.000909262
0.000339938
-0.000781389
0.000406856
-0.000649219
0.000828131
-0.000421362
0.00117651
-0.00034846
0.00149285
-0.000316422
0.00177616
-0.000283397
0.00200576
-0.000229674
0.00214388
-0.000138198
0.00214091
2.89586e-06
0.00195331
0.000187536
0.00152706
0.000426184
0.00126867
0.00081112
0.000814419
0.00121555
0.000131465
0.00150344
0.0023057
-0.000829435
0.00958116
-0.00163578
0.00362275
-0.00194209
0.00278923
-0.00225836
0.00241982
-0.0025593
0.00213097
-0.00282485
0.00178883
-0.0030459
0.00138179
-0.0032111
0.000892291
-0.00330098
0.000301084
-0.00328433
-0.000399871
-0.00317111
-0.00112845
-0.00302018
-0.00177444
-0.00289116
-0.00228996
-0.00281367
-0.00266468
-0.00277864
-0.00290571
-0.00279887
-0.00299315
-0.00266633
-0.00281026
-0.00198044
-0.00255467
-0.00130213
-0.00243265
-0.000752594
-0.00198686
-0.000383056
-0.00147073
-0.000102862
-0.00118939
0.000116332
-0.00100052
0.000312374
-0.000845197
0.000595208
-0.000704131
0.000872953
-0.000626139
0.00113746
-0.000580867
0.00138769
-0.000533551
0.00161093
-0.000452847
0.00177899
-0.000306185
0.00184873
-6.67689e-05
0.0017875
0.000248844
0.00160987
0.000603901
0.00139438
0.0010267
0.00111293
0.0014971
0.000525016
0.00209145
0.0002556
0.00257519
-0.00120638
0.00146183
-0.00170272
0.00049619
-0.00163621
-0.000719409
0.0107779
-0.00143247
0.00433591
-0.00131112
0.00266796
-0.00145107
0.00255987
-0.00163815
0.00231815
-0.00178967
0.00194046
-0.0019018
0.00149402
-0.00197677
0.000967367
-0.00200582
0.000330244
-0.00194916
-0.000456417
-0.00183625
-0.00124125
-0.00173446
-0.00187612
-0.00168584
-0.00233847
-0.00170462
-0.00264578
-0.00178521
-0.00282499
-0.00189084
-0.00288739
-0.00185112
-0.00284986
-0.00156209
-0.0028436
-0.00108988
-0.00290477
-0.000671106
-0.00240556
-0.000428269
-0.0017135
-0.000242671
-0.00137493
-8.31543e-05
-0.00115998
7.51128e-05
-0.00100341
0.000259396
-0.000888355
0.000454345
-0.000821027
0.000654889
-0.000781348
0.000861982
-0.000740579
0.0010735
-0.000664301
0.00127721
-0.000509823
0.00144192
-0.000231404
0.00152244
0.000168395
0.00153271
0.000593715
0.00153168
0.00102781
0.00158473
0.00144414
0.00172278
0.0019535
0.00221333
0.00208473
0.00251756
0.00115766
0.00211182
0.000901996
0.000554146
-0.00102744
0.0123286
-0.00117352
0.00448208
-0.000449145
0.00194368
-0.000422376
0.0025332
-0.000567543
0.00246342
-0.000636189
0.00200921
-0.000619293
0.00147723
-0.000551649
0.000899829
-0.000427766
0.000206465
-0.000287245
-0.000596836
-0.000186329
-0.00134206
-0.000165293
-0.00189705
-0.000233295
-0.00227035
-0.000382227
-0.00249672
-0.000594053
-0.00261304
-0.000827932
-0.00265338
-0.00100013
-0.00267754
-0.00101911
-0.00282449
-0.000775297
-0.00314848
-0.000503431
-0.00267735
-0.000413589
-0.00180328
-0.000353035
-0.00143543
-0.000298996
-0.00121396
-0.000241111
-0.00106123
-0.000167639
-0.00096177
-8.03354e-05
-0.000908272
2.19389e-05
-0.000883562
0.000144298
-0.000862876
0.000295688
-0.000815627
0.000489096
-0.000703163
0.000731484
-0.000473723
0.0009699
-6.99473e-05
0.00117656
0.000387129
0.00139752
0.000806936
0.00170979
0.00113195
0.00221981
0.00144356
0.00300295
0.00130167
0.00366492
0.000495767
0.00371553
0.00085146
0.00435018
0.00224831
0.0106611
0.00266238
0.00406809
0.00219596
0.00241019
0.00176551
0.00296374
0.00137466
0.00285436
0.00118873
0.00219524
0.00121397
0.00145208
0.00136664
0.000747257
0.00161498
-4.17863e-05
0.00180076
-0.00078252
0.00180293
-0.00134413
0.00165294
-0.00174696
0.00139479
-0.00201208
0.00106138
-0.0021632
0.000678158
-0.00222968
0.000271914
-0.002247
-0.000120673
-0.00228481
-0.000428667
-0.00251636
-0.000415554
-0.00316149
-0.000281851
-0.00281097
-0.000365865
-0.0017192
-0.000458274
-0.00134297
-0.000532542
-0.00113964
-0.000595655
-0.000998068
-0.000648471
-0.0009089
-0.000694456
-0.00086223
-0.000734285
-0.000843676
-0.000762744
-0.000834356
-0.000767692
-0.000810616
-0.000725186
-0.000745604
-0.000590015
-0.000608826
-0.000293112
-0.000366781
6.4981e-05
2.91081e-05
0.000410749
0.000461243
0.000768291
0.000774493
0.00118757
0.00102436
0.00153782
0.000951498
0.00150464
0.000529027
0.000572205
0.00178396
0.00529911
0.0113065
0.0153755
0.0119541
0.00583159
0.00961696
0.005301
0.00779167
0.00467974
0.00657362
0.00341337
0.00584062
0.00218518
0.00542056
0.0011674
0.00503909
0.000339781
0.00458976
-0.000333099
0.00409856
-0.000852826
0.00357441
-0.0012227
0.00302165
-0.00145922
0.0024485
-0.00158993
0.00186425
-0.00164531
0.00127552
-0.00165813
0.000685313
-0.00169446
0.000148337
-0.00197924
-2.81624e-05
-0.00298487
8.01549e-06
-0.00284707
-0.000327947
-0.00138318
-0.000584819
-0.00108604
-0.000776587
-0.000947821
-0.000954467
-0.000820136
-0.00113027
-0.000733045
-0.00131549
-0.000676955
-0.00152187
-0.000637241
-0.00175755
-0.000598623
-0.0020292
-0.000538904
-0.00234375
-0.000430995
-0.00270652
-0.000245992
-0.00312822
5.49854e-05
-0.00358234
0.000483298
-0.00416954
0.0010485
-0.00510427
0.00170929
-0.0064397
0.00235985
-0.0082648
0.00277666
-0.0103562
0.00262044
-0.00950169
0.000929549
-0.00378257
0.00592014
0.00640454
0.00525581
0.00596538
0.00582007
0.00411556
0.00614234
0.00309118
0.00621954
0.00210807
0.00618239
0.00120464
0.00603047
0.000491796
0.00572016
-2.26968e-05
0.00525623
-0.000388796
0.00468857
-0.000654929
0.0040616
-0.000832148
0.00340907
-0.000937278
0.00275024
-0.000986357
0.00208217
-0.000989932
0.00137058
-0.000982733
0.000675931
-0.00128444
0.00035627
-0.00266509
0.000277694
-0.00276842
-0.000485878
-0.000619545
-0.000811993
-0.000759871
-0.00104969
-0.00071007
-0.00128756
-0.000582221
-0.00151715
-0.000503404
-0.00175288
-0.000441182
-0.0020156
-0.000374471
-0.00231462
-0.00029955
-0.00264113
-0.00021234
-0.00296555
-0.000106515
-0.00323046
1.8975e-05
-0.00342462
0.000249211
-0.00357177
0.000630498
-0.00370304
0.00117984
-0.00384507
0.00185138
-0.00394151
0.00245634
-0.00383824
0.00267345
-0.00328507
0.00206732
-0.00178463
-0.000570847
-0.00546345
-0.00061439
0.00706211
0.00182983
0.00352122
0.00323613
0.00270932
0.00426636
0.00206103
0.00502645
0.00134807
0.0054463
0.00078488
0.00556399
0.000374197
0.00544472
9.66727e-05
0.00517248
-0.000116456
0.00478701
-0.000269362
0.00432635
-0.000371384
0.00382156
-0.000432374
0.00329356
-0.000458252
0.00275079
-0.000447037
0.0021772
-0.00040902
0.00153079
-0.000637897
0.000709546
-0.00184373
-0.000129657
-0.00192916
-0.000908982
0.00015983
-0.00122201
-0.000446792
-0.00149656
-0.000435473
-0.00174159
-0.000337143
-0.00194923
-0.000295715
-0.00212566
-0.000264706
-0.00227922
-0.000220861
-0.00241593
-0.0001628
-0.00253788
-9.03374e-05
-0.00264481
4.65192e-07
-0.00271831
9.25312e-05
-0.00268931
0.000220264
-0.00250842
0.000449666
-0.00213628
0.000807752
-0.00159689
0.00131205
-0.000896177
0.00175568
0.000222784
0.00155454
0.00151693
0.000773221
0.00167026
-0.000724135
-0.00367967
-0.0102396
-0.0128767
-0.00577332
-0.00222334
0.000511678
0.00259747
0.00397065
0.00478146
0.00518265
0.00530754
0.00522053
0.00498182
0.00464233
0.00424311
0.00381934
0.00340813
0.00303624
0.00243681
0.000633051
-0.00125776
-0.00106222
-0.00147277
-0.0018721
-0.00217325
-0.00243303
-0.00266182
-0.00284678
-0.00297376
-0.00302848
-0.00299284
-0.00286593
-0.00261228
-0.00213043
-0.00129182
4.96925e-05
0.00183297
0.00341447
0.00421503
0.0035197
)
;

boundaryField
{
    floor
    {
        type            calculated;
        value           nonuniform List<scalar> 
29
(
0
0
0
0
0
0
0
0
0
0
0
0
0
0
0
0
0
0
0
0
-7.45018e-06
-1.83599e-05
-2.69824e-05
-3.51465e-05
-3.66073e-06
-4.26179e-06
-1.12141e-05
-1.66442e-05
-1.78053e-05
)
;
    }
    ceiling
    {
        type            calculated;
        value           nonuniform List<scalar> 
43
(
-4.35586e-05
-4.24056e-05
-4.11918e-05
-2.86996e-05
-2.56178e-05
-2.46755e-05
-2.50326e-05
-2.58388e-05
-2.69014e-05
-2.81195e-05
-2.93486e-05
-3.05532e-05
-3.17818e-05
-3.30551e-05
-3.43725e-05
-3.57068e-05
-3.70178e-05
-3.83499e-05
-3.98522e-05
-3.83326e-05
-3.56676e-05
-3.61917e-05
-3.61001e-05
-3.59586e-05
-3.58919e-05
-3.58728e-05
-3.58542e-05
-3.57782e-05
-3.55674e-05
-3.51256e-05
-3.43315e-05
-3.33372e-05
-3.2135e-05
-3.08069e-05
-2.94178e-05
-2.75456e-05
-2.69159e-05
-2.72879e-05
-2.87595e-05
-3.00023e-05
1.3993e-06
-7.3314e-07
-4.31607e-05
)
;
    }
    sWall
    {
        type            calculated;
        value           uniform -0.000241166;
    }
    nWall
    {
        type            calculated;
        value           nonuniform List<scalar> 6(-6.66681e-05 -7.84747e-05 -8.04277e-05 -0.000103708 -0.000113483 -0.000129923);
    }
    sideWalls
    {
        type            empty;
        value           nonuniform 0();
    }
    glass1
    {
        type            calculated;
        value           nonuniform List<scalar> 9(-7.20733e-05 -0.000190262 -0.000284786 -0.000361012 -0.000423911 -0.000477232 -0.000523179 -0.000580766 -0.000646736);
    }
    glass2
    {
        type            calculated;
        value           nonuniform List<scalar> 2(-0.000376666 -0.000419953);
    }
    sun
    {
        type            calculated;
        value           uniform 0;
    }
    heatsource1
    {
        type            calculated;
        value           nonuniform List<scalar> 3(2.07222e-07 2.0704e-07 2.07054e-07);
    }
    heatsource2
    {
        type            calculated;
        value           nonuniform List<scalar> 4(5.15615e-08 5.18038e-08 0 0);
    }
    Table_master
    {
        type            calculated;
        value           nonuniform List<scalar> 9(-1.55401e-07 -1.55488e-07 -1.55507e-07 -1.55522e-07 -1.55536e-07 -1.55549e-07 -1.55561e-07 -1.55569e-07 -1.55554e-07);
    }
    Table_slave
    {
        type            calculated;
        value           nonuniform List<scalar> 9(1.55424e-07 1.5537e-07 1.55275e-07 1.55189e-07 1.55122e-07 1.55089e-07 1.55105e-07 1.55127e-07 1.55216e-07);
    }
    inlet
    {
        type            calculated;
        value           uniform -0.00649306;
    }
    outlet
    {
        type            calculated;
        value           nonuniform List<scalar> 2(0.0105243 0.00267958);
    }
}


// ************************************************************************* //
