/*--------------------------------*- C++ -*----------------------------------*\
  =========                 |
  \\      /  F ield         | OpenFOAM: The Open Source CFD Toolbox
   \\    /   O peration     | Website:  https://openfoam.org
    \\  /    A nd           | Version:  6
     \\/     M anipulation  |
\*---------------------------------------------------------------------------*/
FoamFile
{
    version     2.0;
    format      ascii;
    class       volScalarField;
    location    "700";
    object      alphat;
}
// * * * * * * * * * * * * * * * * * * * * * * * * * * * * * * * * * * * * * //

dimensions      [1 -1 -1 0 0 0 0];

internalField   nonuniform List<scalar> 
459
(
0.00129443
0.00141774
0.00144887
0.00152017
0.00158727
0.00165206
0.0017189
0.00177339
0.00180506
0.00180605
0.00177068
0.00169493
0.00157155
0.00137376
0.0010816
0.000567698
0.00067259
0.000768288
0.000797709
0.000785031
0.000757268
0.000709713
0.000659867
0.000614569
0.000574693
0.000539709
0.000508936
0.000481737
0.000457588
0.000435573
0.00041461
0.000393266
0.000378709
0.000345891
0.00174609
0.00427717
0.00409841
0.00476017
0.00541811
0.00605214
0.00653802
0.0069647
0.00733779
0.00761859
0.00777179
0.00776999
0.00757511
0.00708106
0.00578076
0.00132929
0.000931486
0.000574447
0.00132539
0.00194002
0.00243599
0.00274431
0.0027442
0.00205514
0.00173048
0.00150987
0.00134568
0.00121826
0.00111635
0.00103182
0.000953371
0.000876304
0.000806511
0.00074708
0.000882094
0.00044582
0.00211725
0.00579379
0.00503123
0.00613368
0.00664854
0.00703156
0.00733213
0.00764597
0.00799364
0.00834907
0.00866389
0.00889381
0.00897471
0.00879365
0.00808452
0.00598463
0.00138101
0.000992589
0.00159224
0.00224523
0.00292597
0.00343898
0.00336644
0.000998338
0.000873529
0.000773249
0.000692824
0.000627831
0.000574773
0.0005311
0.000495331
0.00046703
0.000511729
0.000601391
0.00101585
0.000517132
0.00246974
0.00731922
0.00502062
0.00636864
0.00668499
0.00679112
0.00693101
0.00716212
0.00748984
0.00789704
0.0083138
0.00867838
0.00890054
0.00893573
0.00872017
0.00785395
0.00473327
0.00159059
0.00193132
0.00258349
0.00338969
0.00415918
0.00469027
0.00441591
0.00113514
0.00103148
0.000957069
0.000899527
0.000849646
0.000803971
0.000759561
0.00071275
0.000658683
0.000612234
0.000632686
0.00120083
0.000571869
0.00282695
0.00928672
0.00542798
0.00618268
0.00656475
0.00653479
0.0065725
0.00676233
0.00706996
0.00750447
0.00795888
0.00833518
0.0085532
0.00859442
0.00848754
0.00818218
0.00735752
0.00643217
0.00619793
0.00630636
0.00653358
0.00672811
0.00678538
0.00652407
0.00538956
0.00482923
0.00449224
0.00423048
0.00396537
0.0036023
0.00314072
0.00260495
0.00203357
0.00149701
0.00111656
0.00118333
0.00078107
0.000702904
0.000844408
0.000950594
0.00320609
0.011453
0.0073381
0.00620751
0.00664013
0.00659422
0.00658764
0.00669169
0.0069433
0.00735381
0.00782747
0.00821581
0.0084039
0.00837368
0.00822092
0.00809016
0.00805303
0.00813557
0.00832336
0.0084711
0.00849619
0.00838808
0.0081516
0.00776826
0.00718408
0.00665901
0.00620645
0.0057907
0.00538487
0.00495493
0.00444423
0.00383979
0.00315055
0.00243217
0.00183414
0.00139831
0.00109284
0.000946167
0.00134568
0.000999322
0.00355563
0.0129788
0.0102607
0.00784895
0.00753696
0.00720607
0.00689063
0.00680868
0.00701474
0.00745154
0.00796615
0.00836629
0.00851663
0.0084149
0.00822779
0.00823232
0.00859285
0.00911092
0.00946716
0.00954229
0.00936793
0.0090161
0.0085392
0.00796587
0.00732724
0.00672014
0.00617316
0.00568194
0.00524608
0.00487208
0.00455746
0.00415976
0.00363529
0.00301521
0.00244475
0.00195634
0.00162192
0.00156335
0.00162621
0.00117916
0.00362495
0.011562
0.0101601
0.00919415
0.00830186
0.00739198
0.00687161
0.00683148
0.00719542
0.0077924
0.00839251
0.0087718
0.00882174
0.00861469
0.00844312
0.00868042
0.00930574
0.00975132
0.00982998
0.00960658
0.0091514
0.00853174
0.00780391
0.00703085
0.0062916
0.00565181
0.00512462
0.00470449
0.00438915
0.00417787
0.0040658
0.00401077
0.00380478
0.00344635
0.00316033
0.00307134
0.00331711
0.00390868
0.00467658
0.00178134
0.00353104
0.00420384
0.00472006
0.00481426
0.00490561
0.00522646
0.00583954
0.00671671
0.00771563
0.00862076
0.0092118
0.00933143
0.00904016
0.00867393
0.00875876
0.00906214
0.00929981
0.00929314
0.00900792
0.0084891
0.00779281
0.00697435
0.00611466
0.00531439
0.0046511
0.00414515
0.00377221
0.0034998
0.00329982
0.00314805
0.00302447
0.0029206
0.00284528
0.00279532
0.0027825
0.00278997
0.00274642
0.00259849
0.00240505
0.00165041
0.0020449
0.00371705
0.00581982
0.00748587
0.0087701
0.00972639
0.0102576
0.0103379
0.0099906
0.00930009
0.00854934
0.00813789
0.00813656
0.00817387
0.00802107
0.0076407
0.00705809
0.00632709
0.00552691
0.00475442
0.0040893
0.00357165
0.00320233
0.00295577
0.00279758
0.00270149
0.00264965
0.00263089
0.00264195
0.00267861
0.00272596
0.00277747
0.00282033
0.00282334
0.00274241
0.00257729
0.00231974
0.00135901
0.0024648
0.00566257
0.00811029
0.00920386
0.00987775
0.00987122
0.00933827
0.00851891
0.00765683
0.00695346
0.00646205
0.00618157
0.00598423
0.00572052
0.00535036
0.00488063
0.00434122
0.00379165
0.00330179
0.00291788
0.0026473
0.00247175
0.00236392
0.00230083
0.00227669
0.002288
0.00232745
0.00238698
0.00247109
0.00257608
0.00269706
0.00282265
0.0029305
0.00300908
0.00297692
0.00299385
0.00291881
0.00138194
0.00229085
0.00227944
0.00231914
0.00239809
0.00219093
0.00205208
0.00197414
0.00186842
0.0017231
0.00155787
0.00139196
0.00124059
0.00111604
0.00102257
0.000952612
0.000896527
0.000848
0.000804316
0.000765817
0.000734566
0.000712458
0.000700109
0.000697028
0.000702445
0.000715832
0.000737022
0.000765231
0.000799935
0.000841732
0.000892012
0.000949539
0.00101426
0.00108668
0.00116715
0.00125432
0.00136624
0.00138577
0.0013414
0.00125868
0.00116412
)
;

boundaryField
{
    floor
    {
        type            compressible::alphatWallFunction;
        Prt             0.85;
        value           nonuniform List<scalar> 
29
(
0.000153703
7.95211e-05
9.51623e-05
0.000109175
0.000113442
0.000111607
0.000107576
0.000100629
9.32855e-05
8.65536e-05
8.05771e-05
7.52915e-05
7.06069e-05
6.64367e-05
6.27094e-05
5.92898e-05
5.6013e-05
5.26549e-05
5.03509e-05
4.51145e-05
4.51139e-05
6.08827e-05
7.18556e-05
8.01494e-05
0.000153701
7.95201e-05
8.05354e-05
0.00014124
0.00022312
)
;
    }
    ceiling
    {
        type            compressible::alphatWallFunction;
        Prt             0.85;
        value           nonuniform List<scalar> 
43
(
0.000314741
0.000313157
0.000318245
0.000328475
0.000301943
0.000283995
0.00027386
0.000260034
0.000240882
0.000218886
0.000196534
0.00017588
0.00015867
0.000145611
0.000135745
0.000127774
0.000120829
0.000114537
0.000108956
0.000104402
0.000101165
9.93503e-05
9.88959e-05
9.96904e-05
0.000101653
0.000104752
0.000108861
0.000113892
0.000119917
0.000127119
0.0001353
0.000144436
0.000154577
0.000165756
0.000177767
0.000193049
0.000195701
0.000189669
0.000178365
0.000165341
0.000470371
0.000552164
0.000336707
)
;
    }
    sWall
    {
        type            compressible::alphatWallFunction;
        Prt             0.85;
        value           uniform 0.000313573;
    }
    nWall
    {
        type            compressible::alphatWallFunction;
        Prt             0.85;
        value           nonuniform List<scalar> 6(0.000135118 0.000141995 0.000167067 0.000191736 0.00019485 0.000165013);
    }
    sideWalls
    {
        type            empty;
    }
    glass1
    {
        type            compressible::alphatWallFunction;
        Prt             0.85;
        value           nonuniform List<scalar> 9(0.000178634 0.000238495 0.000286531 0.000331401 0.000376244 0.00042324 0.000466103 0.000474684 0.00046347);
    }
    glass2
    {
        type            compressible::alphatWallFunction;
        Prt             0.85;
        value           nonuniform List<scalar> 2(0.000246769 0.000229571);
    }
    sun
    {
        type            compressible::alphatWallFunction;
        Prt             0.85;
        value           nonuniform List<scalar> 
14
(
0.000183136
0.000199892
0.000204098
0.000213698
0.000222685
0.000231324
0.000240196
0.000247402
0.000251577
0.000251705
0.00024704
0.000237014
0.000220576
0.000193916
)
;
    }
    heatsource1
    {
        type            compressible::alphatWallFunction;
        Prt             0.85;
        value           nonuniform List<scalar> 3(9.97434e-05 0.000120292 0.00013544);
    }
    heatsource2
    {
        type            compressible::alphatWallFunction;
        Prt             0.85;
        value           nonuniform List<scalar> 4(0.000188017 0.000132739 0.000132737 0.000195043);
    }
    Table_master
    {
        type            compressible::alphatWallFunction;
        Prt             0.85;
        value           nonuniform List<scalar> 9(0.000142189 0.00012447 0.000110017 9.82629e-05 8.86434e-05 8.06997e-05 7.40929e-05 6.86312e-05 6.42747e-05);
    }
    Table_slave
    {
        type            compressible::alphatWallFunction;
        Prt             0.85;
        value           nonuniform List<scalar> 9(0.000161318 0.000146851 0.000136363 0.000128186 0.000121048 0.000114469 0.000108029 0.000101191 9.32247e-05);
    }
    inlet
    {
        type            fixedValue;
        value           uniform 1.94e-05;
    }
    outlet
    {
        type            zeroGradient;
    }
}


// ************************************************************************* //
