// -*- C++ -*-
// File generated by PyFoam - sorry for the ugliness

FoamFile
{
 version 2.0;
 format ascii;
 class volVectorField;
 location "700";
 object U;
}

dimensions [ 0 1 -1 0 0 0 0 ];

internalField nonuniform List<vector> 459
(
  (0.088525 0.0608642 0)
  (-0.125921 -9.20633e-05 0)
  (-0.101988 -0.00102686 0)
  (-0.102842 -0.000601519 0)
  (-0.103142 -0.00110281 0)
  (-0.102556 -0.00184125 0)
  (-0.100962 -0.0026879 0)
  (-0.0982759 -0.00369643 0)
  (-0.0943141 -0.00494176 0)
  (-0.088777 -0.00650573 0)
  (-0.0810878 -0.00849019 0)
  (-0.0702448 -0.0110948 0)
  (-0.0555575 -0.0148081 0)
  (-0.0399775 -0.0203197 0)
  (-0.0362568 -0.0263202 0)
  (0.0489939 -8.26288e-05 0)
  (0.00153642 -0.011268 0)
  (0.0201359 -0.0105626 0)
  (0.0313942 -0.00718726 0)
  (0.0362963 -0.00416085 0)
  (0.038455 -0.00313812 0)
  (0.0412105 -0.00434679 0)
  (0.0464992 -0.00470918 0)
  (0.0522495 -0.00440673 0)
  (0.0567027 -0.00380814 0)
  (0.0595626 -0.00305713 0)
  (0.0609439 -0.00221028 0)
  (0.0601036 -0.00103678 0)
  (0.0567214 0.00065167 0)
  (0.050138 0.00337426 0)
  (0.0382939 0.00864825 0)
  (0.0211252 0.0150084 0)
  (-0.00353802 0.00462714 0)
  (-0.0436767 -0.0053778 0)
  (0.272161 0.133063 0)
  (-0.144901 0.0125558 0)
  (-0.087695 0.00210102 0)
  (-0.0931786 0.00176099 0)
  (-0.0951108 0.000514004 0)
  (-0.0957455 -0.000977212 0)
  (-0.0952997 -0.00253075 0)
  (-0.0939877 -0.00426004 0)
  (-0.091777 -0.00633451 0)
  (-0.0884899 -0.00892683 0)
  (-0.0837434 -0.0122143 0)
  (-0.0769191 -0.016442 0)
  (-0.0674625 -0.022105 0)
  (-0.0556873 -0.0298643 0)
  (-0.043305 -0.0389602 0)
  (-0.0322887 -0.0455569 0)
  (0.0252152 0.00776541 0)
  (0.0822419 -0.0164693 0)
  (0.0235048 -0.0112425 0)
  (0.0125486 -0.00872716 0)
  (0.0141361 -0.00542192 0)
  (0.0146402 -0.00226674 0)
  (0.016972 0.000199161 0)
  (0.0153978 -0.00564418 0)
  (0.0152931 -0.00565636 0)
  (0.0164703 -0.00394902 0)
  (0.0166056 -0.00205629 0)
  (0.0161113 0.000175532 0)
  (0.0144935 0.00273256 0)
  (0.0119827 0.00533905 0)
  (0.0100603 0.00794053 0)
  (0.00943926 0.0115578 0)
  (0.00898501 0.0195839 0)
  (0.00862218 0.0241732 0)
  (0.00905435 0.0154541 0)
  (-0.0311113 -0.00236223 0)
  (0.418736 0.201002 0)
  (-0.180754 0.0340257 0)
  (-0.0688456 0.00878039 0)
  (-0.0801583 0.00486131 0)
  (-0.0841637 0.00183035 0)
  (-0.0857308 -0.000875527 0)
  (-0.0862014 -0.00328312 0)
  (-0.0860761 -0.00570634 0)
  (-0.0855913 -0.0084781 0)
  (-0.0847976 -0.0119104 0)
  (-0.0835837 -0.0163094 0)
  (-0.0817206 -0.0219747 0)
  (-0.0790158 -0.0291601 0)
  (-0.0754853 -0.0376991 0)
  (-0.0716403 -0.0459934 0)
  (-0.0702307 -0.0506282 0)
  (-0.0786086 -0.0488195 0)
  (0.0117986 -0.0111197 0)
  (-0.0377964 -0.00416358 0)
  (-0.0386288 -0.00251829 0)
  (-0.0376124 -0.00484297 0)
  (-0.0345269 -0.00722539 0)
  (-0.0300428 -0.00981254 0)
  (-0.0114795 -0.00909956 0)
  (-0.0271303 -0.0106232 0)
  (-0.0333126 -0.00980235 0)
  (-0.0377379 -0.00849375 0)
  (-0.040317 -0.00644277 0)
  (-0.0398765 -0.00378669 0)
  (-0.0362872 -0.000760024 0)
  (-0.0301923 0.00270977 0)
  (-0.0210551 0.00732362 0)
  (-0.0126847 0.0164476 0)
  (-0.00400103 0.0202987 0)
  (0.00478752 0.0143711 0)
  (0.0148031 0.00575357 0)
  (0.531504 0.254618 0)
  (-0.210727 0.0581173 0)
  (-0.0485568 0.0172886 0)
  (-0.0625465 0.00983731 0)
  (-0.0701067 0.00456448 0)
  (-0.0726386 0.000481085 0)
  (-0.0737141 -0.00266984 0)
  (-0.0741961 -0.00535815 0)
  (-0.0747691 -0.00806818 0)
  (-0.0758284 -0.0112906 0)
  (-0.0775971 -0.0154575 0)
  (-0.0802123 -0.020872 0)
  (-0.0838447 -0.0275605 0)
  (-0.0888371 -0.0349664 0)
  (-0.0962933 -0.0415826 0)
  (-0.10897 -0.0446812 0)
  (-0.125767 -0.0387833 0)
  (-0.124726 -0.0145382 0)
  (-0.107561 -0.00440265 0)
  (-0.102727 -0.00328122 0)
  (-0.098576 -0.00507766 0)
  (-0.0969343 -0.00723232 0)
  (-0.0975275 -0.00939719 0)
  (-0.0997457 -0.0105836 0)
  (-0.0984151 -0.00676437 0)
  (-0.091937 -0.00560569 0)
  (-0.0862601 -0.00554167 0)
  (-0.0807512 -0.0055621 0)
  (-0.0751999 -0.00560552 0)
  (-0.0695242 -0.00564058 0)
  (-0.063882 -0.00556545 0)
  (-0.0584907 -0.00493138 0)
  (-0.0516497 -0.00261115 0)
  (-0.0392637 0.00253784 0)
  (-0.0273708 0.00355421 0)
  (-0.0137613 0.00242349 0)
  (0.0567071 0.0010998 0)
  (0.617595 0.295448 0)
  (-0.23069 0.08172 0)
  (-0.0293658 0.0247137 0)
  (-0.0361937 0.0154251 0)
  (-0.0481071 0.00908599 0)
  (-0.0539206 0.00294925 0)
  (-0.0565101 -0.00159062 0)
  (-0.0574564 -0.00463501 0)
  (-0.0582315 -0.0068404 0)
  (-0.0597652 -0.00904681 0)
  (-0.062553 -0.0119179 0)
  (-0.0668543 -0.015852 0)
  (-0.0727709 -0.0208732 0)
  (-0.0803272 -0.0265015 0)
  (-0.0897209 -0.0317001 0)
  (-0.101069 -0.0345751 0)
  (-0.111629 -0.0314916 0)
  (-0.115516 -0.0198034 0)
  (-0.113245 -0.0125053 0)
  (-0.10983 -0.0088336 0)
  (-0.106561 -0.00792846 0)
  (-0.1043 -0.00841377 0)
  (-0.103049 -0.00936937 0)
  (-0.102182 -0.00960554 0)
  (-0.100064 -0.00811057 0)
  (-0.096488 -0.007672 0)
  (-0.09261 -0.00753059 0)
  (-0.0886161 -0.00754144 0)
  (-0.0844924 -0.00767033 0)
  (-0.0802542 -0.00797997 0)
  (-0.0760327 -0.00856343 0)
  (-0.0719974 -0.00930839 0)
  (-0.0678551 -0.00955903 0)
  (-0.0627551 -0.00849847 0)
  (-0.0577093 -0.00758787 0)
  (-0.0532214 -0.00723222 0)
  (-0.044963 -0.00705718 0)
  (-0.0278577 -0.0119345 0)
  (0.00118376 -0.010554 0)
  (-0.142384 -0.000335698 0)
  (0.6733 0.328567 0)
  (-0.246187 0.096687 0)
  (-0.0116198 0.021606 0)
  (0.000812655 0.0181346 0)
  (-0.0105747 0.0187641 0)
  (-0.0233969 0.00969903 0)
  (-0.0309834 0.00121409 0)
  (-0.0346646 -0.00349368 0)
  (-0.036168 -0.00564409 0)
  (-0.037795 -0.00683112 0)
  (-0.0404708 -0.00819076 0)
  (-0.0447155 -0.0103771 0)
  (-0.050743 -0.0136405 0)
  (-0.0585162 -0.0177109 0)
  (-0.0678516 -0.021744 0)
  (-0.0781083 -0.0241265 0)
  (-0.0872057 -0.0227191 0)
  (-0.0926158 -0.0176181 0)
  (-0.0943171 -0.0134174 0)
  (-0.093973 -0.0108468 0)
  (-0.0929525 -0.00992169 0)
  (-0.092007 -0.0100852 0)
  (-0.0913479 -0.0107313 0)
  (-0.0907212 -0.011098 0)
  (-0.0895517 -0.0108485 0)
  (-0.087731 -0.0108157 0)
  (-0.0855506 -0.0109404 0)
  (-0.0831318 -0.0111277 0)
  (-0.0805226 -0.0113449 0)
  (-0.0777918 -0.0116026 0)
  (-0.0750787 -0.0119043 0)
  (-0.0725294 -0.0121308 0)
  (-0.070064 -0.0119904 0)
  (-0.0673782 -0.0113751 0)
  (-0.0646763 -0.0107987 0)
  (-0.0622826 -0.0106706 0)
  (-0.0577573 -0.0112901 0)
  (-0.0453234 -0.0147326 0)
  (-0.0335823 -0.0209291 0)
  (-0.102329 -0.0332641 0)
  (0.688759 0.357671 0)
  (-0.25018 0.072752 0)
  (0.0245208 -0.0354991 0)
  (0.0524109 0.00592046 0)
  (0.0414974 0.0292094 0)
  (0.0214184 0.0232053 0)
  (0.00778122 0.0095143 0)
  (-0.000824118 0.000385551 0)
  (-0.00685783 -0.00357955 0)
  (-0.0100421 -0.00480238 0)
  (-0.0129056 -0.00513482 0)
  (-0.0165231 -0.00575162 0)
  (-0.0215349 -0.00730338 0)
  (-0.0281362 -0.00984508 0)
  (-0.0361591 -0.0128312 0)
  (-0.0449365 -0.0150633 0)
  (-0.0529937 -0.0152531 0)
  (-0.0588902 -0.0135991 0)
  (-0.0623788 -0.0118051 0)
  (-0.064204 -0.0105997 0)
  (-0.0651574 -0.0101945 0)
  (-0.0657874 -0.0104344 0)
  (-0.0663442 -0.0110178 0)
  (-0.0667885 -0.0115571 0)
  (-0.066914 -0.0119123 0)
  (-0.0666619 -0.012298 0)
  (-0.0661187 -0.012725 0)
  (-0.0653286 -0.0131643 0)
  (-0.0643139 -0.0135946 0)
  (-0.0631091 -0.0140017 0)
  (-0.0617768 -0.0143482 0)
  (-0.0603636 -0.0145226 0)
  (-0.0587924 -0.0143704 0)
  (-0.0569018 -0.0139338 0)
  (-0.0548324 -0.0136446 0)
  (-0.0529558 -0.013989 0)
  (-0.0498183 -0.0157906 0)
  (-0.0404219 -0.0222833 0)
  (-0.0320267 -0.0402202 0)
  (-0.098454 -0.0756653 0)
  (0.775847 0.364701 0)
  (-0.0384786 0.0323942 0)
  (0.0969354 -0.0862615 0)
  (0.147106 -0.0108929 0)
  (0.10846 0.0364195 0)
  (0.0673764 0.0357196 0)
  (0.0490851 0.0212803 0)
  (0.0403082 0.00972243 0)
  (0.0327221 0.00277616 0)
  (0.0258819 -0.000662504 0)
  (0.0209945 -0.00169852 0)
  (0.0171505 -0.00188197 0)
  (0.0131747 -0.00234038 0)
  (0.00838072 -0.00354805 0)
  (0.00248688 -0.00545061 0)
  (-0.00437383 -0.0074523 0)
  (-0.01097 -0.00859202 0)
  (-0.0164823 -0.00877784 0)
  (-0.0205749 -0.00862194 0)
  (-0.023517 -0.00853179 0)
  (-0.0257112 -0.00871427 0)
  (-0.0275064 -0.00918373 0)
  (-0.0291141 -0.00983334 0)
  (-0.0306017 -0.0104845 0)
  (-0.0319216 -0.0110762 0)
  (-0.0330452 -0.0116727 0)
  (-0.0339907 -0.0122818 0)
  (-0.0347563 -0.012892 0)
  (-0.0353262 -0.0134874 0)
  (-0.0356814 -0.0140476 0)
  (-0.0357987 -0.014532 0)
  (-0.0356205 -0.0148596 0)
  (-0.0350047 -0.0149415 0)
  (-0.0337571 -0.0148157 0)
  (-0.0318571 -0.0147258 0)
  (-0.0295312 -0.0148839 0)
  (-0.0261216 -0.0156536 0)
  (-0.0184957 -0.0204367 0)
  (-0.0126503 -0.0416394 0)
  (-0.102814 -0.0946315 0)
  (0.897035 0.343988 0)
  (0.415458 0.163278 0)
  (0.173597 0.0703574 0)
  (0.237854 0.104818 0)
  (0.149941 0.106566 0)
  (0.0854008 0.0767299 0)
  (0.0702966 0.0462621 0)
  (0.0685037 0.0262731 0)
  (0.0654671 0.0149372 0)
  (0.0616553 0.0087429 0)
  (0.058534 0.00564885 0)
  (0.0560318 0.00437385 0)
  (0.0535821 0.00381009 0)
  (0.0506746 0.00319873 0)
  (0.0470172 0.00218933 0)
  (0.0425516 0.000787084 0)
  (0.0378152 -0.000596062 0)
  (0.03337 -0.00163644 0)
  (0.0294756 -0.00238078 0)
  (0.0261592 -0.00296362 0)
  (0.0233178 -0.0035217 0)
  (0.0207873 -0.00412531 0)
  (0.0184336 -0.00477651 0)
  (0.016133 -0.00540423 0)
  (0.0138486 -0.00601526 0)
  (0.0115936 -0.0066456 0)
  (0.00938101 -0.00730348 0)
  (0.00723363 -0.00798667 0)
  (0.00518502 -0.0086908 0)
  (0.00327925 -0.00941058 0)
  (0.00157889 -0.0101361 0)
  (0.000186391 -0.010849 0)
  (-0.000721862 -0.0115428 0)
  (-0.000911651 -0.0122935 0)
  (-0.00020421 -0.0133085 0)
  (0.00147198 -0.0147053 0)
  (0.00449837 -0.0164115 0)
  (0.00977202 -0.0205059 0)
  (0.0152817 -0.0389136 0)
  (-0.0494034 -0.0932064 0)
  (-1.56273 0.0720429 0)
  (0.0224602 0.129952 0)
  (0.00359402 0.0932594 0)
  (0.0172722 0.0573967 0)
  (0.0516431 0.0352827 0)
  (0.0753436 0.0237455 0)
  (0.0860498 0.0194603 0)
  (0.0907855 0.019091 0)
  (0.0936057 0.0203032 0)
  (0.0954653 0.0216761 0)
  (0.096412 0.0224064 0)
  (0.096491 0.0222454 0)
  (0.0957306 0.0212377 0)
  (0.0941226 0.0195636 0)
  (0.0916642 0.017479 0)
  (0.0886012 0.0152785 0)
  (0.0853054 0.0131468 0)
  (0.0820375 0.0110285 0)
  (0.0789172 0.00888591 0)
  (0.0758666 0.00687866 0)
  (0.0728559 0.00502694 0)
  (0.0697997 0.00339511 0)
  (0.0666603 0.00185863 0)
  (0.0634531 0.000334418 0)
  (0.0601915 -0.00121717 0)
  (0.0568853 -0.00282424 0)
  (0.0535501 -0.00451633 0)
  (0.0502133 -0.00633128 0)
  (0.046921 -0.00832094 0)
  (0.0437519 -0.0105593 0)
  (0.0408307 -0.0131604 0)
  (0.0383221 -0.0163076 0)
  (0.0363912 -0.0202527 0)
  (0.0351819 -0.02519 0)
  (0.034856 -0.0311925 0)
  (0.0349125 -0.0393549 0)
  (0.0340001 -0.0561555 0)
  (0.0109724 -0.100179 0)
  (-0.673718 0.102127 0)
  (0.227757 0.0358958 0)
  (0.0935406 -0.0169844 0)
  (0.0805711 -0.0419831 0)
  (0.106992 -0.0621251 0)
  (0.129749 -0.0799283 0)
  (0.141269 -0.0958098 0)
  (0.145789 -0.109206 0)
  (0.146879 -0.118289 0)
  (0.146306 -0.121701 0)
  (0.145003 -0.121136 0)
  (0.143576 -0.118296 0)
  (0.142244 -0.1145 0)
  (0.140966 -0.110553 0)
  (0.1396 -0.10688 0)
  (0.138027 -0.103678 0)
  (0.136212 -0.101037 0)
  (0.134098 -0.0988698 0)
  (0.131587 -0.0970451 0)
  (0.128692 -0.0956168 0)
  (0.125452 -0.0945431 0)
  (0.122023 -0.0932836 0)
  (0.11844 -0.0921042 0)
  (0.114729 -0.0911472 0)
  (0.110862 -0.090455 0)
  (0.106799 -0.0900237 0)
  (0.102506 -0.0898295 0)
  (0.0979625 -0.0898433 0)
  (0.0931591 -0.0900384 0)
  (0.0880984 -0.0903931 0)
  (0.0827911 -0.0908907 0)
  (0.0772457 -0.0915154 0)
  (0.0714611 -0.0922421 0)
  (0.0654668 -0.0930079 0)
  (0.0594417 -0.0936957 0)
  (0.0532998 -0.0945016 0)
  (0.0516661 -0.0990387 0)
  (0.0239528 -0.140005 0)
  (-0.258987 0.148962 0)
  (0.229633 -0.0127611 0)
  (0.0113845 0.187948 0)
  (0.274361 0.160151 0)
  (0.274607 0.171622 0)
  (0.240899 0.201903 0)
  (0.227069 0.234491 0)
  (0.22209 0.267539 0)
  (0.216834 0.299509 0)
  (0.211042 0.327137 0)
  (0.206481 0.34659 0)
  (0.203787 0.355477 0)
  (0.202788 0.356086 0)
  (0.20285 0.351335 0)
  (0.2034 0.34375 0)
  (0.204033 0.335064 0)
  (0.204475 0.326325 0)
  (0.204543 0.318106 0)
  (0.204124 0.310714 0)
  (0.203146 0.304214 0)
  (0.201594 0.298576 0)
  (0.199482 0.293866 0)
  (0.196828 0.29006 0)
  (0.193583 0.286335 0)
  (0.189871 0.282976 0)
  (0.185708 0.280182 0)
  (0.181065 0.278018 0)
  (0.175912 0.276468 0)
  (0.170214 0.275475 0)
  (0.163915 0.274968 0)
  (0.156931 0.274875 0)
  (0.14913 0.275128 0)
  (0.140326 0.275663 0)
  (0.130244 0.276408 0)
  (0.118496 0.277279 0)
  (0.104533 0.278202 0)
  (0.0875993 0.279143 0)
  (0.0667094 0.280648 0)
  (0.045086 0.290769 0)
  (-0.0170971 0.394017 0)
)
;

boundaryField
{
  floor
  {
    type noSlip;
  }
  ceiling
  {
    type noSlip;
  }
  sWall
  {
    type noSlip;
  }
  nWall
  {
    type noSlip;
  }
  sideWalls
  {
    type empty;
  }
  glass1
  {
    type noSlip;
  }
  glass2
  {
    type noSlip;
  }
  sun
  {
    type noSlip;
  }
  heatsource1
  {
    type noSlip;
  }
  heatsource2
  {
    type noSlip;
  }
  Table_master
  {
    type noSlip;
  }
  Table_slave
  {
    type noSlip;
  }
  inlet
  {
    type fixedValue;
    value uniform (0.3 0 0);
  }
  outlet
  {
    type zeroGradient;
  }
} 	// ************************************************************************* //

