/*--------------------------------*- C++ -*----------------------------------*\
  =========                 |
  \\      /  F ield         | OpenFOAM: The Open Source CFD Toolbox
   \\    /   O peration     | Website:  https://openfoam.org
    \\  /    A nd           | Version:  6
     \\/     M anipulation  |
\*---------------------------------------------------------------------------*/
FoamFile
{
    version     2.0;
    format      ascii;
    class       volScalarField;
    location    "1300";
    object      alphat;
}
// * * * * * * * * * * * * * * * * * * * * * * * * * * * * * * * * * * * * * //

dimensions      [1 -1 -1 0 0 0 0];

internalField   nonuniform List<scalar> 
459
(
0.00123606
0.00134877
0.00137442
0.00144005
0.00150087
0.00155826
0.00161532
0.00166977
0.00170802
0.00172276
0.00170701
0.0016558
0.00156678
0.0014424
0.00129631
0.000539504
0.000644124
0.000728049
0.000735451
0.000714761
0.000684702
0.000642675
0.000599765
0.000560718
0.000526137
0.000495596
0.000468536
0.000444499
0.000423014
0.000403296
0.000384367
0.000364882
0.000352758
0.000322915
0.0016822
0.00399185
0.00377936
0.00438435
0.00497709
0.00557146
0.00608776
0.00649002
0.0068637
0.00717438
0.00737956
0.00743566
0.00729019
0.00681871
0.00549672
0.00131992
0.000821317
0.000562442
0.00118588
0.00166376
0.00202641
0.00224171
0.00225372
0.00178
0.00152884
0.00135088
0.00121513
0.0011079
0.00102103
0.00094734
0.000878679
0.000812116
0.000753046
0.0007011
0.000832736
0.000429444
0.00205294
0.00541346
0.00460844
0.00574117
0.00626124
0.00663964
0.00693564
0.00719692
0.00749995
0.00782823
0.00814319
0.0083864
0.008505
0.00841063
0.00784629
0.00602064
0.00136075
0.00105679
0.00154182
0.00201273
0.00247093
0.00281261
0.00278018
0.000913707
0.000808144
0.000722376
0.000652746
0.000595835
0.000548907
0.000509931
0.000477596
0.000451331
0.000487479
0.000562673
0.00094119
0.000501631
0.00240904
0.00692507
0.00454832
0.00599477
0.00638768
0.00648305
0.0065636
0.00671241
0.00696695
0.00730899
0.00770177
0.00806203
0.00833249
0.00843705
0.00831914
0.00767028
0.0051396
0.0015921
0.00190927
0.00243911
0.00302185
0.00354305
0.00390407
0.0037209
0.00103423
0.000946365
0.000883806
0.000836234
0.00079556
0.000757439
0.000720687
0.000681874
0.000636627
0.000597302
0.000603452
0.00109322
0.00055879
0.00277205
0.00889854
0.00491636
0.00571587
0.00625736
0.00620347
0.00615211
0.00626433
0.00650278
0.00685277
0.00728711
0.00768348
0.00795998
0.00806592
0.00800365
0.00774548
0.00709036
0.00601089
0.00564611
0.00559142
0.00565129
0.00572107
0.00573253
0.0055547
0.0047236
0.00432058
0.0040871
0.00390583
0.00371315
0.00343705
0.00305419
0.00258369
0.00205881
0.0015367
0.00113452
0.00111943
0.000760344
0.000690022
0.000831817
0.000934173
0.00315761
0.0110634
0.00676415
0.00552655
0.0060508
0.00622448
0.00605852
0.00616297
0.00636103
0.00668599
0.00710933
0.00752289
0.00779761
0.00785709
0.0077202
0.00748744
0.00727001
0.00713563
0.00715408
0.00719343
0.00716866
0.00706845
0.00689656
0.00663966
0.00625223
0.00590467
0.00559767
0.00530452
0.00500784
0.00469044
0.0042873
0.00377949
0.00316618
0.00248523
0.00187386
0.00137967
0.00105633
0.000901499
0.00128183
0.000977061
0.00351934
0.0126236
0.00969811
0.00701914
0.00655879
0.00659654
0.00643162
0.00633946
0.00643665
0.00674694
0.00719394
0.00762848
0.00788998
0.00789096
0.0076738
0.00741947
0.00736462
0.00757946
0.00784221
0.00793103
0.0078135
0.00754677
0.00718272
0.00675875
0.00631336
0.00590848
0.00554713
0.00521653
0.00491319
0.00464239
0.00440338
0.00407711
0.00360696
0.00302482
0.00245635
0.00193169
0.00156038
0.00145185
0.00148563
0.00111943
0.00359535
0.0114399
0.00993205
0.00880644
0.00812036
0.00735312
0.00671215
0.0064462
0.00657237
0.00699178
0.00753158
0.00798808
0.0081846
0.00806389
0.00773821
0.00749246
0.0076
0.00795063
0.00809904
0.00793773
0.00755401
0.00703614
0.00646195
0.00590516
0.00542235
0.00503007
0.00470936
0.00444461
0.00423428
0.00408523
0.00400624
0.00397177
0.00374648
0.00337841
0.00304837
0.00288309
0.00301244
0.00348486
0.00425944
0.00173592
0.00350526
0.00418959
0.00473611
0.00491037
0.00492761
0.00504687
0.00538466
0.00597132
0.00675385
0.00757785
0.0082489
0.00859826
0.00851653
0.00808384
0.00762449
0.00754405
0.00762435
0.00762521
0.00738753
0.00691455
0.00629615
0.00563387
0.00502219
0.00451994
0.0041358
0.00384358
0.00361179
0.00341988
0.00325545
0.00310848
0.00296965
0.00283795
0.00273319
0.00265552
0.00262576
0.00263511
0.00261401
0.00250096
0.00233219
0.00162299
0.00216557
0.00383533
0.00529359
0.00651236
0.00750023
0.008385
0.00907071
0.00941136
0.00935894
0.00893342
0.00819949
0.00738337
0.00689029
0.00671082
0.00651043
0.00614123
0.00561256
0.00500427
0.00439787
0.00386715
0.00345621
0.00315861
0.00294662
0.00279298
0.00267951
0.00259631
0.00253826
0.00250317
0.00249381
0.00251173
0.00254082
0.00257689
0.00261049
0.00261249
0.00253661
0.00236931
0.00212618
0.00133202
0.00251496
0.00537639
0.00733633
0.00825099
0.00886248
0.00928149
0.00923008
0.00863683
0.00774045
0.00678594
0.00598888
0.00541498
0.00503098
0.00468435
0.00426795
0.0038027
0.00334761
0.00295678
0.00265767
0.00244717
0.00230106
0.00220133
0.00214142
0.00211378
0.0021127
0.00213435
0.00217511
0.00222997
0.00230558
0.00239839
0.00250515
0.00261801
0.00271873
0.00278611
0.00276458
0.00278197
0.00274859
0.00135437
0.00230247
0.00230957
0.00235292
0.00242405
0.0021899
0.0020077
0.00192135
0.00183393
0.00170769
0.0015521
0.00137535
0.00120052
0.00104629
0.000924313
0.000836242
0.000774231
0.000729821
0.000698207
0.000677453
0.000666612
0.000664528
0.000669809
0.000681262
0.000698323
0.000719837
0.000745534
0.000775559
0.000810277
0.000850388
0.000897188
0.000949883
0.00100869
0.00107434
0.00114749
0.00122791
0.00132496
0.00135521
0.00132048
0.00123701
0.00114798
)
;

boundaryField
{
    floor
    {
        type            compressible::alphatWallFunction;
        Prt             0.85;
        value           nonuniform List<scalar> 
29
(
0.000183379
7.52624e-05
9.09532e-05
0.000103314
0.000104396
0.000101369
9.6953e-05
9.07384e-05
8.4342e-05
7.84721e-05
7.32315e-05
6.85671e-05
6.44043e-05
6.0681e-05
5.73312e-05
5.42379e-05
5.12499e-05
4.81542e-05
4.62174e-05
4.14122e-05
4.14116e-05
5.83363e-05
6.9492e-05
7.81818e-05
0.000183377
7.52614e-05
7.87319e-05
0.000150268
0.000223332
)
;
    }
    ceiling
    {
        type            compressible::alphatWallFunction;
        Prt             0.85;
        value           nonuniform List<scalar> 
43
(
0.000316226
0.000317024
0.000322573
0.000331781
0.000301795
0.000278207
0.000266951
0.000255494
0.000238835
0.000218108
0.000194276
0.000170359
0.000148927
0.000131716
0.000119125
0.000110165
0.000103695
9.9061e-05
9.60049e-05
9.4404e-05
9.4096e-05
9.48767e-05
9.65671e-05
9.90787e-05
0.000102235
0.000105991
0.000110359
0.000115385
0.00012116
0.000127857
0.000135349
0.000143652
0.000152855
0.000163033
0.000174138
0.00018743
0.00019155
0.00018682
0.000175391
0.000163106
0.000467215
0.000550454
0.000343114
)
;
    }
    sWall
    {
        type            compressible::alphatWallFunction;
        Prt             0.85;
        value           uniform 0.000315055;
    }
    nWall
    {
        type            compressible::alphatWallFunction;
        Prt             0.85;
        value           nonuniform List<scalar> 6(0.000132794 0.000138861 0.000158796 0.000188063 0.000191104 0.000162779);
    }
    sideWalls
    {
        type            empty;
    }
    glass1
    {
        type            compressible::alphatWallFunction;
        Prt             0.85;
        value           nonuniform List<scalar> 9(0.00017082 0.000230215 0.000278371 0.000323829 0.000369503 0.000417378 0.000461789 0.000471191 0.000460426);
    }
    glass2
    {
        type            compressible::alphatWallFunction;
        Prt             0.85;
        value           nonuniform List<scalar> 2(0.000240811 0.000225945);
    }
    sun
    {
        type            compressible::alphatWallFunction;
        Prt             0.85;
        value           nonuniform List<scalar> 
14
(
0.000175142
0.000190539
0.000194025
0.000202912
0.000211109
0.00021881
0.000226434
0.000233682
0.000238758
0.000240711
0.000238622
0.000231823
0.000219946
0.000203226
)
;
    }
    heatsource1
    {
        type            compressible::alphatWallFunction;
        Prt             0.85;
        value           nonuniform List<scalar> 3(9.78498e-05 0.000118482 0.000133112);
    }
    heatsource2
    {
        type            compressible::alphatWallFunction;
        Prt             0.85;
        value           nonuniform List<scalar> 4(0.000186733 0.00011697 0.000116968 0.000192292);
    }
    Table_master
    {
        type            compressible::alphatWallFunction;
        Prt             0.85;
        value           nonuniform List<scalar> 9(0.0001302 0.000115066 0.000102597 9.23419e-05 8.38611e-05 7.67926e-05 7.08646e-05 6.59034e-05 6.18423e-05);
    }
    Table_slave
    {
        type            compressible::alphatWallFunction;
        Prt             0.85;
        value           nonuniform List<scalar> 9(0.000147231 0.000134842 0.000125938 0.000119117 0.00011325 0.000107717 0.000102352 9.66495e-05 8.99515e-05);
    }
    inlet
    {
        type            fixedValue;
        value           uniform 1.94e-05;
    }
    outlet
    {
        type            zeroGradient;
    }
}


// ************************************************************************* //
