/*--------------------------------*- C++ -*----------------------------------*\
  =========                 |
  \\      /  F ield         | OpenFOAM: The Open Source CFD Toolbox
   \\    /   O peration     | Website:  https://openfoam.org
    \\  /    A nd           | Version:  6
     \\/     M anipulation  |
\*---------------------------------------------------------------------------*/
FoamFile
{
    version     2.0;
    format      ascii;
    class       surfaceScalarField;
    location    "800";
    object      phi;
}
// * * * * * * * * * * * * * * * * * * * * * * * * * * * * * * * * * * * * * //

dimensions      [1 0 -1 0 0 0 0];

internalField   nonuniform List<scalar> 
852
(
-0.00295658
0.003014
-0.00399231
0.00103573
-0.00479152
0.000799216
-0.00541598
0.00062446
-0.00583227
0.000416292
-0.00601245
0.000180189
-0.00592842
-8.40364e-05
-0.00555756
-0.000370853
-0.00491411
-0.00064345
-0.00406118
-0.000852923
-0.00309706
-0.000964122
-0.00213262
-0.000964443
-0.00126888
-0.000863732
-0.000565622
-0.000703257
-0.000563949
-0.000775577
0.000778585
-0.000518039
-0.000257537
7.62845e-05
-0.000594321
0.000574776
-0.000498489
0.00091996
-0.000345182
0.00114454
-0.000224582
0.00126954
-0.000124996
0.00133
-6.04566e-05
0.0013634
-3.33932e-05
0.00138386
-2.04628e-05
0.00139537
-1.1505e-05
0.00139945
-4.07578e-06
0.00139479
4.65844e-06
0.00137396
2.08334e-05
0.00131602
5.79448e-05
0.00118586
0.000130162
0.000971956
0.000213906
0.000712099
0.000259859
0.000716125
-0.00211825
0.00528695
-0.00313623
0.00205371
-0.00396497
0.00162796
-0.00458577
0.00124526
-0.00500024
0.000830764
-0.0051896
0.000369553
-0.00512245
-0.000151185
-0.00478013
-0.000713173
-0.00418913
-0.00123444
-0.00342351
-0.00161854
-0.00258021
-0.00180742
-0.00175406
-0.0017906
-0.00102577
-0.00159202
-0.000471644
-0.00125738
-0.000206893
-0.000828698
0.000102293
-0.000309235
0.000102244
0.000260954
0.000526381
0.000663551
-0.000660132
0.0009277
-0.000858468
0.00115016
-0.000720942
0.00132694
-0.000521966
0.00144083
-0.000338471
0.00146093
-0.000145087
0.00146591
-6.54407e-05
0.00147197
-3.94528e-05
0.00147708
-2.55643e-05
0.00148047
-1.48963e-05
0.0014823
-5.90337e-06
0.00148194
5.01892e-06
0.00147622
2.6555e-05
0.00143755
9.66239e-05
0.00127156
0.000296153
0.000983099
0.000502368
0.000622449
0.000620511
0.0013488
-0.0014892
0.00701281
-0.00237103
0.00293554
-0.00311196
0.0023689
-0.00364917
0.00178246
-0.0040175
0.0011991
-0.00419335
0.000545404
-0.00412288
-0.000221656
-0.00377834
-0.00105771
-0.00321133
-0.00180145
-0.00251434
-0.00231553
-0.00178165
-0.0025401
-0.00108718
-0.00248506
-0.000483428
-0.00219577
-7.35573e-06
-0.00173345
0.000307382
-0.00114343
0.000455124
-0.000456975
0.00055737
0.00149255
-0.000956608
0.00171174
-0.000879325
0.00166934
-0.000816062
0.00165821
-0.000709814
0.00168303
-0.000546778
0.00172366
-0.000379101
0.00157873
0.00151344
0.00147414
0.00144874
0.00143399
0.00142825
0.00143342
0.00146013
0.00155691
0.00128616
0.000566903
0.000954396
0.000834139
0.000535996
0.00103891
0.00190026
-0.00104333
0.00836255
-0.00174579
0.003638
-0.00224433
0.00286744
-0.00260487
0.002143
-0.00285964
0.00145387
-0.00297351
0.000659279
-0.00284995
-0.000345218
-0.00246771
-0.00143995
-0.00192559
-0.00234356
-0.0013267
-0.00291443
-0.000746577
-0.00312023
-0.000226983
-0.00300466
0.000215587
-0.00263833
0.000580218
-0.00209808
0.00090461
-0.00146782
0.00127055
-0.000822916
0.00211108
-0.000283151
0.00248055
-0.000361031
0.00212631
-0.000602368
0.0019945
-0.00074751
0.00187009
-0.000691654
0.00175841
-0.000598133
0.0016887
-0.000477067
0.00163478
-0.000325173
0.00177671
-0.000142087
0.00186537
-8.8805e-05
0.00193724
-7.20237e-05
0.00199386
-5.67709e-05
0.00202089
-2.71761e-05
0.00199631
2.44299e-05
0.00189445
0.000101705
0.0016818
0.000212501
0.00130332
0.000378321
0.00114179
0.000728436
0.000827895
0.00114804
0.000357064
0.00150975
0.00227748
-0.00072938
0.00945754
-0.00126441
0.00417303
-0.00138773
0.00299077
-0.00148334
0.0022386
-0.00154857
0.00151911
-0.00151963
0.000630347
-0.00125695
-0.000607896
-0.000822362
-0.00187454
-0.000347815
-0.00281811
8.66346e-05
-0.00334887
0.000444366
-0.00347795
0.000719364
-0.00327965
0.000931412
-0.00285038
0.00111082
-0.00227749
0.00129165
-0.00164866
0.00152181
-0.00105308
0.00184473
-0.000606069
0.00195386
-0.000470159
0.00187386
-0.000522362
0.00170027
-0.000573923
0.00154548
-0.000536857
0.00141367
-0.000466325
0.00131822
-0.000381612
0.00127515
-0.0002821
0.00132084
-0.000187777
0.00137744
-0.000145407
0.00143835
-0.000132931
0.00150011
-0.000118522
0.00155204
-7.91061e-05
0.00157348
2.9875e-06
0.00154262
0.000132567
0.00144753
0.000307598
0.00128934
0.000536516
0.00114132
0.000876458
0.000974589
0.00131477
0.000615385
0.00186895
0.000509265
0.0023836
-0.000992554
0.00150162
-0.00145591
0.000463152
-0.00140735
-0.000631787
0.0105048
-0.00100041
0.00454166
-0.000608151
0.00259851
-0.000319608
0.00195006
-0.000110666
0.00131017
0.00020038
0.000319303
0.000671303
-0.00107882
0.00110879
-0.00231203
0.00142588
-0.0031352
0.00160579
-0.00352877
0.00167135
-0.00354352
0.0016557
-0.003264
0.00158999
-0.00278467
0.00151166
-0.00219916
0.00145424
-0.00159123
0.001443
-0.00104184
0.00147193
-0.000634999
0.00143999
-0.000438215
0.00131633
-0.000398695
0.00113921
-0.000396801
0.000977367
-0.000375015
0.000849383
-0.00033834
0.000763275
-0.000295502
0.000729704
-0.000248526
0.000751742
-0.000209813
0.000804362
-0.000198025
0.000873482
-0.000202049
0.000953217
-0.000198255
0.0010375
-0.000163387
0.00111486
-7.43706e-05
0.00116657
8.08602e-05
0.00118676
0.000287408
0.00118462
0.000538653
0.00120478
0.000856302
0.00129354
0.00122601
0.00146712
0.00169538
0.00190471
0.00194601
0.00216376
0.00124257
0.00177449
0.000852417
0.000425487
-0.000720561
0.0116854
-0.000608812
0.00442991
0.000463327
0.00152637
0.00113032
0.00128307
0.00168453
0.000755961
0.00232057
-0.000316732
0.00288058
-0.00163882
0.00319441
-0.00262586
0.00325521
-0.00319599
0.00310772
-0.00338129
0.00281469
-0.00325049
0.00244014
-0.00288945
0.00203823
-0.00238275
0.0016572
-0.00181813
0.00133055
-0.00126458
0.00107838
-0.000789669
0.000898619
-0.00045523
0.000745852
-0.000285448
0.000585003
-0.000237844
0.000423667
-0.000235463
0.000285215
-0.000236561
0.000180987
-0.00023411
0.000115308
-0.000229821
9.24026e-05
-0.000225619
0.000110356
-0.000227765
0.000155451
-0.000243118
0.000217112
-0.000263709
0.000293444
-0.000274584
0.000388447
-0.000258388
0.000507113
-0.000193035
0.000637903
-4.99274e-05
0.000768759
0.000156554
0.000909141
0.000398272
0.00109747
0.000667973
0.00138015
0.000943338
0.0018234
0.00125213
0.00249194
0.00127748
0.00303514
0.000699369
0.00305526
0.000832301
0.00354357
0.0025988
0.00960064
0.00327308
0.00375563
0.00342983
0.00136962
0.00386947
0.000843436
0.00454517
8.02654e-05
0.00523708
-0.00100864
0.00552787
-0.00192961
0.00541601
-0.002514
0.00498525
-0.00276523
0.00433831
-0.00273435
0.00357674
-0.00248891
0.00278745
-0.00210016
0.00202978
-0.00162508
0.00135895
-0.00114731
0.000803468
-0.000709095
0.000384461
-0.00037066
0.000102681
-0.000173449
-8.59385e-05
-9.68261e-05
-0.000230235
-9.35457e-05
-0.000351198
-0.000114497
-0.000450186
-0.000137572
-0.000525228
-0.000159066
-0.000575627
-0.00017942
-0.000601181
-0.000200063
-0.00060514
-0.000223804
-0.000596278
-0.000251977
-0.000580555
-0.00027943
-0.000557402
-0.000297736
-0.000518651
-0.000297136
-0.000445449
-0.000266235
-0.000306977
-0.000188397
-0.000117276
-3.31454e-05
0.000104899
0.000176099
0.000379432
0.000393442
0.00071677
0.000606002
0.00115738
0.000811528
0.00163134
0.000803517
0.00182111
0.000509605
0.00106907
0.00158434
0.00487214
0.0101648
0.0139133
0.0122234
0.00305945
0.0113028
0.00176406
0.0105667
0.000816383
0.00969021
-0.000132159
0.00855634
-0.00079574
0.00727149
-0.00122915
0.00592961
-0.00142335
0.00459847
-0.0014032
0.0033404
-0.00123084
0.00220799
-0.000967746
0.00120935
-0.000626438
0.000387781
-0.000325737
-0.000222163
-9.91484e-05
-0.000606633
1.38118e-05
-0.000817547
3.74678e-05
-0.000938826
2.44549e-05
-0.00102868
-3.68807e-06
-0.00110822
-3.49616e-05
-0.00118032
-6.54657e-05
-0.001245
-9.4385e-05
-0.00130291
-0.000121503
-0.00135575
-0.000147222
-0.00140755
-0.000172003
-0.00146553
-0.000193998
-0.00153708
-0.000207879
-0.00162955
-0.000205263
-0.00175197
-0.00017471
-0.00191591
-0.000102294
-0.00212905
2.47433e-05
-0.0023779
0.000215705
-0.00268728
0.000485485
-0.00314437
0.00085053
-0.00384526
0.0013069
-0.00485418
0.00182044
-0.00628467
0.00223401
-0.00800511
0.00223005
-0.00749263
0.00107185
-0.0023329
0.00510886
0.00457576
0.00411825
0.00275467
0.00453112
0.000403508
0.00457667
-0.000177711
0.00417547
-0.000394531
0.00350001
-0.000553691
0.00265799
-0.000581328
0.00174106
-0.000486269
0.000824542
-0.000314319
-4.02547e-05
-0.000102947
-0.000750948
8.4257e-05
-0.00122255
0.000145868
-0.00148198
0.000160281
-0.00160969
0.000141528
-0.00167983
0.000107611
-0.00172902
7.36384e-05
-0.0017748
4.21022e-05
-0.00182447
1.47031e-05
-0.00188135
-8.58347e-06
-0.00194543
-3.02968e-05
-0.0020164
-5.05297e-05
-0.00209532
-6.83046e-05
-0.00218354
-8.37843e-05
-0.00228318
-9.43522e-05
-0.00239533
-9.57241e-05
-0.00251878
-8.1817e-05
-0.00264881
-4.46748e-05
-0.00277653
2.54288e-05
-0.00288984
0.000138057
-0.00298641
0.000312277
-0.00307482
0.00057389
-0.00316226
0.000937981
-0.00324675
0.00139139
-0.0032815
0.0018552
-0.00320668
0.00215919
-0.00284168
0.00186505
-0.00156837
-0.000201455
-0.00382602
-0.000450424
0.00508236
0.000857224
0.00144703
0.000846405
0.000414327
0.000595452
7.32426e-05
0.000237767
-3.68452e-05
-0.000273429
-4.24941e-05
-0.00086352
8.76424e-06
-0.00142347
7.36867e-05
-0.00186954
0.000131752
-0.00214906
0.000176571
-0.0022636
0.0001988
-0.00230414
0.000186407
-0.00230512
0.000161259
-0.00229599
0.000132407
-0.00229393
0.000105548
-0.00230284
8.25511e-05
-0.00232277
6.20329e-05
-0.00235137
4.33096e-05
-0.00238652
2.65651e-05
-0.00242849
1.16794e-05
-0.00247705
-1.9644e-06
-0.00253187
-1.34849e-05
-0.0025927
-2.29524e-05
-0.00265777
-2.92849e-05
-0.0027231
-3.0393e-05
-0.0027818
-2.31064e-05
-0.0028232
-3.2728e-06
-0.00283516
3.7385e-05
-0.00280476
0.000107664
-0.00270866
0.000216175
-0.0025138
0.000379036
-0.00219292
0.000617104
-0.00173157
0.000930034
-0.00110649
0.00123012
-0.000136945
0.00118965
0.00116461
0.000563499
0.00157213
-0.000608975
-0.00217128
-0.00796287
-0.0108121
-0.0056857
-0.0042156
-0.00378687
-0.00370407
-0.00373447
-0.00377282
-0.00376164
-0.00368682
-0.003555
-0.00337928
-0.00318211
-0.002998
-0.00283958
-0.00271044
-0.0026085
-0.0025298
-0.00247181
-0.00243266
-0.00241032
-0.00240288
-0.00240907
-0.00242674
-0.00245382
-0.00248715
-0.00252149
-0.00254845
-0.00255546
-0.00252169
-0.0024175
-0.00220467
-0.00182885
-0.00121486
-0.000287857
0.000939254
0.0021258
0.00268601
0.00207351
)
;

boundaryField
{
    floor
    {
        type            calculated;
        value           nonuniform List<scalar> 
29
(
0
0
0
0
0
0
0
0
0
0
0
0
0
0
0
0
0
0
0
0
-4.023e-06
-1.02237e-05
-1.54633e-05
-2.01521e-05
-1.67115e-06
-3.00489e-06
-8.74769e-06
-9.55503e-06
-8.44238e-06
)
;
    }
    ceiling
    {
        type            calculated;
        value           nonuniform List<scalar> 
43
(
-4.66201e-05
-4.53439e-05
-4.4073e-05
-2.30744e-05
-1.44046e-05
-9.559e-06
-6.4361e-06
-4.14627e-06
-2.41586e-06
-1.12784e-06
-6.35949e-08
8.45816e-07
1.63284e-06
2.30006e-06
2.84212e-06
3.27003e-06
3.60445e-06
3.86001e-06
4.04384e-06
4.16217e-06
4.22483e-06
4.2436e-06
4.22812e-06
4.18537e-06
4.12436e-06
4.04783e-06
3.95756e-06
3.85468e-06
3.73948e-06
3.61068e-06
3.47751e-06
3.34647e-06
3.2228e-06
3.11385e-06
3.03314e-06
3.01314e-06
3.11129e-06
3.28997e-06
3.52872e-06
4.55317e-06
1.02225e-05
7.17952e-06
-5.61753e-05
)
;
    }
    sWall
    {
        type            calculated;
        value           uniform -0.000271194;
    }
    nWall
    {
        type            calculated;
        value           nonuniform List<scalar> 6(-4.87631e-05 -5.83372e-05 -6.28176e-05 -7.52533e-05 -8.26097e-05 -0.00010232);
    }
    sideWalls
    {
        type            empty;
        value           nonuniform 0();
    }
    glass1
    {
        type            calculated;
        value           nonuniform List<scalar> 9(-5.74144e-05 -0.000154698 -0.000236656 -0.000306408 -0.000365607 -0.000415492 -0.000460052 -0.000514002 -0.000574392);
    }
    glass2
    {
        type            calculated;
        value           nonuniform List<scalar> 2(-0.000259496 -0.000287583);
    }
    sun
    {
        type            calculated;
        value           uniform 0;
    }
    heatsource1
    {
        type            calculated;
        value           nonuniform List<scalar> 3(2.0422e-07 2.04159e-07 2.04176e-07);
    }
    heatsource2
    {
        type            calculated;
        value           nonuniform List<scalar> 4(5.11952e-08 5.12838e-08 0 0);
    }
    Table_master
    {
        type            calculated;
        value           nonuniform List<scalar> 9(-1.5316e-07 -1.53249e-07 -1.53281e-07 -1.53303e-07 -1.53318e-07 -1.53329e-07 -1.53334e-07 -1.53329e-07 -1.533e-07);
    }
    Table_slave
    {
        type            calculated;
        value           nonuniform List<scalar> 9(1.53037e-07 1.53054e-07 1.53032e-07 1.53014e-07 1.53006e-07 1.5301e-07 1.53024e-07 1.53066e-07 1.53147e-07);
    }
    inlet
    {
        type            calculated;
        value           uniform -0.00662517;
    }
    outlet
    {
        type            calculated;
        value           nonuniform List<scalar> 2(0.00828068 0.00289461);
    }
}


// ************************************************************************* //
