/*--------------------------------*- C++ -*----------------------------------*\
  =========                 |
  \\      /  F ield         | OpenFOAM: The Open Source CFD Toolbox
   \\    /   O peration     | Website:  https://openfoam.org
    \\  /    A nd           | Version:  6
     \\/     M anipulation  |
\*---------------------------------------------------------------------------*/
FoamFile
{
    version     2.0;
    format      ascii;
    class       volScalarField;
    location    "800";
    object      nut;
}
// * * * * * * * * * * * * * * * * * * * * * * * * * * * * * * * * * * * * * //

dimensions      [0 2 -1 0 0 0 0];

internalField   nonuniform List<scalar> 
459
(
0.00138664
0.00154964
0.00161832
0.0017222
0.00183816
0.00193951
0.00200598
0.00202751
0.00192702
0.0018163
0.00169531
0.00156468
0.00143964
0.00131442
0.00117295
0.000577652
0.000685048
0.000799551
0.000891654
0.000945461
0.000941608
0.000886321
0.000822602
0.000765006
0.000715098
0.00067205
0.000634844
0.000602387
0.000573529
0.000547087
0.00052112
0.000492777
0.00045715
0.000398777
0.00177446
0.00490539
0.00500945
0.00577196
0.00636047
0.00681391
0.00715905
0.00745769
0.00757019
0.00728326
0.0067997
0.00617822
0.00519946
0.00397224
0.00261637
0.00127306
0.00108993
0.000552533
0.00111254
0.00222523
0.00301708
0.00360472
0.00366446
0.00246443
0.00201282
0.00171405
0.00149242
0.00132008
0.00118488
0.00108404
0.00101821
0.000936651
0.000841414
0.000746872
0.000674323
0.000407501
0.00209655
0.00681663
0.00634847
0.00688446
0.00711076
0.00722674
0.00740238
0.00782586
0.00823002
0.00829524
0.00807905
0.00767191
0.00698418
0.00588898
0.00443902
0.00279675
0.00118241
0.000560644
0.00124922
0.00218729
0.00338821
0.0043723
0.00438269
0.00117349
0.00102134
0.000890996
0.000780955
0.000686417
0.000602623
0.00052667
0.000461417
0.000428913
0.000515867
0.000598923
0.000672492
0.00040327
0.00240411
0.00848646
0.00704219
0.00735629
0.00718146
0.0069102
0.00693559
0.00744587
0.00798794
0.00825717
0.00821688
0.00797788
0.00755822
0.00682105
0.00568558
0.00416438
0.00224583
0.00123332
0.00122079
0.00182103
0.00305847
0.00453747
0.00568982
0.00558311
0.00133804
0.00121405
0.00111731
0.00104003
0.00097208
0.000907947
0.00084421
0.000778084
0.000705021
0.00059671
0.000552725
0.000662725
0.000406572
0.00271318
0.0104261
0.00828432
0.00816822
0.00743857
0.00673146
0.00670053
0.00723619
0.00786536
0.00822032
0.00823231
0.0080397
0.00774572
0.00729284
0.00655186
0.00548239
0.00416051
0.00362636
0.00397526
0.00491865
0.00615263
0.00728404
0.00801933
0.0080767
0.0067587
0.00595374
0.00541958
0.00487087
0.00430726
0.00373213
0.00314093
0.00252271
0.00186954
0.00122512
0.000812111
0.000712946
0.000478659
0.000423481
0.000525433
0.000613743
0.0030263
0.012452
0.0106345
0.00934485
0.0076529
0.00668077
0.00665181
0.00726199
0.0079734
0.00837452
0.00839453
0.0082378
0.00810024
0.00792761
0.00757862
0.00705553
0.00651642
0.00664131
0.00752225
0.0085334
0.00939028
0.00992923
0.0100827
0.00981851
0.0091115
0.0083485
0.00754499
0.00672598
0.00590103
0.00507424
0.00424184
0.0033952
0.00253292
0.00170944
0.00112724
0.000868847
0.000675088
0.000631842
0.000869494
0.000622106
0.00325192
0.0134429
0.0125492
0.00964265
0.00744317
0.00649737
0.00666434
0.00746329
0.00828772
0.00872329
0.00878582
0.00884703
0.00910764
0.00918239
0.00909937
0.00900652
0.00909213
0.00968131
0.0105451
0.0111917
0.0115179
0.0115092
0.0111874
0.0106041
0.00982241
0.00895346
0.00805446
0.0071509
0.00624959
0.00535644
0.00447619
0.00361398
0.0027822
0.00202766
0.00144069
0.00119277
0.00109961
0.00118442
0.00139449
0.000813
0.00327214
0.010614
0.00966805
0.00751313
0.00616839
0.00600053
0.00674225
0.00787515
0.00879909
0.00924038
0.00954169
0.0100927
0.0104021
0.010498
0.0105692
0.010738
0.0110844
0.0116451
0.0121565
0.0123675
0.0122333
0.0117913
0.0111075
0.0102638
0.00934735
0.00843195
0.00752709
0.00662713
0.00573039
0.00484045
0.00396527
0.00312358
0.0023593
0.00175
0.0013726
0.00128317
0.00138237
0.00153206
0.00151459
0.000866854
0.00316446
0.00365262
0.00383945
0.00383647
0.00438102
0.00567204
0.00729773
0.00869178
0.00941646
0.0100157
0.0104643
0.010849
0.0109652
0.0110388
0.0111971
0.0114504
0.01176
0.01203
0.0121028
0.0118794
0.0113605
0.0106092
0.00971416
0.00876528
0.00783635
0.00695787
0.00611638
0.0052939
0.00448653
0.00370426
0.0029711
0.00232983
0.00183471
0.00151704
0.00136658
0.0013507
0.00139302
0.00139822
0.00131772
0.00109261
0.00101914
0.00273931
0.00623623
0.00857984
0.0097706
0.0101946
0.00998006
0.0100965
0.010218
0.0102094
0.0102089
0.0103007
0.0104616
0.0106256
0.01071
0.0106224
0.0102999
0.00974277
0.00901071
0.00819434
0.00737915
0.00662275
0.0059461
0.00533863
0.00478057
0.00425994
0.00377293
0.00331886
0.002898
0.00251279
0.00217167
0.00189583
0.0017147
0.00163497
0.00162008
0.00163234
0.00157254
0.00116446
0.00190964
0.00782176
0.00977333
0.00990899
0.0093717
0.00874697
0.00826625
0.00794644
0.00772929
0.00762882
0.0076366
0.00771022
0.00780035
0.00785627
0.00782721
0.00767269
0.00738481
0.00699496
0.00655799
0.0061276
0.00573813
0.00540158
0.00511438
0.00486556
0.00464197
0.00442932
0.00421098
0.00396867
0.00368748
0.00336383
0.00301205
0.00266343
0.00235486
0.00211205
0.00193347
0.00202699
0.00243897
0.00130149
0.00183987
0.00197849
0.00207373
0.00228945
0.00207566
0.00190071
0.00175634
0.00163185
0.00154625
0.00149943
0.00147779
0.00147158
0.00147368
0.0014787
0.00148227
0.00148077
0.0014716
0.00145385
0.00142904
0.0014004
0.00137153
0.0013451
0.00132223
0.00130269
0.00128533
0.00126855
0.00125072
0.00123035
0.00120631
0.00117812
0.00114629
0.00111235
0.00107861
0.00104759
0.00102142
0.00100093
0.000985689
0.00100328
0.00105107
0.00111353
)
;

boundaryField
{
    floor
    {
        type            nutkWallFunction;
        Cmu             0.09;
        kappa           0.41;
        E               9.8;
        value           nonuniform List<scalar> 
29
(
0.000140894
6.95317e-05
8.28729e-05
9.68212e-05
0.000107874
0.000114276
0.000113821
0.000107245
9.96058e-05
9.2641e-05
8.65559e-05
8.12667e-05
7.66624e-05
7.2619e-05
6.90016e-05
6.56673e-05
6.2373e-05
5.87531e-05
5.41644e-05
4.6541e-05
4.65409e-05
4.76831e-05
4.71266e-05
4.75623e-05
0.000140894
6.95317e-05
6.63691e-05
6.73905e-05
0.000147842
)
;
    }
    ceiling
    {
        type            nutkWallFunction;
        Cmu             0.09;
        kappa           0.41;
        E               9.8;
        value           nonuniform List<scalar> 
43
(
0.000215965
0.000231057
0.000241391
0.000264793
0.000241746
0.000222673
0.000206784
0.000192968
0.000183403
0.000178147
0.000175712
0.000175015
0.000175254
0.000175821
0.000176225
0.000176059
0.000175027
0.000173026
0.000170224
0.000166982
0.000163706
0.000160699
0.000158092
0.000155861
0.000153875
0.000151954
0.000149909
0.00014757
0.000144803
0.000141552
0.000137868
0.000133927
0.000129995
0.000126367
0.000123295
0.000120882
0.000119081
0.000121156
0.000126776
0.000134058
0.000357221
0.000407544
0.000223265
)
;
    }
    sWall
    {
        type            nutkWallFunction;
        Cmu             0.09;
        kappa           0.41;
        E               9.8;
        value           uniform 0.000216017;
    }
    nWall
    {
        type            nutkWallFunction;
        Cmu             0.09;
        kappa           0.41;
        E               9.8;
        value           nonuniform List<scalar> 6(7.40436e-05 7.5078e-05 9.85008e-05 0.000139976 0.000155757 0.000134065);
    }
    sideWalls
    {
        type            empty;
    }
    glass1
    {
        type            nutkWallFunction;
        Cmu             0.09;
        kappa           0.41;
        E               9.8;
        value           nonuniform List<scalar> 9(0.000165544 0.000209003 0.0002443 0.000277461 0.000310336 0.000343244 0.000366736 0.000368844 0.000357679);
    }
    glass2
    {
        type            nutkWallFunction;
        Cmu             0.09;
        kappa           0.41;
        E               9.8;
        value           nonuniform List<scalar> 2(0.000104968 0.000131651);
    }
    sun
    {
        type            nutkWallFunction;
        Cmu             0.09;
        kappa           0.41;
        E               9.8;
        value           nonuniform List<scalar> 
14
(
0.000165347
0.00018371
0.000191385
0.000202927
0.000215723
0.000226834
0.000234086
0.000236426
0.000225466
0.000213318
0.00019995
0.000185397
0.000171344
0.000157134
)
;
    }
    heatsource1
    {
        type            nutkWallFunction;
        Cmu             0.09;
        kappa           0.41;
        E               9.8;
        value           nonuniform List<scalar> 3(4.97914e-05 6.29272e-05 7.4048e-05);
    }
    heatsource2
    {
        type            nutkWallFunction;
        Cmu             0.09;
        kappa           0.41;
        E               9.8;
        value           nonuniform List<scalar> 4(0.000152401 0.000131257 0.000131257 0.00014198);
    }
    Table_master
    {
        type            nutkWallFunction;
        Cmu             0.09;
        kappa           0.41;
        E               9.8;
        value           nonuniform List<scalar> 9(0.00014094 0.00012322 0.000107796 9.45689e-05 8.30263e-05 7.26332e-05 6.30584e-05 5.47001e-05 5.04921e-05);
    }
    Table_slave
    {
        type            nutkWallFunction;
        Cmu             0.09;
        kappa           0.41;
        E               9.8;
        value           nonuniform List<scalar> 9(0.000159823 0.000145633 0.000134447 0.000125432 0.000117443 0.000109842 0.000102225 9.4251e-05 8.53455e-05);
    }
    inlet
    {
        type            calculated;
        value           uniform 0.000100623;
    }
    outlet
    {
        type            calculated;
        value           nonuniform List<scalar> 2(0.00183987 0.00197849);
    }
}


// ************************************************************************* //
