/*--------------------------------*- C++ -*----------------------------------*\
  =========                 |
  \\      /  F ield         | OpenFOAM: The Open Source CFD Toolbox
   \\    /   O peration     | Website:  https://openfoam.org
    \\  /    A nd           | Version:  6
     \\/     M anipulation  |
\*---------------------------------------------------------------------------*/
FoamFile
{
    version     2.0;
    format      ascii;
    class       volScalarField;
    location    "100";
    object      epsilon;
}
// * * * * * * * * * * * * * * * * * * * * * * * * * * * * * * * * * * * * * //

dimensions      [0 2 -3 0 0 0 0];

internalField   nonuniform List<scalar> 
459
(
0.000171991
0.000182386
0.000117644
0.000128509
0.000144098
0.000160827
0.000178433
0.000197258
0.000218224
0.000239351
0.000257178
0.000269341
0.000273748
0.000269022
0.000250997
3.85353e-05
5.56512e-05
5.96582e-05
3.45831e-05
9.52833e-06
5.48516e-06
4.47779e-06
4.34294e-06
3.87297e-06
3.53523e-06
3.53986e-06
3.59188e-06
3.60593e-06
4.29021e-06
9.38167e-06
3.24843e-05
7.50489e-05
8.04551e-05
5.68103e-05
0.00097804
0.0022686
0.000203259
0.000102248
0.00010414
0.000112716
0.000122848
0.000134957
0.000149966
0.00016767
0.000186989
0.000206783
0.000224461
0.000235236
0.000241333
0.000309224
0.000109743
7.62037e-05
0.000133623
9.78902e-05
5.58058e-05
3.11532e-05
1.89853e-05
6.3382e-06
3.85885e-06
3.05433e-06
3.30735e-06
4.31117e-06
5.98801e-06
7.96599e-06
1.58841e-05
4.184e-05
8.86552e-05
0.000123238
0.000162631
0.00010084
0.0025294
0.00752261
0.000577869
0.000132443
0.000110947
0.000118004
0.000129525
0.000143763
0.000160751
0.000180323
0.000201018
0.00022175
0.000241324
0.000258238
0.000273614
0.000299831
0.000369516
0.000327415
0.000319623
0.000164042
0.000137473
0.000135376
0.000134852
2.07716e-05
6.85908e-06
3.54559e-06
4.83686e-06
8.60303e-06
1.62197e-05
3.03242e-05
5.7746e-05
0.000128322
0.0001804
0.000199191
0.000214651
0.000144975
0.00490304
0.0159961
0.0014065
0.000198295
0.00012732
0.000131718
0.000145557
0.000162847
0.000182734
0.000205095
0.000226718
0.000246269
0.000263818
0.000280393
0.000299763
0.000334069
0.000411902
0.000568207
0.000294315
0.000168832
0.000146086
0.000157279
0.000185892
0.000237134
0.000332804
0.000361413
0.00039801
0.000438558
0.000479964
0.000519375
0.000556139
0.000578888
0.000589049
0.000386868
0.000318044
0.000421932
0.000489495
0.00799959
0.0264135
0.00288795
0.000323715
0.000154309
0.000153059
0.000171755
0.000196678
0.00022545
0.000256449
0.000282956
0.000303779
0.000320274
0.000332037
0.000335528
0.000326613
0.000304314
0.000261002
0.000184627
0.000150966
0.000142834
0.000150124
0.000165798
0.000187232
0.000212603
0.000240521
0.000276858
0.000321646
0.00037358
0.00043124
0.000495257
0.000564696
0.000635764
0.000675812
0.000707804
0.000682191
0.000665316
0.000987095
0.000682117
0.000575783
0.0117708
0.0350892
0.00525259
0.00064307
0.000233624
0.000205479
0.000227781
0.00026442
0.000308876
0.000352745
0.00037958
0.000395429
0.000408456
0.000421005
0.000427802
0.000418282
0.000383271
0.000325419
0.000262583
0.000216626
0.000192383
0.000186768
0.000193502
0.000208807
0.000231914
0.000265697
0.000313851
0.000376788
0.000452479
0.000539204
0.000639704
0.000762382
0.000918324
0.00111811
0.00138413
0.0017112
0.00188402
0.00176102
0.000995737
0.00111502
0.0160305
0.0382646
0.00975204
0.00220665
0.000750384
0.000464223
0.000433842
0.000465379
0.000526412
0.000554223
0.00054476
0.000523379
0.000507979
0.000504366
0.000506769
0.000500311
0.000470812
0.000417282
0.000354161
0.000299307
0.000262595
0.000244689
0.000241869
0.00025137
0.000273981
0.000314852
0.000379536
0.000468845
0.000576967
0.000695969
0.00082547
0.000977655
0.00117126
0.00142076
0.0017219
0.00201617
0.00216439
0.00209666
0.00157934
0.00104872
0.0168189
0.0459131
0.0217964
0.0112831
0.00498369
0.00229044
0.00147111
0.00121552
0.00111787
0.00097527
0.000832614
0.000714534
0.000629183
0.000577647
0.000554578
0.000543358
0.000522556
0.000483381
0.000431754
0.000380824
0.00034097
0.00031602
0.000305373
0.00030821
0.000327279
0.000371196
0.000451686
0.00057597
0.000736959
0.000912664
0.00107912
0.00122297
0.00133754
0.00142718
0.0015089
0.00160971
0.00175844
0.00194372
0.00212624
0.00166505
0.015065
0.0246743
0.0285928
0.020586
0.0128911
0.00780369
0.00486662
0.00323441
0.00223782
0.00161402
0.00121393
0.0009487
0.000769922
0.0006519
0.000580214
0.000542249
0.000520496
0.000499483
0.000472242
0.00044155
0.000413795
0.000393513
0.000382371
0.00038105
0.000392131
0.000423109
0.00048781
0.000606317
0.000789952
0.00103403
0.00133262
0.00166812
0.00203142
0.00240643
0.00275851
0.00297658
0.00297275
0.00317892
0.00422468
0.00234211
0.0417989
0.057538
0.0211555
0.0108796
0.0063824
0.00406299
0.00275551
0.00196021
0.00144969
0.00111002
0.000878351
0.000719418
0.000613494
0.000548913
0.000515628
0.00050226
0.000497832
0.00049562
0.000493766
0.000492924
0.000494298
0.000499343
0.000510724
0.000533761
0.000577283
0.000652682
0.000768234
0.000924725
0.00111978
0.00134843
0.00159401
0.00183333
0.0020411
0.00218837
0.00220146
0.00195195
0.00254982
0.00232841
0.0390501
0.0411622
0.0163424
0.00912111
0.00571906
0.00381725
0.00267267
0.00194499
0.00146161
0.00113062
0.000899884
0.000738738
0.000628777
0.000558962
0.000522465
0.000513819
0.000526482
0.000552391
0.000583748
0.00061514
0.000644425
0.00067243
0.000702244
0.000738775
0.000788628
0.000859218
0.000954004
0.00106578
0.00119159
0.00133108
0.00147556
0.00160748
0.001704
0.00174013
0.00167733
0.00154913
0.00185142
0.00176283
0.00772376
0.0125676
0.0214391
0.018979
0.0103605
0.00680472
0.00479645
0.00351371
0.00264646
0.0020388
0.00160701
0.00129331
0.00105844
0.000879851
0.000743713
0.000641126
0.000566228
0.00051497
0.000484002
0.00046972
0.000467952
0.000474401
0.000485442
0.000498826
0.000514104
0.000532895
0.000559098
0.000598801
0.000658692
0.000750594
0.000883682
0.00105079
0.00123206
0.00139678
0.00151118
0.00154465
0.00147131
0.00136181
0.00125305
0.000989704
)
;

boundaryField
{
    floor
    {
        Cmu             0.09;
        kappa           0.41;
        E               9.8;
        type            epsilonWallFunction;
        value           nonuniform List<scalar> 
29
(
0.000250997
3.85353e-05
5.56512e-05
5.96582e-05
3.45831e-05
9.52833e-06
5.48516e-06
4.47779e-06
4.34294e-06
3.87297e-06
3.53523e-06
3.53986e-06
3.59188e-06
3.60593e-06
4.29021e-06
9.38167e-06
3.24843e-05
7.50489e-05
8.04551e-05
5.68103e-05
5.68103e-05
0.00010084
0.000144975
0.000489495
0.000250997
3.85353e-05
7.62037e-05
0.000327415
0.000568207
)
;
    }
    ceiling
    {
        Cmu             0.09;
        kappa           0.41;
        E               9.8;
        type            epsilonWallFunction;
        value           nonuniform List<scalar> 
43
(
0.00772376
0.0125676
0.0214391
0.018979
0.0103605
0.00680472
0.00479645
0.00351371
0.00264646
0.0020388
0.00160701
0.00129331
0.00105844
0.000879851
0.000743713
0.000641126
0.000566228
0.00051497
0.000484002
0.00046972
0.000467952
0.000474401
0.000485442
0.000498826
0.000514104
0.000532895
0.000559098
0.000598801
0.000658692
0.000750594
0.000883682
0.00105079
0.00123206
0.00139678
0.00151118
0.00154465
0.00147131
0.00136181
0.00125305
0.000989704
0.015065
0.0246743
0.0390501
)
;
    }
    sWall
    {
        Cmu             0.09;
        kappa           0.41;
        E               9.8;
        type            epsilonWallFunction;
        value           uniform 0.00772376;
    }
    nWall
    {
        Cmu             0.09;
        kappa           0.41;
        E               9.8;
        type            epsilonWallFunction;
        value           nonuniform List<scalar> 6(0.000575783 0.00111502 0.00104872 0.00232841 0.00176283 0.000989704);
    }
    sideWalls
    {
        type            empty;
    }
    glass1
    {
        Cmu             0.09;
        kappa           0.41;
        E               9.8;
        type            epsilonWallFunction;
        value           nonuniform List<scalar> 9(0.000171991 0.00097804 0.0025294 0.00490304 0.00799959 0.0117708 0.0160305 0.0168189 0.015065);
    }
    glass2
    {
        Cmu             0.09;
        kappa           0.41;
        E               9.8;
        type            epsilonWallFunction;
        value           nonuniform List<scalar> 2(0.00166505 0.00234211);
    }
    sun
    {
        Cmu             0.09;
        kappa           0.41;
        E               9.8;
        type            epsilonWallFunction;
        value           nonuniform List<scalar> 
14
(
0.000171991
0.000182386
0.000117644
0.000128509
0.000144098
0.000160827
0.000178433
0.000197258
0.000218224
0.000239351
0.000257178
0.000269341
0.000273748
0.000269022
)
;
    }
    heatsource1
    {
        Cmu             0.09;
        kappa           0.41;
        E               9.8;
        type            epsilonWallFunction;
        value           nonuniform List<scalar> 3(0.000987095 0.000682117 0.000575783);
    }
    heatsource2
    {
        Cmu             0.09;
        kappa           0.41;
        E               9.8;
        type            epsilonWallFunction;
        value           nonuniform List<scalar> 4(0.000309224 0.000109743 0.000109743 0.000369516);
    }
    Table_master
    {
        Cmu             0.09;
        kappa           0.41;
        E               9.8;
        type            epsilonWallFunction;
        value           nonuniform List<scalar> 9(2.07716e-05 6.85908e-06 3.54559e-06 4.83686e-06 8.60303e-06 1.62197e-05 3.03242e-05 5.7746e-05 0.000128322);
    }
    Table_slave
    {
        Cmu             0.09;
        kappa           0.41;
        E               9.8;
        type            epsilonWallFunction;
        value           nonuniform List<scalar> 9(0.000332804 0.000361413 0.00039801 0.000438558 0.000479964 0.000519375 0.000556139 0.000578888 0.000589049);
    }
    inlet
    {
        type            turbulentMixingLengthDissipationRateInlet;
        mixingLength    0.01;
        phi             phi;
        k               k;
        value           uniform 0.0417989;
    }
    outlet
    {
        type            zeroGradient;
    }
}


// ************************************************************************* //
