/*--------------------------------*- C++ -*----------------------------------*\
  =========                 |
  \\      /  F ield         | OpenFOAM: The Open Source CFD Toolbox
   \\    /   O peration     | Website:  https://openfoam.org
    \\  /    A nd           | Version:  6
     \\/     M anipulation  |
\*---------------------------------------------------------------------------*/
FoamFile
{
    version     2.0;
    format      ascii;
    class       surfaceScalarField;
    location    "1400";
    object      phi;
}
// * * * * * * * * * * * * * * * * * * * * * * * * * * * * * * * * * * * * * //

dimensions      [1 0 -1 0 0 0 0];

internalField   nonuniform List<scalar> 
852
(
-0.00295813
0.00301545
-0.00399805
0.00103993
-0.00479817
0.000800121
-0.0054215
0.000623329
-0.00583461
0.000413112
-0.0060095
0.000174888
-0.00591806
-9.14442e-05
-0.00553828
-0.000379774
-0.00488587
-0.000652415
-0.0040256
-0.000860266
-0.00305721
-0.000968385
-0.00209235
-0.000964867
-0.00123314
-0.000859208
-0.000541615
-0.000691522
-0.000539954
-0.000777486
0.000780458
-0.000522636
-0.00025485
7.21003e-05
-0.000594735
0.000574284
-0.000502183
0.000923944
-0.00034966
0.00115268
-0.000228739
0.00128034
-0.000127657
0.00134202
-6.16786e-05
0.00137612
-3.41006e-05
0.00139712
-2.10032e-05
0.00140906
-1.1937e-05
0.00141348
-4.41875e-06
0.00140906
4.42155e-06
0.00138828
2.07775e-05
0.00133003
5.82542e-05
0.00119879
0.00013124
0.000982259
0.000216532
0.00071576
0.0002665
0.000719733
-0.00211913
0.00528903
-0.00313916
0.00205995
-0.00396795
0.00162891
-0.00458748
0.00124286
-0.00499896
0.000824596
-0.00518335
0.000359275
-0.00510926
-0.000165533
-0.00475888
-0.00073015
-0.00416039
-0.00125091
-0.00338923
-0.00163143
-0.00254343
-0.00181418
-0.00171775
-0.00179055
-0.000992849
-0.0015841
-0.000442931
-0.00124144
-0.000174721
-0.000808163
0.000116732
-0.000291503
0.000116681
0.000252463
0.000536654
0.000657773
-0.000660159
0.000925819
-0.000862781
0.00115114
-0.000727499
0.00133085
-0.000529369
0.00144741
-0.000345298
0.00146828
-0.000148534
0.00147333
-6.67274e-05
0.00147948
-4.0245e-05
0.00148464
-2.61691e-05
0.00148806
-1.53514e-05
0.00148989
-6.24755e-06
0.00148951
4.80476e-06
0.0014837
2.65821e-05
0.0014448
9.71584e-05
0.00127814
0.000297899
0.000988317
0.000506355
0.000624778
0.00063004
0.00135463
-0.00148938
0.00701471
-0.00237188
0.00294245
-0.00311234
0.00236938
-0.00364821
0.00177872
-0.0040137
0.00119009
-0.00418467
0.000530251
-0.00410703
-0.000243179
-0.00375476
-0.00108241
-0.00318165
-0.00182403
-0.00248099
-0.00233208
-0.00174777
-0.00254741
-0.00105479
-0.00248352
-0.00045419
-0.00218471
1.91873e-05
-0.00171482
0.000330978
-0.00111995
0.000471695
-0.000432221
0.000588377
0.00149281
-0.00094668
0.00171273
-0.000880077
0.00167177
-0.000821824
0.00166146
-0.000717189
0.00168708
-0.000554989
0.00173104
-0.000389257
0.00158266
0.00151609
0.001476
0.00144998
0.00143478
0.00142869
0.00143365
0.00146038
0.0015577
0.00128722
0.000568373
0.000955595
0.000837983
0.000536913
0.00104872
0.00190687
-0.00104292
0.00836362
-0.00174475
0.00364428
-0.00224258
0.00286721
-0.00260168
0.00213783
-0.00285364
0.00144205
-0.00296192
0.000638525
-0.00282999
-0.000375104
-0.00244061
-0.0014718
-0.00189462
-0.00237002
-0.00129452
-0.00293218
-0.000715935
-0.00312599
-0.000198805
-0.00300065
0.000240926
-0.00262444
0.000603695
-0.00207759
0.000926871
-0.00144313
0.00129167
-0.000797019
0.00213924
-0.000259191
0.00249679
-0.000349193
0.00214594
-0.000595826
0.0020107
-0.000744838
0.00188184
-0.000692962
0.00176612
-0.000601464
0.00169231
-0.000481186
0.00163201
-0.000328957
0.00177436
-0.000142503
0.00186174
-8.75275e-05
0.00193211
-7.05217e-05
0.00198754
-5.55843e-05
0.00201396
-2.65783e-05
0.00198948
2.43282e-05
0.0018883
0.00010103
0.00167663
0.000211516
0.0012992
0.000377276
0.00113932
0.000728262
0.00082774
0.00114956
0.000361631
0.00151483
0.00228848
-0.000728706
0.00945749
-0.00126212
0.00417769
-0.00138452
0.00298961
-0.00147825
0.00223156
-0.00154089
0.00150469
-0.00150345
0.000601088
-0.00123117
-0.000647385
-0.000791595
-0.00191137
-0.000316203
-0.00284541
0.000115932
-0.00336431
0.000470078
-0.00348014
0.000741326
-0.0032719
0.000951205
-0.00283432
0.00112945
-0.00225583
0.00131024
-0.00162391
0.00154143
-0.00102822
0.00186661
-0.000584369
0.00197311
-0.000455696
0.00189097
-0.000513683
0.00171475
-0.000568615
0.00155614
-0.000534353
0.00142025
-0.000465571
0.00132055
-0.000381489
0.00127313
-0.00028153
0.00131609
-0.000185471
0.00137056
-0.000141994
0.00142956
-0.000129524
0.00148991
-0.000115932
0.00154124
-7.79029e-05
0.00156305
2.51276e-06
0.00153339
0.000130699
0.00143982
0.000305081
0.00128311
0.000533985
0.00113674
0.00087464
0.00097204
0.00131426
0.000617454
0.00186942
0.000517189
0.00238874
-0.000990046
0.00150703
-0.00145365
0.000463398
-0.00140526
-0.000630925
0.0105034
-0.000997243
0.00454401
-0.000603655
0.00259602
-0.000311197
0.0019391
-9.76641e-05
0.00129116
0.000224252
0.000279172
0.000703293
-0.00112643
0.00114099
-0.00234907
0.00145437
-0.00315879
0.001629
-0.00353894
0.00169013
-0.00354126
0.00167013
-0.0032519
0.00160148
-0.00276566
0.00152176
-0.00217611
0.00146434
-0.00156649
0.00145425
-0.00101812
0.00148471
-0.000614831
0.00145256
-0.000423549
0.00132755
-0.000388671
0.00114873
-0.000389799
0.000984499
-0.000370118
0.000853624
-0.000334695
0.000764305
-0.00029217
0.000727436
-0.00024466
0.000746804
-0.000204838
0.000797323
-0.000192513
0.000864717
-0.000196917
0.000943116
-0.000194331
0.00102662
-0.000161407
0.00110413
-7.49965e-05
0.00115698
7.78537e-05
0.00117855
0.000283503
0.00117767
0.00053487
0.00119887
0.000853443
0.00128846
0.00122466
0.00146277
0.00169511
0.00190077
0.00195075
0.00215913
0.00124867
0.00176996
0.000852566
0.000422837
-0.000716946
0.01168
-0.000603035
0.0044301
0.000472022
0.00152096
0.00114797
0.00126315
0.00171903
0.000720101
0.00236271
-0.00036451
0.00291742
-0.00168113
0.0032244
-0.00265604
0.00327747
-0.00321187
0.00312223
-0.0033837
0.00282258
-0.00324161
0.00244261
-0.00287193
0.00203724
-0.0023603
0.00165486
-0.00179373
0.00132841
-0.00124005
0.00107806
-0.000767769
0.000900822
-0.00043759
0.000749871
-0.000272597
0.000589846
-0.000228646
0.000428541
-0.000228493
0.000289272
-0.000230849
0.000183478
-0.0002289
0.000115743
-0.000224434
9.06655e-05
-0.000219582
0.000106838
-0.00022101
0.000150574
-0.000236249
0.000211154
-0.000257497
0.000286542
-0.000269718
0.000380654
-0.000255517
0.00049852
-0.000192863
0.000629468
-5.30932e-05
0.000761166
0.000151805
0.000902192
0.000393844
0.00109071
0.000664923
0.00137328
0.000942093
0.00181545
0.00125294
0.00248304
0.00128316
0.00302554
0.00070617
0.00304729
0.000830812
0.00353284
0.00260203
0.00959152
0.00327943
0.0037527
0.00344313
0.00135726
0.00389365
0.000812632
0.00458192
3.18367e-05
0.00527375
-0.00105635
0.00555726
-0.00196464
0.00543466
-0.00253345
0.00499297
-0.00277018
0.00433653
-0.00272726
0.00356754
-0.00247262
0.00277256
-0.00207695
0.00201212
-0.00159985
0.00134127
-0.00112288
0.00078734
-0.000686116
0.000372672
-0.0003531
9.61383e-05
-0.000161056
-8.81843e-05
-8.82742e-05
-0.000229782
-8.7048e-05
-0.000349494
-0.000108781
-0.000448341
-0.000132002
-0.000523953
-0.000153288
-0.000575209
-0.000173178
-0.000601517
-0.000193274
-0.000605847
-0.000216679
-0.000597041
-0.000245054
-0.000581257
-0.000273281
-0.000558129
-0.000292845
-0.000519728
-0.000293918
-0.000447528
-0.000265062
-0.000311046
-0.000189575
-0.000122344
-3.68965e-05
0.000100023
0.000171478
0.000374862
0.000390084
0.000713235
0.00060372
0.00115589
0.000810287
0.00163447
0.000804582
0.00182884
0.000511795
0.00107587
0.00158378
0.00486721
0.0101552
0.0139006
0.0122269
0.00303098
0.0113241
0.00171541
0.0105898
0.000766223
0.00970099
-0.000167581
0.00855538
-0.00081903
0.00725981
-0.00123787
0.00590837
-0.00141874
0.00456995
-0.00138883
0.00330759
-0.00121027
0.00217179
-0.000941142
0.00117375
-0.000601818
0.000355598
-0.000304727
-0.00024766
-8.28571e-05
-0.000623526
2.27657e-05
-0.000827647
4.30649e-05
-0.000944447
2.85266e-05
-0.00103144
-5.46216e-08
-0.00110924
-3.09788e-05
-0.00118042
-6.08193e-05
-0.00124454
-8.91724e-05
-0.00130189
-0.00011583
-0.00135395
-0.000141208
-0.00140473
-0.000165903
-0.00146153
-0.000188251
-0.00153192
-0.000202894
-0.00162338
-0.000201381
-0.0017451
-0.000172197
-0.0019088
-0.000101366
-0.00212231
2.39417e-05
-0.00237244
0.000213228
-0.00268243
0.000481475
-0.00313774
0.000845395
-0.00383517
0.00130114
-0.00483969
0.00181482
-0.00626503
0.00222992
-0.00798178
0.00222854
-0.00747391
0.00107592
-0.00232034
0.0051013
0.00455787
0.0040979
0.00271881
0.00449999
0.000364127
0.00454078
-0.000208369
0.00413355
-0.000411797
0.00344998
-0.0005543
0.00260267
-0.000571428
0.00168393
-0.000470095
0.00076776
-0.000294099
-9.17485e-05
-8.16334e-05
-0.000790419
9.6853e-05
-0.00124871
0.000153568
-0.0014972
0.000165632
-0.00161945
0.000145011
-0.00168723
0.000110845
-0.00173531
7.66104e-05
-0.00178033
4.49628e-05
-0.00182887
1.7565e-05
-0.00188445
-5.23735e-06
-0.00194723
-2.63891e-05
-0.00201674
-4.63199e-05
-0.00209416
-6.37895e-05
-0.00218104
-7.90225e-05
-0.00227953
-8.97662e-05
-0.00239076
-9.16563e-05
-0.00251361
-7.85382e-05
-0.00264344
-4.23621e-05
-0.0027715
2.66951e-05
-0.00288549
0.000137932
-0.00298277
0.000310511
-0.00307174
0.000570443
-0.00315919
0.000932844
-0.00324275
0.00138471
-0.00327598
0.00184804
-0.00320002
0.00215396
-0.00283496
0.00186348
-0.00156218
-0.000196865
-0.0038076
-0.000440179
0.00505458
0.000856359
0.00142227
0.000823464
0.000397021
0.000553033
6.20624e-05
0.000177239
-3.60026e-05
-0.000343789
-3.32713e-05
-0.00093209
1.68736e-05
-0.00148211
7.99258e-05
-0.00191364
0.000137432
-0.00217657
0.000181291
-0.0022811
0.000201385
-0.00231587
0.000188338
-0.00231302
0.000162785
-0.00230186
0.000133853
-0.00229847
0.000107456
-0.00230684
8.49796e-05
-0.00232687
6.4996e-05
-0.0023561
4.6791e-05
-0.00239172
3.03823e-05
-0.00243403
1.59226e-05
-0.00248274
2.39472e-06
-0.0025373
-9.22796e-06
-0.00259747
-1.88585e-05
-0.00266165
-2.55803e-05
-0.00272599
-2.7321e-05
-0.00278364
-2.088e-05
-0.00282392
-2.0904e-06
-0.00283488
3.76598e-05
-0.00280401
0.000107059
-0.00270809
0.000214595
-0.00251409
0.000376442
-0.00219454
0.000613297
-0.00173419
0.000924359
-0.0011093
0.00122315
-0.000140082
0.00118474
0.00116317
0.000560234
0.0015754
-0.000609102
-0.00214995
-0.00793825
-0.0107906
-0.00569193
-0.00424677
-0.00383564
-0.00376433
-0.0037942
-0.00382363
-0.00380463
-0.00372389
-0.00358672
-0.00340663
-0.00320726
-0.00302163
-0.00286212
-0.00273199
-0.00262861
-0.00254798
-0.00248755
-0.00244546
-0.00241985
-0.00240874
-0.00241115
-0.00242513
-0.00244869
-0.00247888
-0.00251071
-0.00253599
-0.00254235
-0.00250881
-0.00240573
-0.00219496
-0.0018222
-0.00121245
-0.000291542
0.000928206
0.00210945
0.002666
0.00205296
)
;

boundaryField
{
    floor
    {
        type            calculated;
        value           nonuniform List<scalar> 
29
(
0
0
0
0
0
0
0
0
0
0
0
0
0
0
0
0
0
0
0
0
-3.9734e-06
-1.01195e-05
-1.53229e-05
-1.99793e-05
-1.66105e-06
-2.9715e-06
-8.65845e-06
-9.47644e-06
-8.36196e-06
)
;
    }
    ceiling
    {
        type            calculated;
        value           nonuniform List<scalar> 
43
(
-4.66415e-05
-4.5367e-05
-4.40972e-05
-2.28895e-05
-1.41104e-05
-9.23864e-06
-6.13339e-06
-3.843e-06
-2.12357e-06
-8.19676e-07
2.66223e-07
1.20195e-06
2.01595e-06
2.70872e-06
3.2727e-06
3.7209e-06
4.07632e-06
4.35448e-06
4.56125e-06
4.70035e-06
4.77949e-06
4.80954e-06
4.80073e-06
4.75927e-06
4.69515e-06
4.61245e-06
4.51326e-06
4.39893e-06
4.26988e-06
4.12485e-06
3.97432e-06
3.82458e-06
3.68104e-06
3.55138e-06
3.4499e-06
3.40672e-06
3.4978e-06
3.6842e-06
3.94218e-06
4.99284e-06
1.02735e-05
7.22794e-06
-5.65316e-05
)
;
    }
    sWall
    {
        type            calculated;
        value           uniform -0.000271641;
    }
    nWall
    {
        type            calculated;
        value           nonuniform List<scalar> 6(-4.85881e-05 -5.81344e-05 -6.27069e-05 -7.49207e-05 -8.22437e-05 -0.000101983);
    }
    sideWalls
    {
        type            empty;
        value           nonuniform 0();
    }
    glass1
    {
        type            calculated;
        value           nonuniform List<scalar> 9(-5.73182e-05 -0.00015445 -0.000236303 -0.000305993 -0.00036516 -0.000415029 -0.00045961 -0.000513549 -0.000573918);
    }
    glass2
    {
        type            calculated;
        value           nonuniform List<scalar> 2(-0.000258501 -0.00028636);
    }
    sun
    {
        type            calculated;
        value           uniform 0;
    }
    heatsource1
    {
        type            calculated;
        value           nonuniform List<scalar> 3(2.04189e-07 2.04131e-07 2.04148e-07);
    }
    heatsource2
    {
        type            calculated;
        value           nonuniform List<scalar> 4(5.11921e-08 5.12771e-08 0 0);
    }
    Table_master
    {
        type            calculated;
        value           nonuniform List<scalar> 9(-1.53139e-07 -1.53229e-07 -1.53262e-07 -1.53284e-07 -1.53299e-07 -1.5331e-07 -1.53315e-07 -1.5331e-07 -1.5328e-07);
    }
    Table_slave
    {
        type            calculated;
        value           nonuniform List<scalar> 9(1.53017e-07 1.53036e-07 1.53014e-07 1.52996e-07 1.52989e-07 1.52992e-07 1.53006e-07 1.53048e-07 1.53129e-07);
    }
    inlet
    {
        type            calculated;
        value           uniform -0.00662818;
    }
    outlet
    {
        type            calculated;
        value           nonuniform List<scalar> 2(0.00825653 0.00289773);
    }
}


// ************************************************************************* //
