// -*- C++ -*-
// File generated by PyFoam - sorry for the ugliness

FoamFile
{
 version 2.0;
 format ascii;
 class volVectorField;
 location "1600";
 object U;
}

dimensions [ 0 1 -1 0 0 0 0 ];

internalField nonuniform List<vector> 459
(
  (0.034197 0.0859071 0)
  (-0.167127 0.0254897 0)
  (-0.191891 0.0178457 0)
  (-0.222904 0.0121386 0)
  (-0.245338 0.00584392 0)
  (-0.258094 -0.000854449 0)
  (-0.259477 -0.00802519 0)
  (-0.248219 -0.0156921 0)
  (-0.224921 -0.0231507 0)
  (-0.191499 -0.0290656 0)
  (-0.1517 -0.0323351 0)
  (-0.109938 -0.0324255 0)
  (-0.070459 -0.0294989 0)
  (-0.0384268 -0.024705 0)
  (-0.0277639 -0.0198967 0)
  (-0.00648701 0.00908746 0)
  (-0.0298415 -0.0164117 0)
  (-0.00870894 -0.0262427 0)
  (0.0149863 -0.0203242 0)
  (0.0301366 -0.0139559 0)
  (0.0427943 -0.00906247 0)
  (0.0508459 -0.00527116 0)
  (0.0550766 -0.00328127 0)
  (0.0570113 -0.00248667 0)
  (0.057985 -0.0021468 0)
  (0.0586009 -0.00193734 0)
  (0.0589645 -0.00176964 0)
  (0.059021 -0.00157141 0)
  (0.0585967 -0.00118006 0)
  (0.057189 -0.00024332 0)
  (0.0537134 0.00172455 0)
  (0.0469844 0.00380501 0)
  (0.0412025 0.00544531 0)
  (-0.0138755 0.0201613 0)
  (0.208794 0.176025 0)
  (-0.156324 0.0674566 0)
  (-0.154795 0.053059 0)
  (-0.186966 0.0412115 0)
  (-0.209261 0.0277628 0)
  (-0.222327 0.0125884 0)
  (-0.224422 -0.00463129 0)
  (-0.214122 -0.0232923 0)
  (-0.192629 -0.0407754 0)
  (-0.162278 -0.0539714 0)
  (-0.126947 -0.0607607 0)
  (-0.09072 -0.0605254 0)
  (-0.0571562 -0.0538814 0)
  (-0.0296691 -0.0424717 0)
  (-0.0122279 -0.0288105 0)
  (0.00158869 -0.0108581 0)
  (0.000295505 0.0155842 0)
  (0.0614413 0.0367935 0)
  (0.0235491 -0.0173888 0)
  (0.0322273 -0.0309481 0)
  (0.0431962 -0.0277273 0)
  (0.0519711 -0.0200381 0)
  (0.05848 -0.0126292 0)
  (0.0613213 -0.00544129 0)
  (0.0618947 -0.00129711 0)
  (0.0618641 0.000436563 0)
  (0.0619802 0.00120625 0)
  (0.0621876 0.00167991 0)
  (0.0623394 0.00206824 0)
  (0.0623986 0.00253652 0)
  (0.062322 0.0033775 0)
  (0.0616255 0.00542187 0)
  (0.0580831 0.0111038 0)
  (0.0490398 0.0158375 0)
  (0.0454244 0.0189295 0)
  (-0.0508819 0.0438409 0)
  (0.369042 0.263446 0)
  (-0.173237 0.107482 0)
  (-0.11626 0.0858947 0)
  (-0.147661 0.0647547 0)
  (-0.167568 0.0425944 0)
  (-0.179798 0.0179357 0)
  (-0.181597 -0.0100726 0)
  (-0.170644 -0.0399573 0)
  (-0.149422 -0.0670423 0)
  (-0.121178 -0.0862712 0)
  (-0.0899904 -0.0949637 0)
  (-0.0593581 -0.0930627 0)
  (-0.0315592 -0.0820066 0)
  (-0.00866718 -0.0640779 0)
  (0.00835965 -0.0406078 0)
  (0.0194947 -0.0142486 0)
  (0.0237363 0.0228273 0)
  (0.110334 -0.0251897 0)
  (0.0741415 -0.0364353 0)
  (0.0684303 -0.0374728 0)
  (0.0697196 -0.0323667 0)
  (0.0708872 -0.0246388 0)
  (0.072075 -0.0178514 0)
  (0.0707588 -0.0143354 0)
  (0.0661087 -0.0101511 0)
  (0.0627183 -0.00786297 0)
  (0.0611624 -0.00655316 0)
  (0.0604753 -0.0057136 0)
  (0.0601063 -0.00513598 0)
  (0.0600358 -0.00463864 0)
  (0.0606816 -0.00385917 0)
  (0.0631013 -0.000900336 0)
  (0.0611174 0.0154166 0)
  (0.04841 0.0267597 0)
  (0.0519365 0.0342829 0)
  (-0.0836246 0.0682462 0)
  (0.513721 0.333781 0)
  (-0.208052 0.142981 0)
  (-0.0753151 0.113885 0)
  (-0.10542 0.0848577 0)
  (-0.119907 0.0564425 0)
  (-0.128972 0.0240763 0)
  (-0.127819 -0.0145786 0)
  (-0.113813 -0.0562811 0)
  (-0.0922241 -0.0922095 0)
  (-0.0670573 -0.115809 0)
  (-0.0418209 -0.124882 0)
  (-0.0188714 -0.120743 0)
  (0.0015577 -0.10553 0)
  (0.018359 -0.0827688 0)
  (0.0325954 -0.0559613 0)
  (0.0477756 -0.0269475 0)
  (0.0691753 0.00485488 0)
  (0.09957 0.0167441 0)
  (0.104654 -0.0219513 0)
  (0.09119 -0.0325585 0)
  (0.0822849 -0.0319198 0)
  (0.0771358 -0.0279412 0)
  (0.0731742 -0.022038 0)
  (0.0704186 -0.0145143 0)
  (0.071341 -0.00873022 0)
  (0.0758691 -0.00652657 0)
  (0.0797024 -0.00532411 0)
  (0.082191 -0.00449396 0)
  (0.083701 -0.00357462 0)
  (0.0838263 -0.00226961 0)
  (0.081482 -0.000316527 0)
  (0.0754075 0.00259354 0)
  (0.0631321 0.00696618 0)
  (0.0513019 0.0257097 0)
  (0.0392632 0.041606 0)
  (0.0562536 0.0541396 0)
  (-0.11865 0.0899252 0)
  (0.638999 0.388266 0)
  (-0.250668 0.171971 0)
  (-0.0345366 0.130067 0)
  (-0.0611829 0.0963914 0)
  (-0.0676505 0.064512 0)
  (-0.0707252 0.0270339 0)
  (-0.0607894 -0.0213442 0)
  (-0.0415798 -0.0739329 0)
  (-0.0210133 -0.1151 0)
  (-0.0017513 -0.139271 0)
  (0.014482 -0.145729 0)
  (0.0268893 -0.137934 0)
  (0.036612 -0.120057 0)
  (0.0444438 -0.0956566 0)
  (0.0516766 -0.0682418 0)
  (0.0602689 -0.0415812 0)
  (0.0729329 -0.021907 0)
  (0.0834985 -0.0207938 0)
  (0.0846059 -0.0282352 0)
  (0.0783097 -0.0289303 0)
  (0.0701297 -0.0260059 0)
  (0.063289 -0.0221681 0)
  (0.0580019 -0.0176512 0)
  (0.0546358 -0.0123517 0)
  (0.0540587 -0.00666237 0)
  (0.0559862 -0.00391192 0)
  (0.058311 -0.00297351 0)
  (0.0605735 -0.00232112 0)
  (0.0627259 -0.000936978 0)
  (0.064475 0.00180129 0)
  (0.0646252 0.00605407 0)
  (0.062524 0.012011 0)
  (0.057538 0.0202611 0)
  (0.0511054 0.0349904 0)
  (0.0411781 0.0525981 0)
  (0.0645179 0.072563 0)
  (-0.0237161 0.10183 0)
  (0.0460843 0.0307498 0)
  (-0.0624512 -0.0345506 0)
  (-0.272661 -0.0572105 0)
  (0.730136 0.433699 0)
  (-0.292277 0.191493 0)
  (-0.00330498 0.126647 0)
  (-0.0160283 0.09766 0)
  (-0.0119346 0.0669568 0)
  (-0.00632882 0.0240236 0)
  (0.0223802 -0.0385344 0)
  (0.0442098 -0.0942839 0)
  (0.0597321 -0.132456 0)
  (0.0691274 -0.151798 0)
  (0.0730628 -0.15427 0)
  (0.0729435 -0.143459 0)
  (0.0702721 -0.123403 0)
  (0.066551 -0.098094 0)
  (0.0632635 -0.0711943 0)
  (0.0618095 -0.0463497 0)
  (0.0630392 -0.0277959 0)
  (0.0638489 -0.0203084 0)
  (0.0605926 -0.0197194 0)
  (0.0536304 -0.0196704 0)
  (0.0456971 -0.0181539 0)
  (0.0389622 -0.0158426 0)
  (0.0339604 -0.0130874 0)
  (0.0309906 -0.00995275 0)
  (0.0303249 -0.00704485 0)
  (0.0316367 -0.00595564 0)
  (0.0339185 -0.00593187 0)
  (0.0367505 -0.00576866 0)
  (0.0399864 -0.00448059 0)
  (0.0434025 -0.00117164 0)
  (0.0467678 0.00462931 0)
  (0.0487744 0.012651 0)
  (0.0495925 0.0229488 0)
  (0.0505723 0.0369397 0)
  (0.0497956 0.0542861 0)
  (0.0731986 0.07709 0)
  (0.0523967 0.0953373 0)
  (0.0934601 0.0671296 0)
  (0.116315 0.0442442 0)
  (-0.129477 -0.00726577 0)
  (0.782136 0.474995 0)
  (-0.313229 0.176953 0)
  (0.0235222 0.0771487 0)
  (0.0426263 0.0738841 0)
  (0.0577765 0.0523445 0)
  (0.0844584 0.00117444 0)
  (0.118631 -0.0629453 0)
  (0.137914 -0.111741 0)
  (0.14431 -0.14121 0)
  (0.140517 -0.152791 0)
  (0.129281 -0.149452 0)
  (0.113521 -0.134949 0)
  (0.0958085 -0.113155 0)
  (0.0783831 -0.0879718 0)
  (0.0629276 -0.0626078 0)
  (0.0506763 -0.0401493 0)
  (0.0420684 -0.0236767 0)
  (0.0355774 -0.0152734 0)
  (0.0290372 -0.0127468 0)
  (0.0219421 -0.0122139 0)
  (0.0151925 -0.0115257 0)
  (0.00969732 -0.0105631 0)
  (0.00577055 -0.00947938 0)
  (0.00359352 -0.00835011 0)
  (0.00325609 -0.00758978 0)
  (0.00441408 -0.00784011 0)
  (0.00644286 -0.00862895 0)
  (0.00907783 -0.00912798 0)
  (0.0123652 -0.00850229 0)
  (0.0164636 -0.00577724 0)
  (0.0222214 0.000142756 0)
  (0.0287125 0.00894097 0)
  (0.0348919 0.0193667 0)
  (0.0425366 0.031741 0)
  (0.0509646 0.0459112 0)
  (0.0739142 0.064301 0)
  (0.0876476 0.0726327 0)
  (0.11962 0.0516875 0)
  (0.158905 0.0434912 0)
  (-0.0361012 0.0926069 0)
  (0.886815 0.477688 0)
  (-0.0706858 0.156597 0)
  (0.106072 0.00382641 0)
  (0.169255 -0.0165904 0)
  (0.182296 -0.035468 0)
  (0.217935 -0.0695154 0)
  (0.239751 -0.102227 0)
  (0.242255 -0.125575 0)
  (0.228252 -0.137057 0)
  (0.202693 -0.1369 0)
  (0.170446 -0.126871 0)
  (0.135739 -0.109603 0)
  (0.101611 -0.0877826 0)
  (0.0705459 -0.0646681 0)
  (0.0440025 -0.0426772 0)
  (0.023318 -0.0243671 0)
  (0.00895743 -0.0122283 0)
  (-0.000420452 -0.00671111 0)
  (-0.00705298 -0.0055932 0)
  (-0.0125901 -0.00593708 0)
  (-0.0173442 -0.0063697 0)
  (-0.0211446 -0.00671663 0)
  (-0.0239132 -0.0070508 0)
  (-0.0255939 -0.00746814 0)
  (-0.0262322 -0.00817931 0)
  (-0.0261309 -0.00935054 0)
  (-0.0256694 -0.0107355 0)
  (-0.0249833 -0.0119099 0)
  (-0.0239363 -0.0124008 0)
  (-0.0221487 -0.0116523 0)
  (-0.0187446 -0.00895611 0)
  (-0.0109419 -0.00351188 0)
  (-0.000373946 0.00432192 0)
  (0.0109017 0.0124647 0)
  (0.0235989 0.0190191 0)
  (0.0447446 0.0259779 0)
  (0.0649011 0.0205856 0)
  (0.0843821 -0.00148201 0)
  (0.142439 0.0479902 0)
  (-0.432846 0.20478 0)
  (1.03191 0.430052 0)
  (0.496908 0.285131 0)
  (0.50318 0.191472 0)
  (0.511691 0.11999 0)
  (0.487045 0.0684825 0)
  (0.444228 0.0150936 0)
  (0.394224 -0.033154 0)
  (0.340711 -0.0672906 0)
  (0.283409 -0.0848418 0)
  (0.224742 -0.087856 0)
  (0.168015 -0.0803738 0)
  (0.115995 -0.0664055 0)
  (0.0696909 -0.0486923 0)
  (0.0309907 -0.030642 0)
  (-0.000564343 -0.0144317 0)
  (-0.021498 -0.00432031 0)
  (-0.0326462 -0.000498158 0)
  (-0.0388007 9.37774e-05 0)
  (-0.0427516 -0.000762643 0)
  (-0.0460738 -0.00197097 0)
  (-0.0491508 -0.0031201 0)
  (-0.0519349 -0.00420657 0)
  (-0.0544106 -0.0052776 0)
  (-0.0565849 -0.00638207 0)
  (-0.0585832 -0.00758719 0)
  (-0.0606865 -0.00889838 0)
  (-0.0632248 -0.0101306 0)
  (-0.0664889 -0.010947 0)
  (-0.0707823 -0.0108682 0)
  (-0.0765095 -0.00925551 0)
  (-0.0841753 -0.00534432 0)
  (-0.0941875 0.00159194 0)
  (-0.104685 0.0112089 0)
  (-0.11834 0.0234519 0)
  (-0.139974 0.0383939 0)
  (-0.171745 0.0554672 0)
  (-0.217608 0.0717005 0)
  (-0.274044 0.0849525 0)
  (-0.350322 0.0934935 0)
  (-0.617729 0.0906481 0)
  (-0.147979 0.0828743 0)
  (0.134812 0.0617607 0)
  (0.218043 0.00597214 0)
  (0.201557 -0.0288708 0)
  (0.185818 -0.0431792 0)
  (0.163272 -0.0478041 0)
  (0.130766 -0.0461215 0)
  (0.0922002 -0.0396756 0)
  (0.0523364 -0.0298898 0)
  (0.0143944 -0.0176061 0)
  (-0.0229123 -0.00378325 0)
  (-0.0466566 0.00394474 0)
  (-0.0611294 0.00743743 0)
  (-0.0681068 0.00791311 0)
  (-0.0715121 0.00718693 0)
  (-0.0737225 0.00627281 0)
  (-0.0755958 0.00541481 0)
  (-0.0774722 0.0047037 0)
  (-0.0794781 0.00406235 0)
  (-0.0817355 0.00333402 0)
  (-0.0842591 0.00243601 0)
  (-0.08703 0.00143829 0)
  (-0.0901276 0.000425676 0)
  (-0.0936679 -0.000464387 0)
  (-0.0977317 -0.000995651 0)
  (-0.102329 -0.000864467 0)
  (-0.107389 0.0002702 0)
  (-0.112738 0.00275837 0)
  (-0.117911 0.00699467 0)
  (-0.121959 0.0135991 0)
  (-0.125334 0.0236875 0)
  (-0.127995 0.0377699 0)
  (-0.130435 0.0554364 0)
  (-0.132435 0.0743692 0)
  (-0.130806 0.08759 0)
  (-0.113358 0.0806993 0)
  (-0.0734422 0.0262593 0)
  (-0.198273 -0.176501 0)
  (-0.0232984 0.230967 0)
  (0.0636027 0.0995011 0)
  (0.0376258 0.0189761 0)
  (0.0254799 -0.00443944 0)
  (0.0161 -0.00980488 0)
  (-0.00256753 -0.0111748 0)
  (-0.0275301 -0.00868071 0)
  (-0.0532434 -0.00407272 0)
  (-0.0750164 0.000454894 0)
  (-0.0899993 0.00348618 0)
  (-0.0971746 0.00377098 0)
  (-0.0996725 0.00156299 0)
  (-0.0999493 -0.00138117 0)
  (-0.0992302 -0.00471822 0)
  (-0.0986139 -0.00814036 0)
  (-0.0985035 -0.0114247 0)
  (-0.0989369 -0.0144653 0)
  (-0.0998203 -0.0170739 0)
  (-0.10101 -0.0190862 0)
  (-0.102399 -0.0204291 0)
  (-0.103979 -0.0211358 0)
  (-0.105793 -0.0212979 0)
  (-0.107822 -0.0209273 0)
  (-0.110055 -0.0201825 0)
  (-0.112429 -0.0190613 0)
  (-0.114768 -0.0173735 0)
  (-0.116762 -0.0147855 0)
  (-0.117968 -0.0107785 0)
  (-0.117916 -0.00512762 0)
  (-0.115792 0.00255253 0)
  (-0.110294 0.0129555 0)
  (-0.100097 0.0267201 0)
  (-0.0846204 0.0436682 0)
  (-0.0642743 0.0607286 0)
  (-0.0403655 0.0698192 0)
  (0.0280257 0.0381435 0)
  (0.147496 -0.0413589 0)
  (-0.049526 -0.0653926 0)
  (-0.103478 -0.348701 0)
  (-0.439248 -0.12031 0)
  (-0.310725 0.0956561 0)
  (-0.226504 -0.0202716 0)
  (-0.180077 -0.041413 0)
  (-0.165665 -0.0292548 0)
  (-0.163263 -0.0162978 0)
  (-0.164591 -0.00597653 0)
  (-0.165153 0.00265242 0)
  (-0.162892 0.0102077 0)
  (-0.158182 0.0171486 0)
  (-0.151131 0.0234751 0)
  (-0.142664 0.0289246 0)
  (-0.134208 0.0335082 0)
  (-0.126614 0.0377984 0)
  (-0.120207 0.0420269 0)
  (-0.114993 0.046303 0)
  (-0.110795 0.0504686 0)
  (-0.10746 0.0541849 0)
  (-0.104887 0.0571059 0)
  (-0.102997 0.0589957 0)
  (-0.101725 0.0597702 0)
  (-0.101018 0.0594835 0)
  (-0.100837 0.0582576 0)
  (-0.101142 0.0561925 0)
  (-0.101855 0.0536475 0)
  (-0.10285 0.0508533 0)
  (-0.103916 0.047916 0)
  (-0.104698 0.0449108 0)
  (-0.10462 0.0418943 0)
  (-0.102626 0.0395956 0)
  (-0.0971128 0.0386852 0)
  (-0.0859079 0.0398309 0)
  (-0.0670713 0.0437922 0)
  (-0.0406697 0.0510752 0)
  (-0.00576161 0.0607507 0)
  (0.0322333 0.057432 0)
  (0.0901755 0.0205894 0)
  (0.11917 -0.0181177 0)
  (-0.505367 0.0602867 0)
)
;

boundaryField
{
  floor
  {
    type noSlip;
  }
  ceiling
  {
    type noSlip;
  }
  sWall
  {
    type noSlip;
  }
  nWall
  {
    type noSlip;
  }
  sideWalls
  {
    type empty;
  }
  glass1
  {
    type noSlip;
  }
  glass2
  {
    type noSlip;
  }
  sun
  {
    type noSlip;
  }
  heatsource1
  {
    type noSlip;
  }
  heatsource2
  {
    type noSlip;
  }
  Table_master
  {
    type noSlip;
  }
  Table_slave
  {
    type noSlip;
  }
  inlet
  {
    type fixedValue;
    value uniform (0.3 0 0);
  }
  outlet
  {
    type zeroGradient;
  }
} 	// ************************************************************************* //

