/*--------------------------------*- C++ -*----------------------------------*\
  =========                 |
  \\      /  F ield         | OpenFOAM: The Open Source CFD Toolbox
   \\    /   O peration     | Website:  https://openfoam.org
    \\  /    A nd           | Version:  6
     \\/     M anipulation  |
\*---------------------------------------------------------------------------*/
FoamFile
{
    version     2.0;
    format      ascii;
    class       volScalarField;
    location    "1800";
    object      nut;
}
// * * * * * * * * * * * * * * * * * * * * * * * * * * * * * * * * * * * * * //

dimensions      [0 2 -1 0 0 0 0];

internalField   nonuniform List<scalar> 
459
(
0.00106531
0.00116156
0.0011836
0.00124013
0.00129253
0.00134198
0.00139114
0.00143802
0.00147089
0.00148347
0.00146974
0.00142547
0.0013486
0.00124127
0.00111531
0.000464495
0.000554425
0.000626743
0.000633328
0.000615567
0.00058969
0.000553455
0.000516466
0.000482812
0.000453017
0.000426713
0.000403416
0.000382724
0.000364231
0.00034726
0.000330967
0.000314189
0.00030374
0.000278044
0.00145076
0.00344319
0.00325949
0.00378135
0.00429297
0.00480575
0.00525081
0.00559752
0.00591932
0.0061865
0.00636243
0.00640954
0.00628281
0.00587564
0.00473806
0.00113568
0.000707571
0.000484107
0.0010209
0.00143275
0.00174583
0.00193223
0.00194311
0.00153444
0.00131774
0.00116408
0.0010468
0.000954196
0.000879246
0.000815809
0.000756803
0.000699533
0.000648569
0.000603675
0.000717346
0.000369647
0.0017716
0.00467078
0.00397686
0.00495404
0.00540341
0.00573017
0.00598534
0.00621033
0.00647111
0.00675351
0.0070241
0.00723233
0.00733259
0.00724856
0.00675945
0.00518443
0.00117122
0.000909181
0.00132736
0.00173342
0.00212895
0.00242439
0.00239696
0.000786984
0.000695999
0.000622088
0.000562089
0.000513051
0.000472615
0.000439033
0.000411171
0.000388538
0.000419733
0.000484546
0.00081172
0.000431803
0.0020801
0.00597463
0.00392648
0.00517486
0.00551474
0.00559721
0.005666
0.0057934
0.0060122
0.00630663
0.0066446
0.00695428
0.00718588
0.00727329
0.00716863
0.00660637
0.00442292
0.00137037
0.00164379
0.00210067
0.00260373
0.00305433
0.00336698
0.0032096
0.000891132
0.000815379
0.000761421
0.000720377
0.000685288
0.000652426
0.000620753
0.00058731
0.000548318
0.000514578
0.000520136
0.000944084
0.000481068
0.00239484
0.00767591
0.00424407
0.00493539
0.00540319
0.00535605
0.0053097
0.00540557
0.00561047
0.00591184
0.00628586
0.00662712
0.00686453
0.00695425
0.0068985
0.00667385
0.00610766
0.00517804
0.00486505
0.00481994
0.00487399
0.00493647
0.00494802
0.00479524
0.0040772
0.0037284
0.00352569
0.00336811
0.00320099
0.00296217
0.00263196
0.00222668
0.00177456
0.00132479
0.000978512
0.000966694
0.000655792
0.000594008
0.000716183
0.000804408
0.00272925
0.00954283
0.00583595
0.00477118
0.00522364
0.00537142
0.00522651
0.00531624
0.0054862
0.00576581
0.00613056
0.00648678
0.0067232
0.00677362
0.00665452
0.00645293
0.00626528
0.00615058
0.00616879
0.0062058
0.00618768
0.00610379
0.00595656
0.00573435
0.00539794
0.0050952
0.00482754
0.00457242
0.00431501
0.00404054
0.00369295
0.00325582
0.0027282
0.00214237
0.00161642
0.00119125
0.000911953
0.000777615
0.00110553
0.000841449
0.00304317
0.0108913
0.00836484
0.00605626
0.00565965
0.00568958
0.00554736
0.00546701
0.00554976
0.00581643
0.00620127
0.00657573
0.006801
0.00680169
0.0066143
0.00639545
0.00634982
0.00653796
0.006768
0.00684826
0.00674995
0.00652119
0.00620582
0.0058365
0.00544776
0.00509411
0.00477915
0.00449208
0.00422971
0.00399652
0.00379163
0.00351173
0.00310848
0.00260884
0.00212043
0.00166877
0.00134834
0.00125452
0.00128315
0.000964887
0.00311105
0.00988112
0.00857477
0.00760113
0.00700831
0.00634437
0.00578936
0.00555793
0.00566499
0.00602531
0.00649003
0.0068835
0.00705313
0.00694954
0.00667004
0.00646076
0.00655787
0.00686508
0.00699696
0.00686066
0.00653022
0.00608077
0.0055798
0.00509298
0.0046712
0.00432973
0.00405224
0.00382471
0.00364501
0.00351846
0.00345217
0.00342417
0.00323164
0.00291685
0.00263446
0.00249326
0.00260552
0.00301217
0.00367694
0.00149649
0.0030361
0.00362529
0.00409491
0.00424243
0.00425461
0.00435509
0.00464297
0.00514559
0.00581772
0.00652657
0.00710472
0.00740689
0.00733788
0.0069666
0.00657567
0.00651245
0.00658771
0.00659261
0.00638905
0.00597937
0.00544107
0.0048622
0.00432681
0.00388829
0.00355528
0.00330464
0.00310796
0.00294614
0.00280757
0.0026831
0.00256457
0.00245127
0.00236063
0.00229348
0.00226783
0.0022758
0.0022572
0.00215899
0.00201285
0.00139971
0.00182673
0.00325914
0.0045174
0.00556865
0.00642532
0.00719574
0.00779495
0.00809594
0.008057
0.00769696
0.00706992
0.00637165
0.00595315
0.00580335
0.00563337
0.00531412
0.00485333
0.0043211
0.00378971
0.00332528
0.00296778
0.00271185
0.00253247
0.00240448
0.00231091
0.0022424
0.00219439
0.00216499
0.00215694
0.0021718
0.00219616
0.00222659
0.00225504
0.00225629
0.00219026
0.0020453
0.00183491
0.00114872
0.00212445
0.00457438
0.00626459
0.00706447
0.00760567
0.00798218
0.00794746
0.00744308
0.00667522
0.00585618
0.00517167
0.00468061
0.0043525
0.00405366
0.00369145
0.00328413
0.00288427
0.00254087
0.00227935
0.00209741
0.00197358
0.00189126
0.00184356
0.00182333
0.00182516
0.00184566
0.00188187
0.00192959
0.00199483
0.00207462
0.00216625
0.00226301
0.00234926
0.00240679
0.00238762
0.00240188
0.00237259
0.00116801
0.0019701
0.00196488
0.00200127
0.00207432
0.00187984
0.00172647
0.00165391
0.00157951
0.00147122
0.00133736
0.00118531
0.001035
0.000902521
0.000797822
0.000722191
0.000668773
0.00063028
0.000602635
0.00058428
0.000574507
0.000572388
0.000576744
0.000586528
0.000601233
0.000619847
0.000642094
0.000668078
0.000698111
0.000732795
0.000773255
0.000818787
0.000869599
0.000926305
0.000989471
0.00105888
0.00114261
0.00116868
0.00113868
0.00106664
0.000989866
)
;

boundaryField
{
    floor
    {
        type            nutkWallFunction;
        Cmu             0.09;
        kappa           0.41;
        E               9.8;
        value           nonuniform List<scalar> 
29
(
0.000134205
5.51514e-05
6.66218e-05
7.56791e-05
7.64972e-05
7.4288e-05
7.10553e-05
6.64994e-05
6.18107e-05
5.75085e-05
5.36685e-05
5.02519e-05
4.72037e-05
4.44775e-05
4.2025e-05
3.97602e-05
3.75723e-05
3.53047e-05
3.38843e-05
3.03634e-05
3.03633e-05
4.27443e-05
5.09144e-05
5.72839e-05
0.000134205
5.51513e-05
5.76745e-05
0.000109979
0.000163493
)
;
    }
    ceiling
    {
        type            nutkWallFunction;
        Cmu             0.09;
        kappa           0.41;
        E               9.8;
        value           nonuniform List<scalar> 
43
(
0.00023009
0.000229438
0.000233399
0.000241425
0.000220256
0.000203377
0.000195335
0.000187046
0.000174898
0.00015974
0.000142313
0.000124835
0.000109187
9.66322e-05
8.74428e-05
8.08839e-05
7.61186e-05
7.26747e-05
7.03776e-05
6.9151e-05
6.88846e-05
6.94319e-05
7.06594e-05
7.24995e-05
7.4821e-05
7.75847e-05
8.0798e-05
8.44934e-05
8.87378e-05
9.36589e-05
9.91608e-05
0.000105259
0.000112015
0.000119485
0.000127631
0.000137377
0.000140395
0.000136922
0.000128538
0.000119532
0.000343887
0.000404791
0.000246653
)
;
    }
    sWall
    {
        type            nutkWallFunction;
        Cmu             0.09;
        kappa           0.41;
        E               9.8;
        value           uniform 0.000230151;
    }
    nWall
    {
        type            nutkWallFunction;
        Cmu             0.09;
        kappa           0.41;
        E               9.8;
        value           nonuniform List<scalar> 6(9.7428e-05 0.000101887 0.000116589 0.000138095 0.000140328 0.000119538);
    }
    sideWalls
    {
        type            empty;
    }
    glass1
    {
        type            nutkWallFunction;
        Cmu             0.09;
        kappa           0.41;
        E               9.8;
        value           nonuniform List<scalar> 9(0.000128481 0.000172811 0.000208688 0.000242518 0.00027648 0.00031205 0.000345028 0.000352121 0.000344315);
    }
    glass2
    {
        type            nutkWallFunction;
        Cmu             0.09;
        kappa           0.41;
        E               9.8;
        value           nonuniform List<scalar> 2(0.000177822 0.000166892);
    }
    sun
    {
        type            nutkWallFunction;
        Cmu             0.09;
        kappa           0.41;
        E               9.8;
        value           nonuniform List<scalar> 
14
(
0.000128384
0.000139568
0.000142115
0.000148623
0.000154627
0.000160267
0.00016585
0.000171154
0.000174862
0.000176279
0.000174732
0.000169735
0.000161018
0.000148753
)
;
    }
    heatsource1
    {
        type            nutkWallFunction;
        Cmu             0.09;
        kappa           0.41;
        E               9.8;
        value           nonuniform List<scalar> 3(7.15977e-05 8.67085e-05 9.74272e-05);
    }
    heatsource2
    {
        type            nutkWallFunction;
        Cmu             0.09;
        kappa           0.41;
        E               9.8;
        value           nonuniform List<scalar> 4(0.000136567 8.5655e-05 8.5655e-05 0.000140681);
    }
    Table_master
    {
        type            nutkWallFunction;
        Cmu             0.09;
        kappa           0.41;
        E               9.8;
        value           nonuniform List<scalar> 9(9.53217e-05 8.42355e-05 7.51023e-05 6.75918e-05 6.13806e-05 5.62038e-05 5.18624e-05 4.82289e-05 4.52543e-05);
    }
    Table_slave
    {
        type            nutkWallFunction;
        Cmu             0.09;
        kappa           0.41;
        E               9.8;
        value           nonuniform List<scalar> 9(0.000107829 9.87498e-05 9.2223e-05 8.72217e-05 8.29191e-05 7.88658e-05 7.49357e-05 7.07595e-05 6.58536e-05);
    }
    inlet
    {
        type            calculated;
        value           uniform 0.000100623;
    }
    outlet
    {
        type            calculated;
        value           nonuniform List<scalar> 2(0.0019701 0.00196488);
    }
}


// ************************************************************************* //
