/*--------------------------------*- C++ -*----------------------------------*\
  =========                 |
  \\      /  F ield         | OpenFOAM: The Open Source CFD Toolbox
   \\    /   O peration     | Website:  https://openfoam.org
    \\  /    A nd           | Version:  6
     \\/     M anipulation  |
\*---------------------------------------------------------------------------*/
FoamFile
{
    version     2.0;
    format      ascii;
    class       volScalarField;
    location    "700";
    object      alphat;
}
// * * * * * * * * * * * * * * * * * * * * * * * * * * * * * * * * * * * * * //

dimensions      [1 -1 -1 0 0 0 0];

internalField   nonuniform List<scalar> 
459
(
0.00126299
0.00138059
0.00140884
0.00147706
0.00154069
0.0016013
0.00166246
0.00171744
0.00175364
0.00176329
0.00173957
0.00167788
0.00157423
0.00142744
0.00125067
0.000548293
0.000651321
0.000739689
0.000756697
0.000738615
0.000709278
0.000664608
0.000618452
0.000576529
0.00053956
0.000507053
0.000478383
0.00045297
0.00043036
0.000409709
0.000389999
0.000369909
0.000357417
0.000327267
0.00171105
0.00412208
0.00392244
0.00455162
0.00517396
0.00578926
0.00630108
0.00671946
0.00710019
0.00740716
0.00759988
0.00764269
0.00749303
0.00704718
0.0058746
0.00130853
0.00086754
0.000564169
0.00123405
0.00176254
0.00217495
0.00242773
0.0024368
0.00187538
0.00159327
0.00139726
0.00124962
0.00113411
0.00104122
0.000963873
0.000892074
0.000822136
0.000759358
0.000705105
0.000841284
0.000431517
0.0020816
0.00558835
0.00480322
0.00592388
0.00644524
0.00682812
0.00712968
0.00741673
0.00774419
0.00809259
0.00841691
0.00866504
0.00878735
0.00866643
0.0080645
0.0061162
0.00137845
0.0010253
0.00155284
0.00208949
0.00263019
0.00303842
0.00299645
0.00094408
0.000829802
0.000737493
0.00066302
0.000602504
0.000552862
0.000511817
0.000477962
0.000450723
0.000488354
0.00056631
0.000960364
0.000504228
0.00243562
0.0071051
0.00476498
0.00617096
0.00653099
0.00662767
0.00673477
0.00692084
0.00720966
0.00758855
0.00799947
0.00837179
0.00864796
0.00872392
0.00857625
0.00783721
0.00497863
0.00159894
0.00192117
0.00249132
0.00315269
0.00376492
0.00419117
0.00397834
0.00107206
0.000975248
0.000905673
0.000852402
0.000807043
0.000765425
0.000725392
0.000683418
0.000635026
0.000594636
0.000606657
0.00113036
0.000561384
0.0027955
0.00907273
0.00514471
0.00592811
0.00639807
0.00634618
0.00633417
0.00648694
0.00675166
0.00714814
0.0075987
0.00800034
0.00826545
0.00835428
0.00828273
0.00801423
0.00732228
0.00625728
0.00591811
0.00590882
0.00602005
0.00612857
0.00615015
0.00593157
0.00497074
0.00449194
0.00420728
0.00398869
0.00376632
0.00345998
0.00305383
0.0025659
0.00203079
0.00151166
0.00112403
0.00113542
0.000772548
0.000694965
0.000836003
0.00094011
0.00317761
0.0112334
0.00700992
0.00581739
0.00629402
0.00642021
0.00629373
0.00639873
0.00661418
0.00697675
0.00743185
0.00785005
0.0081031
0.00813606
0.00799863
0.00780882
0.00766642
0.00760969
0.00768302
0.00775452
0.00774189
0.00763313
0.00743095
0.00711781
0.00664077
0.0062078
0.00582725
0.00546973
0.00511472
0.00474142
0.00429361
0.00375578
0.00312981
0.00245509
0.00186765
0.00138874
0.00108435
0.000929082
0.00131228
0.000985436
0.00353343
0.0127745
0.00993204
0.00736075
0.0069647
0.0068888
0.00664538
0.00654266
0.00667994
0.00704759
0.00753614
0.00797409
0.00820511
0.00817358
0.00796925
0.00780941
0.00791571
0.00826024
0.0085661
0.00865199
0.00851571
0.0082212
0.00781844
0.00733509
0.00679859
0.00628516
0.00581432
0.00538225
0.00499044
0.00464687
0.00435428
0.00401948
0.00356491
0.00300618
0.00247451
0.0019846
0.00164273
0.00152387
0.0015114
0.00112876
0.0036064
0.0114893
0.0100277
0.00896785
0.00821198
0.0073659
0.00676564
0.00659268
0.00682475
0.00733154
0.00791597
0.00836147
0.00851207
0.00836085
0.00809038
0.00801727
0.00834056
0.00877134
0.00890135
0.00872966
0.00833559
0.00779117
0.00715591
0.00649068
0.00586243
0.00531809
0.00486206
0.00448885
0.00419915
0.00399612
0.00388075
0.00383124
0.00370262
0.00338574
0.00311318
0.00298945
0.0031038
0.00343995
0.00424313
0.00169989
0.00351465
0.00419354
0.00472973
0.00487563
0.00491676
0.00510844
0.0055548
0.00626865
0.0071579
0.00803583
0.00869849
0.00897633
0.00881235
0.00838053
0.00816315
0.00824554
0.00841242
0.00842644
0.00818536
0.00772119
0.00709067
0.00635924
0.00561306
0.0049351
0.00437823
0.00394703
0.00361816
0.00336752
0.00317584
0.00302597
0.00290238
0.00279393
0.00271344
0.00265696
0.00263543
0.00264121
0.00261562
0.00250871
0.00233582
0.00157409
0.00211621
0.0037833
0.005452
0.00686171
0.00800536
0.00897086
0.00962248
0.00986611
0.00970565
0.009179
0.00840756
0.00775272
0.00749358
0.00742311
0.00725982
0.00690363
0.00636638
0.00570746
0.00500784
0.00435048
0.00379185
0.00335681
0.00304192
0.00282169
0.00267046
0.00257021
0.00250884
0.00247857
0.00247699
0.0025048
0.0025461
0.00259638
0.00264937
0.00268502
0.0026714
0.00259439
0.00228427
0.00125547
0.00249713
0.005493
0.00773651
0.00870651
0.00939736
0.00969247
0.00938308
0.0086612
0.00776107
0.00690824
0.00625421
0.00582055
0.00553628
0.00523668
0.0048505
0.00438838
0.00389069
0.00341355
0.00300824
0.00269921
0.00248231
0.00233943
0.00224649
0.00218879
0.00216087
0.00216175
0.00218653
0.00223044
0.00229694
0.00238239
0.00248322
0.00259199
0.00269202
0.00275935
0.00277286
0.00270503
0.00195746
0.00128351
0.00213842
0.00225215
0.00233519
0.00240675
0.00218926
0.0020277
0.00195967
0.00186339
0.00172843
0.0015642
0.0013911
0.001227
0.00108658
0.000977604
0.000897607
0.000837527
0.000789879
0.00075084
0.000719567
0.000696635
0.000682432
0.000676524
0.000677998
0.00068605
0.000700161
0.000720306
0.000746316
0.000777826
0.000815432
0.000860155
0.000911357
0.000969086
0.00103373
0.00110554
0.00118363
0.00126744
0.00127802
0.00114298
0.00108343
0.00128235
)
;

boundaryField
{
    floor
    {
        type            compressible::alphatWallFunction;
        Prt             0.85;
        value           nonuniform List<scalar> 
29
(
0.000177121
7.65928e-05
9.20193e-05
0.000105013
0.000107493
0.000104858
0.000100565
9.39876e-05
8.71341e-05
8.08545e-05
7.52702e-05
7.03206e-05
6.5922e-05
6.19954e-05
5.84784e-05
5.52454e-05
5.21403e-05
4.89542e-05
4.6962e-05
4.21159e-05
4.21153e-05
5.86588e-05
6.98884e-05
7.85723e-05
0.000177119
7.65919e-05
7.89908e-05
0.000145851
0.000224243
)
;
    }
    ceiling
    {
        type            compressible::alphatWallFunction;
        Prt             0.85;
        value           nonuniform List<scalar> 
43
(
0.000294979
0.000309643
0.000320302
0.000329576
0.000301719
0.000280818
0.000271967
0.000259371
0.000241586
0.000219732
0.000196418
0.000174011
0.000154564
0.000139272
0.00012792
0.000119316
0.00011244
0.000106769
0.0001022
9.88348e-05
9.67435e-05
9.58716e-05
9.60887e-05
9.72753e-05
9.9351e-05
0.000102306
0.000106106
0.000110689
0.00011613
0.000122562
0.000129877
0.000138067
0.000147172
0.000157207
0.000168035
0.000179567
0.000181016
0.000162411
0.00015413
0.000181619
0.000468365
0.000550927
0.000340837
)
;
    }
    sWall
    {
        type            compressible::alphatWallFunction;
        Prt             0.85;
        value           uniform 0.000293761;
    }
    nWall
    {
        type            compressible::alphatWallFunction;
        Prt             0.85;
        value           nonuniform List<scalar> 6(0.000133636 0.000140042 0.000160092 0.000177602 0.00018144 0.00018129);
    }
    sideWalls
    {
        type            empty;
    }
    glass1
    {
        type            compressible::alphatWallFunction;
        Prt             0.85;
        value           nonuniform List<scalar> 9(0.000174437 0.000233967 0.000282019 0.000327156 0.000372393 0.000419805 0.000463469 0.000472499 0.000461537);
    }
    glass2
    {
        type            compressible::alphatWallFunction;
        Prt             0.85;
        value           nonuniform List<scalar> 2(0.00023606 0.00021945);
    }
    sun
    {
        type            compressible::alphatWallFunction;
        Prt             0.85;
        value           nonuniform List<scalar> 
14
(
0.000178836
0.000194862
0.000198691
0.000207904
0.000216454
0.000224563
0.00023271
0.000240007
0.000244795
0.000246069
0.000242933
0.000234755
0.000220941
0.000201201
)
;
    }
    heatsource1
    {
        type            compressible::alphatWallFunction;
        Prt             0.85;
        value           nonuniform List<scalar> 3(9.8577e-05 0.000119084 0.000133955);
    }
    heatsource2
    {
        type            compressible::alphatWallFunction;
        Prt             0.85;
        value           nonuniform List<scalar> 4(0.00018518 0.000123614 0.000123612 0.000194697);
    }
    Table_master
    {
        type            compressible::alphatWallFunction;
        Prt             0.85;
        value           nonuniform List<scalar> 9(0.000134517 0.000118191 0.000104808 9.38642e-05 8.48607e-05 7.73918e-05 7.11534e-05 6.59603e-05 6.17484e-05);
    }
    Table_slave
    {
        type            compressible::alphatWallFunction;
        Prt             0.85;
        value           nonuniform List<scalar> 9(0.000152531 0.000138931 0.00012906 0.000121442 0.000114911 0.00010888 0.000103042 9.68778e-05 8.97141e-05);
    }
    inlet
    {
        type            fixedValue;
        value           uniform 1.94e-05;
    }
    outlet
    {
        type            zeroGradient;
    }
}


// ************************************************************************* //
