/*--------------------------------*- C++ -*----------------------------------*\
  =========                 |
  \\      /  F ield         | OpenFOAM: The Open Source CFD Toolbox
   \\    /   O peration     | Website:  https://openfoam.org
    \\  /    A nd           | Version:  6
     \\/     M anipulation  |
\*---------------------------------------------------------------------------*/
FoamFile
{
    version     2.0;
    format      ascii;
    class       volScalarField;
    location    "700";
    object      epsilon;
}
// * * * * * * * * * * * * * * * * * * * * * * * * * * * * * * * * * * * * * //

dimensions      [0 2 -3 0 0 0 0];

internalField   nonuniform List<scalar> 
459
(
0.000455532
0.000593459
0.000630555
0.000726638
0.000824616
0.000925789
0.00103592
0.00114208
0.0012157
0.00123573
0.00118639
0.00106449
0.000879108
0.000655396
0.000440833
3.71823e-05
6.23159e-05
9.12713e-05
9.77178e-05
9.08841e-05
8.04832e-05
6.62173e-05
5.33594e-05
4.32288e-05
3.54362e-05
2.94108e-05
2.46996e-05
2.09696e-05
1.79844e-05
1.55182e-05
1.33852e-05
1.14219e-05
1.0304e-05
7.91182e-06
0.00113474
0.00163165
0.000556842
0.000540962
0.000567883
0.000615359
0.000688313
0.000778856
0.000858756
0.000899766
0.000883489
0.000809411
0.000689103
0.00054693
0.000431663
0.000504852
0.000147126
4.05098e-05
9.3154e-05
0.000108211
0.000103786
9.22528e-05
8.00408e-05
7.46392e-05
6.0108e-05
4.7053e-05
3.6821e-05
2.90407e-05
2.31529e-05
1.86782e-05
1.5289e-05
1.27861e-05
1.12042e-05
1.04837e-05
2.64165e-05
1.81348e-05
0.002047
0.00394365
0.000678269
0.00051464
0.00054237
0.000615777
0.000725779
0.000856874
0.000965754
0.00101911
0.00100404
0.000928289
0.000803946
0.000659396
0.000536527
0.000475364
0.000590202
0.000243051
0.00020304
0.000168274
0.000139191
0.000115076
0.000100679
0.000189813
0.00012889
9.04836e-05
6.57468e-05
4.93371e-05
3.81191e-05
3.0244e-05
2.46307e-05
2.06551e-05
1.56635e-05
1.31695e-05
5.09456e-05
2.89334e-05
0.00328541
0.00813324
0.00105457
0.000520099
0.00053351
0.000639548
0.00081048
0.00100012
0.00112976
0.00117825
0.00114761
0.00105445
0.000904528
0.00074668
0.000611742
0.000526982
0.000511211
0.000921352
0.000540448
0.000338239
0.000234505
0.000174517
0.000136552
0.000119237
0.00027808
0.000209365
0.000167693
0.000139821
0.000118676
0.000101253
8.61873e-05
7.20776e-05
5.7826e-05
3.38678e-05
2.20037e-05
8.80035e-05
3.9933e-05
0.00497685
0.0144858
0.0020569
0.000609864
0.000547426
0.000699329
0.00101636
0.00127133
0.00139149
0.00140706
0.00134022
0.00120735
0.00102452
0.000823562
0.000638063
0.000493333
0.000400671
0.000366472
0.000306443
0.000250585
0.000204704
0.000167423
0.000137256
0.000115415
0.000110804
0.000102147
9.37513e-05
8.56397e-05
7.73545e-05
6.87976e-05
6.03243e-05
5.2313e-05
4.49916e-05
3.55299e-05
2.73227e-05
6.18134e-05
4.71682e-05
7.58288e-05
0.000132061
0.000187807
0.0073218
0.0215523
0.00460863
0.00113256
0.000783168
0.00100386
0.00155933
0.00176511
0.00179839
0.0017397
0.00161484
0.00142558
0.00118306
0.000918958
0.000674561
0.000484195
0.000361187
0.000296768
0.000257995
0.000224651
0.0001916
0.000160607
0.000133765
0.000113242
0.000101473
9.52336e-05
9.11686e-05
8.71515e-05
8.20509e-05
7.49905e-05
6.56369e-05
5.585e-05
4.69234e-05
3.90069e-05
3.4355e-05
4.6342e-05
4.95185e-05
5.934e-05
0.000244483
0.000216229
0.0100828
0.0258119
0.00956157
0.00368076
0.00250543
0.00265922
0.00271025
0.00259272
0.00241351
0.00221443
0.00198566
0.0017053
0.00137533
0.00102989
0.0007178
0.000484371
0.000342064
0.000270867
0.000233295
0.000203135
0.000173258
0.000145763
0.000123304
0.000107726
9.991e-05
9.79209e-05
9.85834e-05
0.000100026
0.000101195
0.000100674
9.55139e-05
8.55451e-05
7.54361e-05
6.70431e-05
6.48371e-05
7.34403e-05
9.2332e-05
0.000140196
0.000336459
0.000324933
0.0107443
0.028489
0.0156033
0.0100936
0.00737963
0.0056803
0.00450925
0.0037344
0.003211
0.00281334
0.00243968
0.00202638
0.001571
0.0011175
0.000721478
0.000449215
0.000300064
0.00023157
0.000196846
0.00016904
0.000143947
0.000123452
0.000109017
0.000101172
9.95702e-05
0.000102846
0.000109566
0.00011928
0.000132184
0.000148418
0.000167352
0.000183787
0.000196332
0.000220921
0.000269486
0.000398435
0.00069088
0.0012605
0.00419378
0.00111169
0.00997623
0.0168976
0.0135393
0.0102562
0.00787123
0.0062608
0.00518196
0.00445181
0.00391728
0.00343616
0.00290816
0.00229209
0.00164538
0.00105324
0.000556355
0.000320906
0.000221264
0.000175295
0.000148555
0.000128165
0.000111742
9.98424e-05
9.30876e-05
9.14395e-05
9.44786e-05
0.000101702
0.000113027
0.000129143
0.000151497
0.00018226
0.000224384
0.000281752
0.000361328
0.000475862
0.000643841
0.000872867
0.00114285
0.0013975
0.00159827
0.000884117
0.0048076
0.00648786
0.00675191
0.00630216
0.00568767
0.00508491
0.00442277
0.00364416
0.00276309
0.00174623
0.000954017
0.000518349
0.000292409
0.000190523
0.000142372
0.000116485
9.96602e-05
8.74387e-05
7.89529e-05
7.40304e-05
7.2365e-05
7.36859e-05
7.77959e-05
8.47172e-05
9.48532e-05
0.000109048
0.00012865
0.000155694
0.000193301
0.00024645
0.000320726
0.000423813
0.000562755
0.000734254
0.000914963
0.00106556
0.000994005
0.000448597
0.00331784
0.00673483
0.00680141
0.00547722
0.00457413
0.00379008
0.00285084
0.00194169
0.00122088
0.000717808
0.000413424
0.000247228
0.000163031
0.000121877
0.000100332
8.77822e-05
7.97494e-05
7.45851e-05
7.17393e-05
7.09305e-05
7.19337e-05
7.46283e-05
7.90188e-05
8.53388e-05
9.41003e-05
0.000106088
0.000122431
0.000144884
0.000176035
0.000219278
0.000279184
0.000360577
0.000465047
0.000585131
0.000698872
0.000834202
0.000466006
0.000479249
0.00213059
0.00248715
0.00277239
0.00309142
0.00234757
0.00187328
0.00169487
0.00145951
0.00116614
0.000865027
0.000608822
0.000417958
0.000290342
0.000211496
0.000163734
0.000133022
0.000111594
9.5857e-05
8.43738e-05
7.65622e-05
7.19742e-05
7.01203e-05
7.05791e-05
7.31231e-05
7.77277e-05
8.46315e-05
9.41344e-05
0.000106568
0.000122785
0.000144117
0.000171417
0.000206101
0.000250165
0.000306012
0.000375555
0.000461146
0.000472825
0.000338252
0.00028825
0.00047839
)
;

boundaryField
{
    floor
    {
        Cmu             0.09;
        kappa           0.41;
        E               9.8;
        type            epsilonWallFunction;
        value           nonuniform List<scalar> 
29
(
0.000440833
3.71823e-05
6.23159e-05
9.12713e-05
9.77178e-05
9.08841e-05
8.04832e-05
6.62173e-05
5.33594e-05
4.32288e-05
3.54362e-05
2.94108e-05
2.46996e-05
2.09696e-05
1.79844e-05
1.55182e-05
1.33852e-05
1.14219e-05
1.0304e-05
7.91182e-06
7.91182e-06
1.81348e-05
2.89334e-05
3.9933e-05
0.000440833
3.71823e-05
4.05098e-05
0.000243051
0.000921352
)
;
    }
    ceiling
    {
        Cmu             0.09;
        kappa           0.41;
        E               9.8;
        type            epsilonWallFunction;
        value           nonuniform List<scalar> 
43
(
0.00213059
0.00248715
0.00277239
0.00309142
0.00234757
0.00187328
0.00169487
0.00145951
0.00116614
0.000865027
0.000608822
0.000417958
0.000290342
0.000211496
0.000163734
0.000133022
0.000111594
9.5857e-05
8.43738e-05
7.65622e-05
7.19742e-05
7.01203e-05
7.05791e-05
7.31231e-05
7.77277e-05
8.46315e-05
9.41344e-05
0.000106568
0.000122785
0.000144117
0.000171417
0.000206101
0.000250165
0.000306012
0.000375555
0.000461146
0.000472825
0.000338252
0.00028825
0.00047839
0.00997623
0.0168976
0.00331784
)
;
    }
    sWall
    {
        Cmu             0.09;
        kappa           0.41;
        E               9.8;
        type            epsilonWallFunction;
        value           uniform 0.00213059;
    }
    nWall
    {
        Cmu             0.09;
        kappa           0.41;
        E               9.8;
        type            epsilonWallFunction;
        value           nonuniform List<scalar> 6(0.000187807 0.000216229 0.000324933 0.000448597 0.000479249 0.00047839);
    }
    sideWalls
    {
        type            empty;
    }
    glass1
    {
        Cmu             0.09;
        kappa           0.41;
        E               9.8;
        type            epsilonWallFunction;
        value           nonuniform List<scalar> 9(0.000455532 0.00113474 0.002047 0.00328541 0.00497685 0.0073218 0.0100828 0.0107443 0.00997623);
    }
    glass2
    {
        Cmu             0.09;
        kappa           0.41;
        E               9.8;
        type            epsilonWallFunction;
        value           nonuniform List<scalar> 2(0.00111169 0.000884117);
    }
    sun
    {
        Cmu             0.09;
        kappa           0.41;
        E               9.8;
        type            epsilonWallFunction;
        value           nonuniform List<scalar> 
14
(
0.000455532
0.000593459
0.000630555
0.000726638
0.000824616
0.000925789
0.00103592
0.00114208
0.0012157
0.00123573
0.00118639
0.00106449
0.000879108
0.000655396
)
;
    }
    heatsource1
    {
        Cmu             0.09;
        kappa           0.41;
        E               9.8;
        type            epsilonWallFunction;
        value           nonuniform List<scalar> 3(7.58288e-05 0.000132061 0.000187807);
    }
    heatsource2
    {
        Cmu             0.09;
        kappa           0.41;
        E               9.8;
        type            epsilonWallFunction;
        value           nonuniform List<scalar> 4(0.000504852 0.000147126 0.000147126 0.000590202);
    }
    Table_master
    {
        Cmu             0.09;
        kappa           0.41;
        E               9.8;
        type            epsilonWallFunction;
        value           nonuniform List<scalar> 9(0.000189813 0.00012889 9.04836e-05 6.57468e-05 4.93371e-05 3.81191e-05 3.0244e-05 2.46307e-05 2.06551e-05);
    }
    Table_slave
    {
        Cmu             0.09;
        kappa           0.41;
        E               9.8;
        type            epsilonWallFunction;
        value           nonuniform List<scalar> 9(0.00027808 0.000209365 0.000167693 0.000139821 0.000118676 0.000101253 8.61873e-05 7.20776e-05 5.7826e-05);
    }
    inlet
    {
        type            turbulentMixingLengthDissipationRateInlet;
        mixingLength    0.01;
        phi             phi;
        k               k;
        value           uniform 0.000101881;
    }
    outlet
    {
        type            zeroGradient;
    }
}


// ************************************************************************* //
