/*--------------------------------*- C++ -*----------------------------------*\
  =========                 |
  \\      /  F ield         | OpenFOAM: The Open Source CFD Toolbox
   \\    /   O peration     | Website:  https://openfoam.org
    \\  /    A nd           | Version:  6
     \\/     M anipulation  |
\*---------------------------------------------------------------------------*/
FoamFile
{
    version     2.0;
    format      ascii;
    class       volScalarField;
    location    "1200";
    object      epsilon;
}
// * * * * * * * * * * * * * * * * * * * * * * * * * * * * * * * * * * * * * //

dimensions      [0 2 -3 0 0 0 0];

internalField   nonuniform List<scalar> 
459
(
0.000421984
0.000545891
0.000576803
0.000662918
0.000749879
0.000838406
0.000932738
0.00103003
0.00110271
0.00113241
0.00110309
0.00100859
0.000856932
0.000672287
0.000492988
3.47319e-05
5.90636e-05
8.47803e-05
8.67114e-05
7.93274e-05
6.95965e-05
5.75919e-05
4.68811e-05
3.83667e-05
3.17403e-05
2.65586e-05
2.24635e-05
1.91985e-05
1.65592e-05
1.43588e-05
1.24369e-05
1.06455e-05
9.6655e-06
7.45917e-06
0.0010689
0.00156981
0.000513103
0.000496217
0.000517963
0.000556093
0.000614839
0.000693689
0.000769843
0.000818259
0.000818557
0.000764337
0.000663662
0.000538507
0.000435887
0.000518137
0.000118391
3.96703e-05
9.35005e-05
0.000103689
9.69181e-05
8.43807e-05
7.18993e-05
6.56671e-05
5.31662e-05
4.20286e-05
3.32275e-05
2.64617e-05
2.12834e-05
1.73168e-05
1.4292e-05
1.20723e-05
1.07069e-05
1.01191e-05
2.64749e-05
1.78406e-05
0.00195079
0.00387323
0.000631411
0.000470165
0.000489912
0.000548363
0.000637725
0.000752363
0.000859422
0.000924655
0.000930033
0.000875685
0.000773305
0.000647672
0.000530222
0.00047226
0.000556809
0.000265983
0.000207288
0.000164177
0.000131251
0.000105903
9.04997e-05
0.000165436
0.000114974
8.24573e-05
6.1067e-05
4.66017e-05
3.65411e-05
2.93697e-05
2.41767e-05
2.04275e-05
1.56247e-05
1.31355e-05
5.03032e-05
2.86283e-05
0.00316422
0.0080728
0.000997691
0.000471861
0.000474401
0.000556117
0.000690302
0.000862317
0.000999775
0.00106787
0.00106214
0.000992563
0.000871034
0.000725837
0.000597513
0.000513613
0.000494212
0.000895023
0.00051711
0.000317141
0.000215735
0.000157736
0.000121639
0.000104669
0.000239747
0.000184579
0.000151036
0.000128497
0.000111091
9.61735e-05
8.31037e-05
7.06131e-05
5.766e-05
3.44817e-05
2.24038e-05
8.39238e-05
3.9689e-05
0.00483729
0.0144529
0.00197613
0.000549959
0.000474866
0.000582099
0.00082198
0.00108452
0.001234
0.00128017
0.0012423
0.00113872
0.000983852
0.000802917
0.000627368
0.000483132
0.000384216
0.000342241
0.00028043
0.000224577
0.000179813
0.00014488
0.000117987
9.94498e-05
9.60463e-05
9.0092e-05
8.43553e-05
7.85987e-05
7.22557e-05
6.51515e-05
5.79973e-05
5.11681e-05
4.48713e-05
3.61484e-05
2.78285e-05
5.99692e-05
4.6149e-05
7.51741e-05
0.000131366
0.000185895
0.00716969
0.0215318
0.00446933
0.0010246
0.000662558
0.000764317
0.00125575
0.00153126
0.0016159
0.00159369
0.00150111
0.00134766
0.0011404
0.000903195
0.000671749
0.000480565
0.000348847
0.000274751
0.000230191
0.000194854
0.00016287
0.000135261
0.000113189
9.77623e-05
9.0267e-05
8.74907e-05
8.6235e-05
8.44893e-05
8.10142e-05
7.4834e-05
6.57558e-05
5.61666e-05
4.73538e-05
3.94729e-05
3.42981e-05
4.53473e-05
4.75489e-05
5.80168e-05
0.000242722
0.000212498
0.00995665
0.0257888
0.00935385
0.00340426
0.00215811
0.00210361
0.00234275
0.00233655
0.00221547
0.00205236
0.00185822
0.00162001
0.00133309
0.00102102
0.000724787
0.000487746
0.000332019
0.000247752
0.000203155
0.000171762
0.000144514
0.000121988
0.000105584
9.60394e-05
9.3335e-05
9.52983e-05
9.90516e-05
0.000102875
0.000105523
0.000105237
9.8667e-05
8.73313e-05
7.60123e-05
6.64216e-05
6.25583e-05
6.99952e-05
8.9248e-05
0.000142764
0.000328416
0.000318676
0.0106459
0.0288015
0.0156312
0.00993527
0.0070091
0.00542211
0.00429847
0.00354101
0.00302488
0.00264129
0.0022995
0.00193762
0.00153449
0.00112123
0.000744626
0.000460474
0.000290628
0.000206931
0.000166881
0.000140727
0.000120284
0.000105741
9.7479e-05
9.52816e-05
9.84067e-05
0.0001055
0.000115341
0.000127548
0.000142197
0.000159171
0.0001774
0.000189064
0.000198855
0.000220214
0.000264632
0.000398076
0.000736151
0.00139043
0.00404574
0.00119219
0.00990018
0.0168744
0.0135452
0.0102284
0.00779716
0.00613696
0.00501397
0.00424486
0.00369014
0.00322427
0.00274994
0.00222019
0.00163874
0.00109134
0.000622241
0.000329273
0.000207165
0.000153464
0.000125687
0.000107667
9.56255e-05
8.90195e-05
8.74966e-05
9.05175e-05
9.74905e-05
0.000107979
0.000122023
0.000140351
0.000164361
0.000196105
0.00023834
0.000295008
0.000372646
0.000489014
0.000660108
0.000891658
0.00115553
0.00138456
0.0015607
0.000974703
0.00497449
0.00668359
0.00668417
0.00618187
0.00549342
0.00483429
0.00418823
0.00349311
0.00273243
0.00193185
0.0010632
0.000562031
0.000297237
0.000173964
0.000121341
9.59259e-05
8.18596e-05
7.35381e-05
6.9052e-05
6.78813e-05
6.9657e-05
7.40155e-05
8.07712e-05
9.001e-05
0.00010217
0.000118106
0.000139179
0.000167459
0.000206199
0.000260444
0.000335565
0.000438717
0.00057317
0.000725977
0.00085592
0.00090853
0.00085012
0.000537601
0.00344506
0.0067447
0.00663408
0.00532687
0.00449244
0.0038283
0.00298948
0.00209346
0.00132964
0.000775504
0.000420597
0.000232946
0.000139012
9.51182e-05
7.46997e-05
6.44519e-05
5.9206e-05
5.7013e-05
5.70785e-05
5.89721e-05
6.24497e-05
6.75129e-05
7.43158e-05
8.31472e-05
9.45223e-05
0.000109268
0.000128672
0.000154708
0.000190126
0.000238545
0.000304908
0.000394141
0.000506712
0.000634111
0.000728294
0.00082364
0.000764382
0.000564414
0.00219003
0.00255652
0.0028536
0.00315759
0.0023441
0.00179827
0.00156062
0.00135608
0.00109271
0.000821136
0.000567277
0.000371991
0.000241271
0.000162723
0.000118377
9.30174e-05
7.77935e-05
6.85431e-05
6.33847e-05
6.13481e-05
6.1798e-05
6.43003e-05
6.86607e-05
7.48536e-05
8.27842e-05
9.27184e-05
0.000105068
0.00012044
0.00013977
0.000164595
0.000195778
0.000234801
0.000283952
0.000346141
0.000424229
0.000533521
0.000570786
0.000528199
0.000434009
0.000346591
)
;

boundaryField
{
    floor
    {
        Cmu             0.09;
        kappa           0.41;
        E               9.8;
        type            epsilonWallFunction;
        value           nonuniform List<scalar> 
29
(
0.000492988
3.47319e-05
5.90636e-05
8.47803e-05
8.67114e-05
7.93274e-05
6.95965e-05
5.75919e-05
4.68811e-05
3.83667e-05
3.17403e-05
2.65586e-05
2.24635e-05
1.91985e-05
1.65592e-05
1.43588e-05
1.24369e-05
1.06455e-05
9.6655e-06
7.45917e-06
7.45917e-06
1.78406e-05
2.86283e-05
3.9689e-05
0.000492988
3.47319e-05
3.96703e-05
0.000265983
0.000895023
)
;
    }
    ceiling
    {
        Cmu             0.09;
        kappa           0.41;
        E               9.8;
        type            epsilonWallFunction;
        value           nonuniform List<scalar> 
43
(
0.00219003
0.00255652
0.0028536
0.00315759
0.0023441
0.00179827
0.00156062
0.00135608
0.00109271
0.000821136
0.000567277
0.000371991
0.000241271
0.000162723
0.000118377
9.30174e-05
7.77935e-05
6.85431e-05
6.33847e-05
6.13481e-05
6.1798e-05
6.43003e-05
6.86607e-05
7.48536e-05
8.27842e-05
9.27184e-05
0.000105068
0.00012044
0.00013977
0.000164595
0.000195778
0.000234801
0.000283952
0.000346141
0.000424229
0.000533521
0.000570786
0.000528199
0.000434009
0.000346591
0.00990018
0.0168744
0.00344506
)
;
    }
    sWall
    {
        Cmu             0.09;
        kappa           0.41;
        E               9.8;
        type            epsilonWallFunction;
        value           uniform 0.00219003;
    }
    nWall
    {
        Cmu             0.09;
        kappa           0.41;
        E               9.8;
        type            epsilonWallFunction;
        value           nonuniform List<scalar> 6(0.000185895 0.000212498 0.000318676 0.000537601 0.000564414 0.000346591);
    }
    sideWalls
    {
        type            empty;
    }
    glass1
    {
        Cmu             0.09;
        kappa           0.41;
        E               9.8;
        type            epsilonWallFunction;
        value           nonuniform List<scalar> 9(0.000421984 0.0010689 0.00195079 0.00316422 0.00483729 0.00716969 0.00995665 0.0106459 0.00990018);
    }
    glass2
    {
        Cmu             0.09;
        kappa           0.41;
        E               9.8;
        type            epsilonWallFunction;
        value           nonuniform List<scalar> 2(0.00119219 0.000974703);
    }
    sun
    {
        Cmu             0.09;
        kappa           0.41;
        E               9.8;
        type            epsilonWallFunction;
        value           nonuniform List<scalar> 
14
(
0.000421984
0.000545891
0.000576803
0.000662918
0.000749879
0.000838406
0.000932738
0.00103003
0.00110271
0.00113241
0.00110309
0.00100859
0.000856932
0.000672287
)
;
    }
    heatsource1
    {
        Cmu             0.09;
        kappa           0.41;
        E               9.8;
        type            epsilonWallFunction;
        value           nonuniform List<scalar> 3(7.51741e-05 0.000131366 0.000185895);
    }
    heatsource2
    {
        Cmu             0.09;
        kappa           0.41;
        E               9.8;
        type            epsilonWallFunction;
        value           nonuniform List<scalar> 4(0.000518137 0.000118391 0.000118391 0.000556809);
    }
    Table_master
    {
        Cmu             0.09;
        kappa           0.41;
        E               9.8;
        type            epsilonWallFunction;
        value           nonuniform List<scalar> 9(0.000165436 0.000114974 8.24573e-05 6.1067e-05 4.66017e-05 3.65411e-05 2.93697e-05 2.41767e-05 2.04275e-05);
    }
    Table_slave
    {
        Cmu             0.09;
        kappa           0.41;
        E               9.8;
        type            epsilonWallFunction;
        value           nonuniform List<scalar> 9(0.000239747 0.000184579 0.000151036 0.000128497 0.000111091 9.61735e-05 8.31037e-05 7.06131e-05 5.766e-05);
    }
    inlet
    {
        type            turbulentMixingLengthDissipationRateInlet;
        mixingLength    0.01;
        phi             phi;
        k               k;
        value           uniform 0.000101881;
    }
    outlet
    {
        type            zeroGradient;
    }
}


// ************************************************************************* //
