// -*- C++ -*-
// File generated by PyFoam - sorry for the ugliness

FoamFile
{
 version 2.0;
 format ascii;
 class volScalarField;
 location "1200";
 object T;
}

dimensions [ 0 0 0 1 0 0 0 ];

internalField nonuniform List<scalar> 459
(
  303.379
  303.115
  303.103
  303.099
  303.095
  303.091
  303.087
  303.081
  303.072
  303.061
  303.048
  303.038
  303.031
  303.029
  303.034
  303.118
  303.098
  303.091
  303.093
  303.096
  303.1
  303.103
  303.107
  303.111
  303.114
  303.118
  303.122
  303.125
  303.128
  303.132
  303.135
  303.139
  303.145
  303.163
  303.558
  303.157
  303.135
  303.138
  303.141
  303.142
  303.14
  303.133
  303.117
  303.092
  303.065
  303.04
  303.024
  303.016
  303.014
  303.011
  303.006
  303.12
  303.083
  303.077
  303.079
  303.083
  303.087
  303.089
  303.09
  303.091
  303.092
  303.093
  303.093
  303.094
  303.095
  303.097
  303.101
  303.106
  303.115
  303.147
  303.746
  303.208
  303.171
  303.183
  303.198
  303.21
  303.215
  303.209
  303.183
  303.139
  303.09
  303.049
  303.023
  303.011
  303.009
  303.01
  303.009
  303.073
  303.066
  303.069
  303.077
  303.086
  303.094
  303.093
  303.093
  303.093
  303.092
  303.092
  303.092
  303.092
  303.092
  303.092
  303.094
  303.098
  303.105
  303.139
  303.934
  303.27
  303.208
  303.227
  303.258
  303.287
  303.306
  303.302
  303.262
  303.192
  303.115
  303.055
  303.019
  303.005
  303.006
  303.011
  303.015
  303.025
  303.037
  303.053
  303.071
  303.089
  303.104
  303.117
  303.127
  303.135
  303.143
  303.15
  303.155
  303.159
  303.163
  303.165
  303.165
  303.143
  303.123
  303.113
  303.139
  304.118
  303.348
  303.247
  303.263
  303.306
  303.355
  303.396
  303.393
  303.332
  303.232
  303.127
  303.053
  303.011
  302.998
  303.002
  303.014
  303.026
  303.041
  303.059
  303.08
  303.102
  303.122
  303.141
  303.156
  303.169
  303.18
  303.189
  303.196
  303.201
  303.202
  303.201
  303.198
  303.19
  303.173
  303.147
  303.127
  303.136
  303.209
  303.255
  303.261
  304.284
  303.448
  303.311
  303.303
  303.343
  303.404
  303.469
  303.451
  303.362
  303.239
  303.122
  303.038
  302.994
  302.986
  302.999
  303.022
  303.046
  303.07
  303.095
  303.12
  303.145
  303.167
  303.185
  303.2
  303.213
  303.223
  303.23
  303.236
  303.238
  303.237
  303.232
  303.224
  303.212
  303.195
  303.17
  303.145
  303.139
  303.17
  303.186
  303.221
  304.433
  303.608
  303.464
  303.428
  303.445
  303.5
  303.533
  303.473
  303.346
  303.197
  303.071
  302.991
  302.962
  302.971
  303.003
  303.043
  303.081
  303.115
  303.145
  303.172
  303.196
  303.216
  303.232
  303.245
  303.255
  303.262
  303.267
  303.27
  303.27
  303.267
  303.258
  303.247
  303.232
  303.214
  303.191
  303.167
  303.155
  303.162
  303.172
  303.202
  304.65
  304.033
  303.868
  303.764
  303.714
  303.7
  303.608
  303.437
  303.239
  303.067
  302.955
  302.909
  302.92
  302.966
  303.028
  303.088
  303.138
  303.177
  303.206
  303.229
  303.248
  303.263
  303.275
  303.284
  303.29
  303.295
  303.297
  303.297
  303.295
  303.29
  303.282
  303.27
  303.256
  303.24
  303.222
  303.205
  303.199
  303.211
  303.231
  303.359
  304.961
  304.672
  304.407
  304.176
  303.99
  303.778
  303.452
  303.133
  302.901
  302.782
  302.763
  302.814
  302.907
  303.004
  303.098
  303.17
  303.213
  303.241
  303.262
  303.279
  303.292
  303.302
  303.31
  303.315
  303.318
  303.32
  303.32
  303.319
  303.317
  303.314
  303.312
  303.312
  303.314
  303.321
  303.336
  303.359
  303.392
  303.425
  303.447
  303.502
  297.049
  299.195
  300.321
  300.759
  301.184
  301.607
  302.004
  302.346
  302.621
  302.843
  303.039
  303.147
  303.213
  303.253
  303.277
  303.295
  303.308
  303.318
  303.326
  303.332
  303.337
  303.339
  303.341
  303.342
  303.343
  303.344
  303.345
  303.346
  303.348
  303.35
  303.355
  303.363
  303.377
  303.396
  303.42
  303.444
  303.463
  303.483
  297.487
  299.369
  300.301
  300.984
  301.564
  302.078
  302.49
  302.777
  302.977
  303.112
  303.201
  303.253
  303.286
  303.307
  303.322
  303.333
  303.341
  303.346
  303.351
  303.354
  303.356
  303.358
  303.36
  303.361
  303.362
  303.363
  303.365
  303.366
  303.368
  303.37
  303.374
  303.38
  303.39
  303.403
  303.419
  303.437
  303.435
  303.465
  299.525
  299.455
  299.451
  301.214
  302.072
  302.517
  302.771
  302.948
  303.078
  303.166
  303.23
  303.273
  303.301
  303.319
  303.331
  303.34
  303.346
  303.35
  303.353
  303.356
  303.358
  303.36
  303.362
  303.364
  303.366
  303.367
  303.369
  303.371
  303.372
  303.374
  303.376
  303.378
  303.38
  303.384
  303.389
  303.4
  303.409
  303.415
  303.417
  303.456
)
;

boundaryField
{
  floor
  {
    type wallHeatTransfer;
    Tinf uniform 305.2;
    alphaWall uniform 0.24;
    value nonuniform List<scalar> 29
(
  303.257
  303.519
  303.458
  303.423
  303.423
  303.433
  303.447
  303.465
  303.485
  303.505
  303.525
  303.544
  303.562
  303.579
  303.596
  303.612
  303.629
  303.648
  303.661
  303.702
  303.702
  303.603
  303.554
  303.525
  303.257
  303.519
  303.51
  303.328
  303.217
)
;
  }
  ceiling
  {
    type wallHeatTransfer;
    Tinf uniform 303.2;
    alphaWall uniform 0.24;
    value nonuniform List<scalar> 43
(
  299.779
  299.704
  299.692
  301.339
  302.149
  302.567
  302.803
  302.968
  303.088
  303.17
  303.227
  303.265
  303.289
  303.303
  303.312
  303.318
  303.322
  303.325
  303.327
  303.329
  303.331
  303.333
  303.335
  303.337
  303.339
  303.342
  303.344
  303.346
  303.348
  303.35
  303.353
  303.356
  303.359
  303.363
  303.369
  303.38
  303.388
  303.393
  303.394
  303.427
  304.879
  304.614
  297.835
)
;
  }
  sWall
  {
    type wallHeatTransfer;
    Tinf uniform 315.2;
    alphaWall uniform 0.36;
    value uniform 301.101;
  }
  nWall
  {
    type wallHeatTransfer;
    Tinf uniform 307.2;
    alphaWall uniform 0.36;
    value nonuniform List<scalar> 6
(
  303.989
  303.934
  303.854
  304.018
  303.996
  304.055
)
;
  }
  sideWalls
  {
    type empty;
  }
  glass1
  {
    type wallHeatTransfer;
    Tinf uniform 315.2;
    alphaWall uniform 4.3;
    value nonuniform List<scalar> 9
(
  311.501
  310.864
  310.461
  310.153
  309.896
  309.662
  309.48
  309.545
  309.767
)
;
  }
  glass2
  {
    type wallHeatTransfer;
    Tinf uniform 307.2;
    alphaWall uniform 4.3;
    value nonuniform List<scalar> 2
(
  305.728
  305.833
)
;
  }
  sun
  {
    type wallHeatTransfer;
    Tinf uniform 305.2;
    alphaWall uniform 0.24;
    value nonuniform List<scalar> 14
(
  303.574
  303.324
  303.31
  303.299
  303.29
  303.281
  303.271
  303.262
  303.25
  303.238
  303.228
  303.223
  303.224
  303.235
)
;
  }
  heatsource1
  {
    type fixedGradient;
    gradient uniform 0;
  }
  heatsource2
  {
    type fixedGradient;
    gradient uniform 0;
  }
  Table_master
  {
    type zeroGradient;
  }
  Table_slave
  {
    type zeroGradient;
  }
  inlet
  {
    type fixedValue;
    value uniform 293.15;
  }
  outlet
  {
    type zeroGradient;
  }
} 	// ************************************************************************* //

