// -*- C++ -*-
// File generated by PyFoam - sorry for the ugliness

FoamFile
{
 version 2.0;
 format ascii;
 class volScalarField;
 location "900";
 object T;
}

dimensions [ 0 0 0 1 0 0 0 ];

internalField nonuniform List<scalar> 459
(
  303.361
  303.096
  303.084
  303.08
  303.077
  303.073
  303.069
  303.063
  303.054
  303.043
  303.03
  303.02
  303.012
  303.01
  303.015
  303.094
  303.075
  303.068
  303.07
  303.073
  303.077
  303.08
  303.084
  303.087
  303.09
  303.094
  303.097
  303.1
  303.103
  303.106
  303.109
  303.113
  303.118
  303.136
  303.54
  303.139
  303.116
  303.119
  303.123
  303.124
  303.122
  303.116
  303.1
  303.075
  303.048
  303.023
  303.007
  302.998
  302.995
  302.991
  302.984
  303.096
  303.061
  303.055
  303.057
  303.061
  303.065
  303.066
  303.067
  303.067
  303.068
  303.068
  303.069
  303.069
  303.07
  303.072
  303.075
  303.08
  303.088
  303.119
  303.728
  303.189
  303.153
  303.165
  303.18
  303.192
  303.197
  303.192
  303.166
  303.123
  303.074
  303.033
  303.006
  302.994
  302.991
  302.991
  302.99
  303.051
  303.046
  303.049
  303.056
  303.065
  303.072
  303.071
  303.071
  303.07
  303.069
  303.068
  303.068
  303.067
  303.067
  303.066
  303.068
  303.072
  303.078
  303.112
  303.917
  303.251
  303.189
  303.209
  303.24
  303.269
  303.289
  303.285
  303.246
  303.177
  303.1
  303.04
  303.003
  302.989
  302.989
  302.993
  302.996
  303.006
  303.018
  303.034
  303.051
  303.068
  303.084
  303.095
  303.105
  303.114
  303.121
  303.128
  303.133
  303.137
  303.14
  303.142
  303.142
  303.119
  303.098
  303.087
  303.112
  304.102
  303.329
  303.228
  303.244
  303.287
  303.336
  303.378
  303.377
  303.316
  303.218
  303.113
  303.039
  302.996
  302.982
  302.985
  302.996
  303.008
  303.023
  303.04
  303.06
  303.082
  303.102
  303.12
  303.134
  303.148
  303.158
  303.167
  303.174
  303.179
  303.18
  303.179
  303.175
  303.168
  303.149
  303.123
  303.101
  303.109
  303.183
  303.228
  303.234
  304.268
  303.429
  303.292
  303.284
  303.324
  303.384
  303.451
  303.435
  303.348
  303.226
  303.109
  303.024
  302.979
  302.97
  302.983
  303.004
  303.028
  303.051
  303.075
  303.1
  303.124
  303.146
  303.164
  303.179
  303.191
  303.201
  303.208
  303.214
  303.216
  303.215
  303.21
  303.201
  303.19
  303.171
  303.146
  303.119
  303.113
  303.143
  303.16
  303.195
  304.416
  303.59
  303.445
  303.407
  303.425
  303.479
  303.515
  303.459
  303.333
  303.186
  303.059
  302.978
  302.947
  302.955
  302.986
  303.025
  303.062
  303.095
  303.125
  303.151
  303.175
  303.194
  303.21
  303.223
  303.232
  303.24
  303.245
  303.248
  303.248
  303.244
  303.236
  303.224
  303.209
  303.191
  303.168
  303.143
  303.129
  303.137
  303.146
  303.176
  304.634
  304.015
  303.849
  303.744
  303.694
  303.682
  303.594
  303.427
  303.23
  303.058
  302.943
  302.895
  302.905
  302.949
  303.009
  303.069
  303.118
  303.156
  303.185
  303.207
  303.226
  303.241
  303.252
  303.261
  303.268
  303.272
  303.274
  303.274
  303.272
  303.267
  303.259
  303.247
  303.232
  303.216
  303.199
  303.181
  303.174
  303.187
  303.206
  303.334
  304.945
  304.656
  304.39
  304.159
  303.974
  303.77
  303.449
  303.13
  302.896
  302.774
  302.751
  302.799
  302.89
  302.985
  303.077
  303.149
  303.191
  303.219
  303.24
  303.256
  303.269
  303.279
  303.287
  303.292
  303.295
  303.297
  303.297
  303.295
  303.293
  303.29
  303.288
  303.289
  303.291
  303.298
  303.312
  303.336
  303.369
  303.402
  303.424
  303.479
  297.063
  299.222
  300.354
  300.779
  301.192
  301.604
  301.994
  302.33
  302.603
  302.822
  303.018
  303.125
  303.191
  303.23
  303.255
  303.272
  303.285
  303.295
  303.303
  303.309
  303.313
  303.316
  303.317
  303.319
  303.319
  303.32
  303.321
  303.322
  303.324
  303.326
  303.331
  303.339
  303.353
  303.373
  303.396
  303.42
  303.439
  303.459
  297.494
  299.386
  300.311
  300.982
  301.552
  302.056
  302.469
  302.756
  302.956
  303.091
  303.179
  303.231
  303.264
  303.285
  303.299
  303.309
  303.317
  303.323
  303.327
  303.33
  303.332
  303.334
  303.335
  303.337
  303.338
  303.339
  303.34
  303.342
  303.343
  303.346
  303.35
  303.356
  303.365
  303.379
  303.395
  303.413
  303.411
  303.441
  301.262
  299.516
  299.445
  301.186
  302.045
  302.493
  302.75
  302.927
  303.057
  303.145
  303.208
  303.251
  303.279
  303.297
  303.309
  303.317
  303.323
  303.327
  303.33
  303.333
  303.335
  303.337
  303.339
  303.34
  303.342
  303.344
  303.345
  303.347
  303.348
  303.35
  303.352
  303.354
  303.356
  303.36
  303.365
  303.376
  303.385
  303.391
  303.393
  303.431
)
;

boundaryField
{
  floor
  {
    type wallHeatTransfer;
    Tinf uniform 305.2;
    alphaWall uniform 0.24;
    value nonuniform List<scalar> 29
(
  303.24
  303.501
  303.44
  303.405
  303.405
  303.415
  303.429
  303.447
  303.467
  303.487
  303.506
  303.525
  303.543
  303.561
  303.577
  303.594
  303.611
  303.629
  303.642
  303.682
  303.682
  303.581
  303.531
  303.502
  303.24
  303.501
  303.491
  303.31
  303.2
)
;
  }
  ceiling
  {
    type wallHeatTransfer;
    Tinf uniform 303.2;
    alphaWall uniform 0.24;
    value nonuniform List<scalar> 43
(
  301.389
  299.756
  299.686
  301.312
  302.123
  302.545
  302.784
  302.949
  303.069
  303.15
  303.207
  303.245
  303.269
  303.284
  303.293
  303.299
  303.303
  303.306
  303.308
  303.31
  303.312
  303.314
  303.316
  303.317
  303.319
  303.321
  303.323
  303.325
  303.327
  303.33
  303.332
  303.335
  303.338
  303.342
  303.348
  303.358
  303.367
  303.372
  303.372
  303.405
  304.864
  304.598
  297.841
)
;
  }
  sWall
  {
    type wallHeatTransfer;
    Tinf uniform 315.2;
    alphaWall uniform 0.36;
    value uniform 302.591;
  }
  nWall
  {
    type wallHeatTransfer;
    Tinf uniform 307.2;
    alphaWall uniform 0.36;
    value nonuniform List<scalar> 6
(
  303.965
  303.91
  303.829
  303.997
  303.975
  304.033
)
;
  }
  sideWalls
  {
    type empty;
  }
  glass1
  {
    type wallHeatTransfer;
    Tinf uniform 315.2;
    alphaWall uniform 4.3;
    value nonuniform List<scalar> 9
(
  311.498
  310.858
  310.454
  310.145
  309.887
  309.653
  309.47
  309.535
  309.757
)
;
  }
  glass2
  {
    type wallHeatTransfer;
    Tinf uniform 307.2;
    alphaWall uniform 4.3;
    value nonuniform List<scalar> 2
(
  305.716
  305.822
)
;
  }
  sun
  {
    type wallHeatTransfer;
    Tinf uniform 305.2;
    alphaWall uniform 0.24;
    value nonuniform List<scalar> 14
(
  303.558
  303.308
  303.293
  303.283
  303.273
  303.264
  303.255
  303.245
  303.234
  303.222
  303.212
  303.207
  303.208
  303.219
)
;
  }
  heatsource1
  {
    type fixedGradient;
    gradient uniform 0;
  }
  heatsource2
  {
    type fixedGradient;
    gradient uniform 0;
  }
  Table_master
  {
    type zeroGradient;
  }
  Table_slave
  {
    type zeroGradient;
  }
  inlet
  {
    type fixedValue;
    value uniform 293.15;
  }
  outlet
  {
    type zeroGradient;
  }
} 	// ************************************************************************* //

