/*--------------------------------*- C++ -*----------------------------------*\
  =========                 |
  \\      /  F ield         | OpenFOAM: The Open Source CFD Toolbox
   \\    /   O peration     | Website:  https://openfoam.org
    \\  /    A nd           | Version:  6
     \\/     M anipulation  |
\*---------------------------------------------------------------------------*/
FoamFile
{
    version     2.0;
    format      ascii;
    class       volVectorField;
    location    "1300";
    object      U;
}
// * * * * * * * * * * * * * * * * * * * * * * * * * * * * * * * * * * * * * //

dimensions      [0 1 -1 0 0 0 0];

internalField   nonuniform List<vector> 
459
(
(0.0341663 0.0859198 0)
(-0.167152 0.0254967 0)
(-0.191947 0.0178543 0)
(-0.222976 0.0121382 0)
(-0.245415 0.00583579 0)
(-0.258161 -0.000870487 0)
(-0.259515 -0.00804934 0)
(-0.248214 -0.015724 0)
(-0.224863 -0.0231853 0)
(-0.191391 -0.0290959 0)
(-0.151556 -0.032354 0)
(-0.109778 -0.0324276 0)
(-0.0703065 -0.0294782 0)
(-0.0383023 -0.0246535 0)
(-0.0276861 -0.0198047 0)
(-0.00655777 0.00912525 0)
(-0.0299657 -0.0163638 0)
(-0.00890898 -0.0262047 0)
(0.0148205 -0.0203146 0)
(0.0299232 -0.0139485 0)
(0.0425809 -0.00905787 0)
(0.0506435 -0.00526574 0)
(0.0548851 -0.00327454 0)
(0.0568268 -0.00248109 0)
(0.0578077 -0.00214571 0)
(0.0584334 -0.00193806 0)
(0.0588055 -0.00176801 0)
(0.0588644 -0.00156594 0)
(0.0584416 -0.00117928 0)
(0.0570442 -0.000249655 0)
(0.0535894 0.00171142 0)
(0.0468923 0.00378197 0)
(0.0411582 0.00541647 0)
(-0.0139004 0.0201371 0)
(0.208797 0.176056 0)
(-0.156351 0.0674782 0)
(-0.154845 0.053092 0)
(-0.187031 0.0412274 0)
(-0.20933 0.0277599 0)
(-0.222384 0.0125629 0)
(-0.224446 -0.00468262 0)
(-0.214098 -0.0233651 0)
(-0.192553 -0.0408549 0)
(-0.162154 -0.0540407 0)
(-0.126792 -0.0608052 0)
(-0.0905493 -0.0605387 0)
(-0.0569869 -0.0538589 0)
(-0.0295111 -0.0424122 0)
(-0.0120914 -0.0287264 0)
(0.00171187 -0.010772 0)
(0.000373727 0.0155955 0)
(0.0613665 0.036873 0)
(0.0233695 -0.0173204 0)
(0.0320912 -0.0309179 0)
(0.0430462 -0.0277255 0)
(0.0518096 -0.0200475 0)
(0.0583231 -0.0126475 0)
(0.0611685 -0.00545619 0)
(0.0617466 -0.00130568 0)
(0.061719 0.0004294 0)
(0.0618368 0.00119311 0)
(0.0620461 0.00166345 0)
(0.062201 0.00205723 0)
(0.0622634 0.00253279 0)
(0.0621907 0.00336596 0)
(0.061499 0.00539817 0)
(0.0579681 0.0110624 0)
(0.0489477 0.0157802 0)
(0.0453698 0.0188702 0)
(-0.0509184 0.0437895 0)
(0.369097 0.263498 0)
(-0.173281 0.107514 0)
(-0.116284 0.0859437 0)
(-0.147704 0.0647764 0)
(-0.167613 0.0425835 0)
(-0.179829 0.0178846 0)
(-0.181585 -0.010167 0)
(-0.170578 -0.0400844 0)
(-0.149306 -0.0671735 0)
(-0.121023 -0.08638 0)
(-0.0898163 -0.0950301 0)
(-0.0591781 -0.0930825 0)
(-0.0313836 -0.0819744 0)
(-0.00849697 -0.0639923 0)
(0.0085021 -0.0405022 0)
(0.019614 -0.0141402 0)
(0.0238256 0.0229426 0)
(0.110308 -0.0249146 0)
(0.0741366 -0.0362696 0)
(0.068412 -0.037389 0)
(0.0696805 -0.032335 0)
(0.0708332 -0.0246366 0)
(0.072019 -0.0178745 0)
(0.0706985 -0.0143608 0)
(0.0660405 -0.0101697 0)
(0.0626426 -0.00787726 0)
(0.0610784 -0.00656757 0)
(0.0603792 -0.00572822 0)
(0.0599985 -0.00514639 0)
(0.0599225 -0.00464479 0)
(0.0605625 -0.00387073 0)
(0.0629646 -0.000920802 0)
(0.0609793 0.0153629 0)
(0.0482984 0.0266807 0)
(0.0518679 0.0341966 0)
(-0.0836612 0.0681538 0)
(0.513834 0.33385 0)
(-0.208132 0.143016 0)
(-0.0753049 0.113942 0)
(-0.105435 0.0848829 0)
(-0.119921 0.0564235 0)
(-0.128965 0.0239978 0)
(-0.127748 -0.0147211 0)
(-0.113684 -0.0564638 0)
(-0.0920556 -0.0923838 0)
(-0.0668648 -0.115944 0)
(-0.0416296 -0.124956 0)
(-0.018686 -0.120761 0)
(0.00173951 -0.10548 0)
(0.0185234 -0.0826786 0)
(0.0327522 -0.0558405 0)
(0.0479268 -0.0268096 0)
(0.0692995 0.00502817 0)
(0.0996739 0.0168952 0)
(0.104735 -0.0217927 0)
(0.0912946 -0.0324391 0)
(0.0823887 -0.0318462 0)
(0.0772188 -0.0279013 0)
(0.0732281 -0.0220219 0)
(0.0704376 -0.01452 0)
(0.0713247 -0.00872879 0)
(0.0758234 -0.00651782 0)
(0.079628 -0.00531192 0)
(0.0820878 -0.0044822 0)
(0.0835755 -0.00356793 0)
(0.0836925 -0.00227089 0)
(0.0813574 -0.000324922 0)
(0.0753049 0.00257932 0)
(0.0630686 0.00694593 0)
(0.0512496 0.0256392 0)
(0.0392173 0.0415038 0)
(0.0562031 0.0540258 0)
(-0.118599 0.0897924 0)
(0.639159 0.388349 0)
(-0.250787 0.172005 0)
(-0.0344925 0.130119 0)
(-0.061176 0.0964145 0)
(-0.0676368 0.0644843 0)
(-0.0706794 0.0269265 0)
(-0.0606387 -0.0215478 0)
(-0.0413857 -0.0741675 0)
(-0.0208036 -0.1153 0)
(-0.0015329 -0.139412 0)
(0.0146761 -0.145787 0)
(0.0270705 -0.137934 0)
(0.0367798 -0.120004 0)
(0.0446036 -0.0955595 0)
(0.0518331 -0.0681151 0)
(0.060425 -0.0414399 0)
(0.0730892 -0.0217684 0)
(0.0836462 -0.0206791 0)
(0.0847498 -0.0281106 0)
(0.0784642 -0.0288213 0)
(0.070285 -0.0259222 0)
(0.0634271 -0.0221044 0)
(0.0581091 -0.0176014 0)
(0.0547026 -0.012312 0)
(0.0540843 -0.0066162 0)
(0.0559715 -0.00385908 0)
(0.0582567 -0.00291986 0)
(0.0604811 -0.00227513 0)
(0.0626027 -0.000910846 0)
(0.0643354 0.0018001 0)
(0.0644903 0.00603035 0)
(0.0624113 0.0119707 0)
(0.0574619 0.0202097 0)
(0.0510659 0.0349065 0)
(0.0411833 0.0524718 0)
(0.0645042 0.072397 0)
(-0.0235092 0.101581 0)
(0.0464115 0.0311354 0)
(-0.0619959 -0.0342435 0)
(-0.27255 -0.0569399 0)
(0.730319 0.433794 0)
(-0.292419 0.191524 0)
(-0.00324373 0.126677 0)
(-0.016004 0.0976737 0)
(-0.0118928 0.0669233 0)
(-0.00621634 0.023845 0)
(0.0226109 -0.0388179 0)
(0.0444387 -0.0945389 0)
(0.0599527 -0.132648 0)
(0.0693303 -0.151914 0)
(0.0732442 -0.154313 0)
(0.0731057 -0.143442 0)
(0.0704175 -0.123338 0)
(0.0666872 -0.0979917 0)
(0.0633985 -0.0710672 0)
(0.0619495 -0.0462119 0)
(0.0631868 -0.0276593 0)
(0.0640021 -0.0201806 0)
(0.0607526 -0.0195944 0)
(0.0537973 -0.0195574 0)
(0.0458599 -0.0180557 0)
(0.0391048 -0.015752 0)
(0.0340694 -0.0129999 0)
(0.0310575 -0.00986844 0)
(0.0303489 -0.00695709 0)
(0.0316194 -0.00586316 0)
(0.0338613 -0.00584003 0)
(0.0366555 -0.0056881 0)
(0.0398586 -0.0044306 0)
(0.0432532 -0.00116583 0)
(0.0466173 0.00459242 0)
(0.0486455 0.0125822 0)
(0.0494984 0.0228595 0)
(0.0505157 0.0368213 0)
(0.049795 0.0541227 0)
(0.0731606 0.0768599 0)
(0.0525535 0.0949864 0)
(0.0935856 0.067001 0)
(0.116268 0.0442579 0)
(-0.1288 -0.00684485 0)
(0.7823 0.475098 0)
(-0.313371 0.176964 0)
(0.02358 0.0771267 0)
(0.0426818 0.0738385 0)
(0.0578856 0.0522231 0)
(0.0847811 0.000888539 0)
(0.118905 -0.0632387 0)
(0.138153 -0.111986 0)
(0.144516 -0.141381 0)
(0.140688 -0.152883 0)
(0.129419 -0.149472 0)
(0.113631 -0.13491 0)
(0.0958989 -0.113074 0)
(0.0784643 -0.0878645 0)
(0.0630112 -0.0624839 0)
(0.0507716 -0.0400218 0)
(0.0421806 -0.0235536 0)
(0.035707 -0.0151552 0)
(0.0291778 -0.0126311 0)
(0.0220848 -0.0121014 0)
(0.0153247 -0.0114127 0)
(0.00980731 -0.0104438 0)
(0.005851 -0.00935479 0)
(0.00364117 -0.00822588 0)
(0.00327146 -0.00746362 0)
(0.0043989 -0.00770973 0)
(0.0063982 -0.00849977 0)
(0.00900468 -0.00901078 0)
(0.0122615 -0.00842103 0)
(0.0163302 -0.00575168 0)
(0.0220526 9.52079e-05 0)
(0.0285524 0.00884225 0)
(0.0347532 0.0192404 0)
(0.0424205 0.0315832 0)
(0.0508852 0.0457075 0)
(0.0738044 0.064012 0)
(0.0876382 0.0722299 0)
(0.119613 0.0514092 0)
(0.158791 0.0435382 0)
(-0.0356947 0.0927211 0)
(0.886962 0.477784 0)
(-0.0706883 0.156623 0)
(0.106114 0.00375284 0)
(0.169346 -0.0167724 0)
(0.182466 -0.0357881 0)
(0.218224 -0.0698162 0)
(0.240004 -0.102485 0)
(0.242451 -0.12577 0)
(0.228391 -0.137179 0)
(0.202779 -0.13695 0)
(0.17049 -0.126858 0)
(0.135751 -0.109539 0)
(0.101602 -0.0876877 0)
(0.0705329 -0.0645585 0)
(0.0439998 -0.0425625 0)
(0.0233389 -0.0242601 0)
(0.00900736 -0.0121286 0)
(-0.000345424 -0.00660588 0)
(-0.00697221 -0.00547954 0)
(-0.0125093 -0.00581736 0)
(-0.0172708 -0.0062397 0)
(-0.0210816 -0.00657504 0)
(-0.0238612 -0.00690239 0)
(-0.025553 -0.00731889 0)
(-0.0262023 -0.00802821 0)
(-0.0261108 -0.00919526 0)
(-0.0256586 -0.0105812 0)
(-0.0249819 -0.0117649 0)
(-0.0239499 -0.012283 0)
(-0.0221865 -0.0115757 0)
(-0.0188247 -0.00893415 0)
(-0.0111271 -0.00355358 0)
(-0.000612463 0.00421235 0)
(0.0106393 0.0123303 0)
(0.0232943 0.0188441 0)
(0.0443338 0.0257159 0)
(0.0643748 0.0202383 0)
(0.0837539 -0.00161249 0)
(0.141532 0.0481899 0)
(-0.432287 0.204798 0)
(1.03201 0.430121 0)
(0.496974 0.28518 0)
(0.503279 0.191459 0)
(0.511861 0.119894 0)
(0.487341 0.0683372 0)
(0.444412 0.0148775 0)
(0.39433 -0.0333692 0)
(0.340749 -0.0674506 0)
(0.283382 -0.0849273 0)
(0.22466 -0.0878713 0)
(0.167896 -0.080334 0)
(0.115852 -0.0663223 0)
(0.0695417 -0.048592 0)
(0.0308523 -0.0305408 0)
(-0.000678666 -0.0143355 0)
(-0.0215704 -0.00424073 0)
(-0.0326939 -0.000417956 0)
(-0.0388315 0.000184052 0)
(-0.0427664 -0.000664392 0)
(-0.0460626 -0.00186438 0)
(-0.0491256 -0.00299923 0)
(-0.0518955 -0.00407337 0)
(-0.0543575 -0.00513663 0)
(-0.0565171 -0.00623741 0)
(-0.0584991 -0.00743901 0)
(-0.0605831 -0.00874533 0)
(-0.0630994 -0.0099782 0)
(-0.0663384 -0.0108036 0)
(-0.0706061 -0.0107492 0)
(-0.0763094 -0.00917567 0)
(-0.083954 -0.00531827 0)
(-0.0939498 0.00155904 0)
(-0.104475 0.011131 0)
(-0.118124 0.0233405 0)
(-0.139734 0.0382541 0)
(-0.171484 0.0553023 0)
(-0.217307 0.0715323 0)
(-0.273649 0.0848169 0)
(-0.349902 0.0934207 0)
(-0.617241 0.090691 0)
(-0.147797 0.082761 0)
(0.13472 0.0614762 0)
(0.217892 0.00558449 0)
(0.201399 -0.0291707 0)
(0.185624 -0.0433755 0)
(0.163026 -0.047897 0)
(0.130469 -0.0461346 0)
(0.0918676 -0.0396308 0)
(0.051998 -0.0298018 0)
(0.0140227 -0.0174703 0)
(-0.0232164 -0.00367832 0)
(-0.0469049 0.00402541 0)
(-0.061325 0.00751163 0)
(-0.0682572 0.00799225 0)
(-0.0716413 0.0072824 0)
(-0.0738286 0.00638181 0)
(-0.0756756 0.00552985 0)
(-0.0775281 0.00482279 0)
(-0.0794916 0.00418251 0)
(-0.0816978 0.0034565 0)
(-0.0841768 0.00254815 0)
(-0.0869033 0.00153541 0)
(-0.0899547 0.00050849 0)
(-0.0934461 -0.000392761 0)
(-0.0974608 -0.000937856 0)
(-0.102012 -0.000825065 0)
(-0.107033 0.000285372 0)
(-0.112357 0.00274506 0)
(-0.117518 0.00695325 0)
(-0.121579 0.0135269 0)
(-0.124975 0.0235782 0)
(-0.127662 0.0376245 0)
(-0.130135 0.0552564 0)
(-0.132173 0.0741559 0)
(-0.130579 0.0873663 0)
(-0.113176 0.0805305 0)
(-0.0734384 0.0262148 0)
(-0.197987 -0.176285 0)
(-0.0230471 0.230871 0)
(0.0636094 0.0993044 0)
(0.0375061 0.0187881 0)
(0.0253509 -0.00458632 0)
(0.0158147 -0.00988019 0)
(-0.00299529 -0.0111596 0)
(-0.0279973 -0.0086337 0)
(-0.0537037 -0.00402849 0)
(-0.0754331 0.000484475 0)
(-0.0903577 0.00348581 0)
(-0.0974698 0.00373098 0)
(-0.0999467 0.00150183 0)
(-0.10021 -0.00145691 0)
(-0.0994823 -0.00480233 0)
(-0.0988548 -0.00822443 0)
(-0.0987225 -0.0115011 0)
(-0.0991226 -0.0145248 0)
(-0.0999626 -0.0171048 0)
(-0.101102 -0.0190782 0)
(-0.10244 -0.0203795 0)
(-0.103959 -0.0210396 0)
(-0.105717 -0.0211682 0)
(-0.107693 -0.0207796 0)
(-0.109875 -0.0200117 0)
(-0.1122 -0.0188768 0)
(-0.114497 -0.0171848 0)
(-0.116458 -0.0146037 0)
(-0.117643 -0.0106152 0)
(-0.117587 -0.00500829 0)
(-0.11547 0.00262115 0)
(-0.109996 0.0129702 0)
(-0.0998392 0.0266801 0)
(-0.0844177 0.0435737 0)
(-0.064128 0.0605864 0)
(-0.0402275 0.0696447 0)
(0.0279344 0.0381158 0)
(0.147221 -0.0412664 0)
(-0.0494825 -0.0652775 0)
(-0.103325 -0.34864 0)
(-0.439211 -0.12035 0)
(-0.310707 0.0955104 0)
(-0.226682 -0.0203364 0)
(-0.180338 -0.0413472 0)
(-0.166018 -0.0291398 0)
(-0.163643 -0.0161814 0)
(-0.16497 -0.00587629 0)
(-0.165496 0.00272452 0)
(-0.163216 0.0102696 0)
(-0.158481 0.0172123 0)
(-0.151412 0.0235503 0)
(-0.142935 0.0290235 0)
(-0.134474 0.0336496 0)
(-0.126868 0.0379865 0)
(-0.120443 0.0422549 0)
(-0.115203 0.0465512 0)
(-0.110977 0.0507035 0)
(-0.107618 0.0543671 0)
(-0.105025 0.0572114 0)
(-0.103116 0.0590251 0)
(-0.101823 0.0597391 0)
(-0.101088 0.0594001 0)
(-0.100876 0.0581311 0)
(-0.101148 0.0560343 0)
(-0.101827 0.053449 0)
(-0.102786 0.0506335 0)
(-0.103814 0.0476879 0)
(-0.10456 0.0446794 0)
(-0.10445 0.041672 0)
(-0.102431 0.0394006 0)
(-0.0969155 0.0385018 0)
(-0.085733 0.0396452 0)
(-0.0669429 0.0435966 0)
(-0.0406038 0.0508727 0)
(-0.00578813 0.060551 0)
(0.0321469 0.0572586 0)
(0.0900142 0.0205131 0)
(0.119072 -0.0181265 0)
(-0.505022 0.0601937 0)
)
;

boundaryField
{
    floor
    {
        type            noSlip;
    }
    ceiling
    {
        type            noSlip;
    }
    sWall
    {
        type            noSlip;
    }
    nWall
    {
        type            noSlip;
    }
    sideWalls
    {
        type            empty;
    }
    glass1
    {
        type            noSlip;
    }
    glass2
    {
        type            noSlip;
    }
    sun
    {
        type            noSlip;
    }
    heatsource1
    {
        type            noSlip;
    }
    heatsource2
    {
        type            noSlip;
    }
    Table_master
    {
        type            noSlip;
    }
    Table_slave
    {
        type            noSlip;
    }
    inlet
    {
        type            fixedValue;
        value           uniform (0.3 0 0);
    }
    outlet
    {
        type            zeroGradient;
    }
}


// ************************************************************************* //
