// -*- C++ -*-
// File generated by PyFoam - sorry for the ugliness

FoamFile
{
 version 2.0;
 format ascii;
 class volScalarField;
 location "600";
 object T;
}

dimensions [ 0 0 0 1 0 0 0 ];

internalField nonuniform List<scalar> 459
(
  303.289
  303.029
  303.016
  303.013
  303.01
  303.006
  303.002
  302.995
  302.985
  302.973
  302.964
  302.959
  302.959
  302.967
  302.995
  303.109
  303.088
  303.08
  303.085
  303.093
  303.1
  303.107
  303.113
  303.12
  303.126
  303.132
  303.138
  303.145
  303.151
  303.158
  303.165
  303.173
  303.183
  303.208
  303.462
  303.069
  303.047
  303.049
  303.052
  303.051
  303.048
  303.035
  303.013
  302.987
  302.964
  302.951
  302.948
  302.953
  302.961
  302.958
  302.956
  303.113
  303.065
  303.061
  303.068
  303.079
  303.089
  303.094
  303.098
  303.102
  303.106
  303.11
  303.114
  303.117
  303.122
  303.127
  303.134
  303.144
  303.158
  303.195
  303.644
  303.119
  303.083
  303.095
  303.109
  303.118
  303.118
  303.098
  303.057
  303.009
  302.97
  302.948
  302.943
  302.948
  302.954
  302.956
  302.956
  303.064
  303.048
  303.052
  303.067
  303.085
  303.102
  303.103
  303.104
  303.106
  303.109
  303.111
  303.114
  303.117
  303.121
  303.124
  303.131
  303.139
  303.153
  303.191
  303.83
  303.181
  303.122
  303.143
  303.175
  303.201
  303.21
  303.177
  303.107
  303.031
  302.973
  302.942
  302.937
  302.945
  302.956
  302.962
  302.964
  302.974
  302.992
  303.018
  303.049
  303.082
  303.113
  303.138
  303.159
  303.177
  303.192
  303.206
  303.219
  303.23
  303.239
  303.248
  303.253
  303.217
  303.185
  303.17
  303.194
  304.012
  303.26
  303.165
  303.186
  303.236
  303.288
  303.304
  303.249
  303.145
  303.041
  302.969
  302.934
  302.93
  302.945
  302.964
  302.98
  302.991
  303.009
  303.034
  303.066
  303.102
  303.138
  303.172
  303.201
  303.228
  303.25
  303.268
  303.284
  303.296
  303.303
  303.305
  303.304
  303.296
  303.269
  303.228
  303.195
  303.198
  303.305
  303.36
  303.362
  304.179
  303.361
  303.234
  303.236
  303.291
  303.372
  303.369
  303.28
  303.152
  303.032
  302.951
  302.917
  302.922
  302.95
  302.984
  303.014
  303.04
  303.067
  303.1
  303.137
  303.175
  303.212
  303.245
  303.274
  303.299
  303.319
  303.336
  303.35
  303.359
  303.361
  303.357
  303.349
  303.334
  303.308
  303.268
  303.228
  303.212
  303.255
  303.279
  303.317
  304.332
  303.524
  303.39
  303.375
  303.413
  303.463
  303.403
  303.264
  303.104
  302.975
  302.902
  302.886
  302.914
  302.967
  303.024
  303.073
  303.114
  303.151
  303.188
  303.225
  303.261
  303.294
  303.323
  303.348
  303.368
  303.385
  303.398
  303.407
  303.412
  303.41
  303.401
  303.387
  303.369
  303.343
  303.308
  303.27
  303.246
  303.255
  303.268
  303.299
  304.552
  303.947
  303.794
  303.716
  303.695
  303.577
  303.371
  303.143
  302.956
  302.846
  302.818
  302.853
  302.926
  303.017
  303.1
  303.166
  303.216
  303.254
  303.288
  303.319
  303.348
  303.374
  303.396
  303.414
  303.429
  303.439
  303.447
  303.45
  303.449
  303.445
  303.436
  303.421
  303.403
  303.379
  303.353
  303.325
  303.311
  303.322
  303.34
  303.462
  304.868
  304.581
  304.322
  304.095
  303.814
  303.379
  302.988
  302.732
  302.626
  302.641
  302.739
  302.869
  303.002
  303.137
  303.23
  303.284
  303.32
  303.351
  303.379
  303.404
  303.425
  303.443
  303.457
  303.468
  303.475
  303.479
  303.48
  303.478
  303.474
  303.468
  303.463
  303.459
  303.457
  303.458
  303.467
  303.484
  303.512
  303.542
  303.565
  303.626
  296.654
  298.264
  299.19
  300.143
  300.96
  301.632
  302.157
  302.556
  302.882
  303.096
  303.217
  303.294
  303.346
  303.381
  303.408
  303.432
  303.454
  303.471
  303.486
  303.496
  303.503
  303.507
  303.508
  303.508
  303.506
  303.503
  303.5
  303.498
  303.496
  303.494
  303.495
  303.499
  303.508
  303.523
  303.543
  303.565
  303.589
  303.643
  297.064
  298.732
  299.945
  301.116
  301.944
  302.464
  302.811
  303.044
  303.198
  303.297
  303.361
  303.404
  303.435
  303.459
  303.478
  303.495
  303.509
  303.519
  303.526
  303.531
  303.532
  303.533
  303.532
  303.53
  303.527
  303.525
  303.523
  303.52
  303.518
  303.517
  303.517
  303.519
  303.525
  303.534
  303.546
  303.566
  303.594
  303.621
  299.594
  299.52
  299.515
  301.487
  302.409
  302.819
  303.036
  303.18
  303.284
  303.358
  303.411
  303.448
  303.474
  303.494
  303.508
  303.519
  303.528
  303.534
  303.538
  303.541
  303.542
  303.542
  303.541
  303.54
  303.539
  303.537
  303.536
  303.534
  303.533
  303.532
  303.531
  303.53
  303.529
  303.53
  303.532
  303.537
  303.546
  303.556
  303.619
  303.713
)
;

boundaryField
{
  floor
  {
    type wallHeatTransfer;
    Tinf uniform 305.2;
    alphaWall uniform 0.24;
    value nonuniform List<scalar> 29
(
  303.258
  303.495
  303.436
  303.397
  303.391
  303.401
  303.415
  303.435
  303.458
  303.481
  303.503
  303.524
  303.544
  303.564
  303.584
  303.603
  303.622
  303.643
  303.663
  303.71
  303.71
  303.634
  303.593
  303.571
  303.258
  303.495
  303.498
  303.337
  303.169
)
;
  }
  ceiling
  {
    type wallHeatTransfer;
    Tinf uniform 303.2;
    alphaWall uniform 0.24;
    value nonuniform List<scalar> 43
(
  299.849
  299.77
  299.758
  301.597
  302.463
  302.846
  303.048
  303.182
  303.277
  303.345
  303.391
  303.422
  303.444
  303.459
  303.47
  303.479
  303.485
  303.489
  303.491
  303.492
  303.492
  303.491
  303.489
  303.488
  303.487
  303.486
  303.485
  303.485
  303.485
  303.486
  303.486
  303.487
  303.489
  303.491
  303.495
  303.502
  303.509
  303.515
  303.569
  303.659
  304.79
  304.526
  297.449
)
;
  }
  sWall
  {
    type wallHeatTransfer;
    Tinf uniform 315.2;
    alphaWall uniform 0.36;
    value uniform 301.196;
  }
  nWall
  {
    type wallHeatTransfer;
    Tinf uniform 307.2;
    alphaWall uniform 0.36;
    value nonuniform List<scalar> 6
(
  304.073
  304.014
  303.932
  304.182
  304.155
  304.232
)
;
  }
  sideWalls
  {
    type empty;
  }
  glass1
  {
    type wallHeatTransfer;
    Tinf uniform 315.2;
    alphaWall uniform 4.3;
    value nonuniform List<scalar> 9
(
  311.345
  310.724
  310.335
  310.042
  309.798
  309.575
  309.408
  309.48
  309.707
)
;
  }
  glass2
  {
    type wallHeatTransfer;
    Tinf uniform 307.2;
    alphaWall uniform 4.3;
    value nonuniform List<scalar> 2
(
  305.79
  305.909
)
;
  }
  sun
  {
    type wallHeatTransfer;
    Tinf uniform 305.2;
    alphaWall uniform 0.24;
    value nonuniform List<scalar> 14
(
  303.485
  303.236
  303.221
  303.211
  303.201
  303.192
  303.182
  303.171
  303.159
  303.149
  303.143
  303.145
  303.157
  303.189
)
;
  }
  heatsource1
  {
    type fixedGradient;
    gradient uniform 0;
  }
  heatsource2
  {
    type fixedGradient;
    gradient uniform 0;
  }
  Table_master
  {
    type zeroGradient;
  }
  Table_slave
  {
    type zeroGradient;
  }
  inlet
  {
    type fixedValue;
    value uniform 293.15;
  }
  outlet
  {
    type zeroGradient;
  }
} 	// ************************************************************************* //

