/*--------------------------------*- C++ -*----------------------------------*\
  =========                 |
  \\      /  F ield         | OpenFOAM: The Open Source CFD Toolbox
   \\    /   O peration     | Website:  https://openfoam.org
    \\  /    A nd           | Version:  6
     \\/     M anipulation  |
\*---------------------------------------------------------------------------*/
FoamFile
{
    version     2.0;
    format      ascii;
    class       volScalarField;
    location    "600";
    object      epsilon;
}
// * * * * * * * * * * * * * * * * * * * * * * * * * * * * * * * * * * * * * //

dimensions      [0 2 -3 0 0 0 0];

internalField   nonuniform List<scalar> 
459
(
0.000446524
0.000580363
0.00061512
0.00070824
0.000802997
0.000900479
0.00100598
0.00110952
0.00118278
0.00120538
0.00116145
0.00104707
0.0008714
0.00066019
0.000460482
3.69984e-05
6.23885e-05
9.09553e-05
9.61426e-05
8.92212e-05
7.89818e-05
6.52676e-05
5.28833e-05
4.30621e-05
3.54567e-05
2.954e-05
2.48878e-05
2.11942e-05
1.82208e-05
1.57512e-05
1.36035e-05
1.16128e-05
1.04828e-05
8.04344e-06
0.00111995
0.00162073
0.000544577
0.000527959
0.00055333
0.000598061
0.000666863
0.000754058
0.000832897
0.000875903
0.000864068
0.000795313
0.000680396
0.000542902
0.000431438
0.000494376
0.000137716
4.0855e-05
9.43871e-05
0.000107884
0.000102698
9.08563e-05
7.85879e-05
7.30867e-05
5.91317e-05
4.6554e-05
3.66328e-05
2.9039e-05
2.32564e-05
1.88456e-05
1.549e-05
1.30172e-05
1.14784e-05
1.07881e-05
2.72799e-05
1.86611e-05
0.00202875
0.00394398
0.000666639
0.000502183
0.000527466
0.000596476
0.000700429
0.000826967
0.000935388
0.000991855
0.000982019
0.000911655
0.000793049
0.000653431
0.000531808
0.00047045
0.000577933
0.000252924
0.000205991
0.000168129
0.000137632
0.00011309
9.85685e-05
0.000185916
0.00012733
9.01092e-05
6.59557e-05
4.98217e-05
3.87224e-05
3.08887e-05
2.52754e-05
2.12818e-05
1.62228e-05
1.36633e-05
5.21604e-05
2.97769e-05
0.00326701
0.00815686
0.00104263
0.00050715
0.000517136
0.000616078
0.000776351
0.000961659
0.00109358
0.0011472
0.00112274
0.00103522
0.000892609
0.000737479
0.000604169
0.000519719
0.000503517
0.000909413
0.000532372
0.000331537
0.000228832
0.000169659
0.000132456
0.000115659
0.000271235
0.00020656
0.000167441
0.000141209
0.000121031
0.000103957
8.90765e-05
7.49824e-05
6.05457e-05
3.56406e-05
2.30445e-05
8.89877e-05
4.10265e-05
0.00496167
0.0145407
0.00204179
0.000594024
0.000526982
0.000665001
0.000962086
0.00122043
0.00134849
0.00137212
0.00131228
0.00118646
0.00101031
0.000813995
0.000630862
0.000486526
0.000392967
0.000357693
0.000297957
0.00024254
0.000197258
0.000160858
0.000131851
0.000111304
0.000107676
0.000100349
9.31709e-05
8.60366e-05
7.84146e-05
7.02002e-05
6.20273e-05
5.42823e-05
4.71461e-05
3.74596e-05
2.85692e-05
6.30126e-05
4.77058e-05
7.69202e-05
0.000133886
0.000190165
0.00731263
0.0216288
0.00458006
0.00110288
0.000747476
0.000916772
0.00147763
0.00170227
0.00174892
0.00169953
0.00158264
0.00140215
0.00116816
0.000910405
0.000669001
0.0004786
0.000354028
0.000288055
0.000248673
0.000215415
0.00018304
0.000153289
0.000128142
0.000109572
9.97187e-05
9.52137e-05
9.26006e-05
8.96782e-05
8.51782e-05
7.81335e-05
6.83946e-05
5.82749e-05
4.9053e-05
4.07492e-05
3.53342e-05
4.72112e-05
4.95742e-05
6.00663e-05
0.000247668
0.000218965
0.0100902
0.0258953
0.00951966
0.0036005
0.00240157
0.00251185
0.00261087
0.00252314
0.00235939
0.00216944
0.00194922
0.00167936
0.00136002
0.00102263
0.000714216
0.000479945
0.000334857
0.000261356
0.000223028
0.000193317
0.000164703
0.000139069
0.000118886
0.000105776
0.000100361
0.000100513
0.000103008
0.000105903
0.00010792
0.0001073
0.000100618
8.93069e-05
7.81445e-05
6.87503e-05
6.53802e-05
7.41142e-05
9.60049e-05
0.000155463
0.00035148
0.000341559
0.0107603
0.0286792
0.015659
0.0100629
0.00728054
0.00561146
0.00445286
0.00368223
0.00315976
0.00276457
0.00239827
0.0019981
0.00155604
0.0011126
0.000721424
0.000446251
0.000292583
0.000221483
0.000186655
0.0001601
0.000136942
0.000118773
0.000106877
0.000101618
0.000102521
0.000108157
0.000117091
0.00012884
0.000143482
0.000160916
0.000180056
0.000193294
0.000204918
0.000229487
0.000279762
0.000427248
0.000797309
0.00149981
0.00425081
0.00123705
0.00999316
0.0169534
0.0135859
0.0102788
0.0078709
0.00624013
0.00514368
0.0043978
0.00385358
0.00337361
0.00285866
0.00226661
0.0016376
0.00105717
0.000568639
0.000317645
0.000213473
0.000166608
0.000140461
0.000121344
0.000106612
9.69423e-05
9.26367e-05
9.34901e-05
9.89855e-05
0.00010859
0.000122249
0.00014069
0.000165385
0.000198518
0.000243029
0.000303102
0.000385532
0.000507729
0.000685527
0.000922897
0.00118925
0.00141651
0.00159374
0.000999209
0.00487937
0.00657222
0.00675868
0.00629079
0.00564239
0.00501487
0.00435274
0.00359579
0.00274959
0.00180306
0.000976281
0.000521485
0.000285967
0.000181086
0.000132586
0.000107384
9.18337e-05
8.13098e-05
7.47484e-05
7.16976e-05
7.19452e-05
7.52429e-05
8.13716e-05
9.0363e-05
0.000102629
0.000119041
0.000141019
0.000170721
0.000211535
0.000268659
0.000347677
0.000455753
0.000595704
0.000753304
0.000885844
0.000939503
0.00087242
0.000550948
0.00338087
0.0067658
0.00677011
0.00543808
0.00455228
0.00378286
0.00286048
0.00195097
0.00122159
0.000710602
0.000402334
0.000232942
0.000147474
0.000106426
8.54408e-05
7.36331e-05
6.65658e-05
6.26359e-05
6.12545e-05
6.207e-05
6.48237e-05
6.93807e-05
7.58612e-05
8.45764e-05
9.60264e-05
0.000111049
0.000130967
0.000157822
0.000194511
0.000244851
0.000313957
0.000406716
0.000523122
0.000655247
0.000748863
0.000840485
0.000786753
0.000578611
0.00216256
0.00252331
0.00281349
0.00312483
0.00234848
0.00184519
0.00164282
0.00141173
0.00112727
0.00083089
0.000576947
0.000388292
0.000263069
0.000186056
0.000140278
0.000111861
9.29788e-05
8.0021e-05
7.14913e-05
6.66608e-05
6.49473e-05
6.58333e-05
6.89656e-05
7.42335e-05
8.16914e-05
9.13239e-05
0.000103542
0.000118983
0.000138642
0.000164181
0.000196513
0.000237249
0.000288826
0.000354309
0.000436469
0.000554375
0.000587357
0.000539672
0.000443977
0.000352942
)
;

boundaryField
{
    floor
    {
        Cmu             0.09;
        kappa           0.41;
        E               9.8;
        type            epsilonWallFunction;
        value           nonuniform List<scalar> 
29
(
0.000460482
3.69984e-05
6.23885e-05
9.09553e-05
9.61426e-05
8.92212e-05
7.89818e-05
6.52676e-05
5.28833e-05
4.30621e-05
3.54567e-05
2.954e-05
2.48878e-05
2.11942e-05
1.82208e-05
1.57512e-05
1.36035e-05
1.16128e-05
1.04828e-05
8.04344e-06
8.04344e-06
1.86611e-05
2.97769e-05
4.10265e-05
0.000460482
3.69984e-05
4.0855e-05
0.000252924
0.000909413
)
;
    }
    ceiling
    {
        Cmu             0.09;
        kappa           0.41;
        E               9.8;
        type            epsilonWallFunction;
        value           nonuniform List<scalar> 
43
(
0.00216256
0.00252331
0.00281349
0.00312483
0.00234848
0.00184519
0.00164282
0.00141173
0.00112727
0.00083089
0.000576947
0.000388292
0.000263069
0.000186056
0.000140278
0.000111861
9.29788e-05
8.0021e-05
7.14913e-05
6.66608e-05
6.49473e-05
6.58333e-05
6.89656e-05
7.42335e-05
8.16914e-05
9.13239e-05
0.000103542
0.000118983
0.000138642
0.000164181
0.000196513
0.000237249
0.000288826
0.000354309
0.000436469
0.000554375
0.000587357
0.000539672
0.000443977
0.000352942
0.00999316
0.0169534
0.00338087
)
;
    }
    sWall
    {
        Cmu             0.09;
        kappa           0.41;
        E               9.8;
        type            epsilonWallFunction;
        value           uniform 0.00216256;
    }
    nWall
    {
        Cmu             0.09;
        kappa           0.41;
        E               9.8;
        type            epsilonWallFunction;
        value           nonuniform List<scalar> 6(0.000190165 0.000218965 0.000341559 0.000550948 0.000578611 0.000352942);
    }
    sideWalls
    {
        type            empty;
    }
    glass1
    {
        Cmu             0.09;
        kappa           0.41;
        E               9.8;
        type            epsilonWallFunction;
        value           nonuniform List<scalar> 9(0.000446524 0.00111995 0.00202875 0.00326701 0.00496167 0.00731263 0.0100902 0.0107603 0.00999316);
    }
    glass2
    {
        Cmu             0.09;
        kappa           0.41;
        E               9.8;
        type            epsilonWallFunction;
        value           nonuniform List<scalar> 2(0.00123705 0.000999209);
    }
    sun
    {
        Cmu             0.09;
        kappa           0.41;
        E               9.8;
        type            epsilonWallFunction;
        value           nonuniform List<scalar> 
14
(
0.000446524
0.000580363
0.00061512
0.00070824
0.000802997
0.000900479
0.00100598
0.00110952
0.00118278
0.00120538
0.00116145
0.00104707
0.0008714
0.00066019
)
;
    }
    heatsource1
    {
        Cmu             0.09;
        kappa           0.41;
        E               9.8;
        type            epsilonWallFunction;
        value           nonuniform List<scalar> 3(7.69202e-05 0.000133886 0.000190165);
    }
    heatsource2
    {
        Cmu             0.09;
        kappa           0.41;
        E               9.8;
        type            epsilonWallFunction;
        value           nonuniform List<scalar> 4(0.000494376 0.000137716 0.000137716 0.000577933);
    }
    Table_master
    {
        Cmu             0.09;
        kappa           0.41;
        E               9.8;
        type            epsilonWallFunction;
        value           nonuniform List<scalar> 9(0.000185916 0.00012733 9.01092e-05 6.59557e-05 4.98217e-05 3.87224e-05 3.08887e-05 2.52754e-05 2.12818e-05);
    }
    Table_slave
    {
        Cmu             0.09;
        kappa           0.41;
        E               9.8;
        type            epsilonWallFunction;
        value           nonuniform List<scalar> 9(0.000271235 0.00020656 0.000167441 0.000141209 0.000121031 0.000103957 8.90765e-05 7.49824e-05 6.05457e-05);
    }
    inlet
    {
        type            turbulentMixingLengthDissipationRateInlet;
        mixingLength    0.01;
        phi             phi;
        k               k;
        value           uniform 0.000101881;
    }
    outlet
    {
        type            zeroGradient;
    }
}


// ************************************************************************* //
