/*--------------------------------*- C++ -*----------------------------------*\
  =========                 |
  \\      /  F ield         | OpenFOAM: The Open Source CFD Toolbox
   \\    /   O peration     | Website:  https://openfoam.org
    \\  /    A nd           | Version:  6
     \\/     M anipulation  |
\*---------------------------------------------------------------------------*/
FoamFile
{
    version     2.0;
    format      ascii;
    class       surfaceScalarField;
    location    "600";
    object      phi;
}
// * * * * * * * * * * * * * * * * * * * * * * * * * * * * * * * * * * * * * //

dimensions      [1 0 -1 0 0 0 0];

internalField   nonuniform List<scalar> 
852
(
-0.00297045
0.0030279
-0.00402394
0.00105349
-0.00482593
0.000801997
-0.00544164
0.000615722
-0.00583585
0.000394217
-0.00597867
0.000142821
-0.00584117
-0.000137486
-0.00540554
-0.000435627
-0.00469806
-0.000707476
-0.00379503
-0.000903019
-0.00280503
-0.000989997
-0.00184439
-0.00096063
-0.0010215
-0.000822881
-0.000408233
-0.000613261
-0.000406491
-0.000799675
0.000802709
-0.000562279
-0.000237392
2.82939e-05
-0.000590569
0.000539827
-0.000511529
0.000901465
-0.000361636
0.00114102
-0.000239549
0.00127524
-0.000134215
0.00133941
-6.41681e-05
0.00137449
-3.50824e-05
0.00139596
-2.14695e-05
0.00140806
-1.20947e-05
0.00141247
-4.40471e-06
0.00140799
4.4778e-06
0.00138723
2.07645e-05
0.00132923
5.8007e-05
0.00119874
0.000130487
0.000984623
0.000214119
0.00072153
0.000263095
0.000725573
-0.00213002
0.00531271
-0.00316177
0.00208525
-0.0039935
0.00163373
-0.00460795
0.00123019
-0.00500347
0.000789747
-0.00515821
0.000297569
-0.00504028
-0.000255409
-0.00463819
-0.000837711
-0.00399253
-0.00135313
-0.00318875
-0.00170679
-0.00233037
-0.00184837
-0.00151139
-0.0017796
-0.000810855
-0.00152341
-0.000291664
-0.00113245
-1.33186e-05
-0.000684831
0.000177257
-0.000190621
0.000177211
0.000210126
0.000601472
0.000607749
-0.000635011
0.000885185
-0.000868002
0.00111753
-0.000743874
0.00130497
-0.000549074
0.00142887
-0.000363442
0.00145213
-0.000157469
0.00145756
-6.95989e-05
0.0014641
-4.16228e-05
0.00146959
-2.69537e-05
0.00147319
-1.56955e-05
0.00147513
-6.33909e-06
0.00147483
4.78044e-06
0.00146915
2.64391e-05
0.00143059
9.65762e-05
0.00126433
0.000296744
0.00097755
0.000500903
0.000622054
0.000618593
0.00135794
-0.00149764
0.00704725
-0.00238951
0.00297712
-0.00313461
0.00237883
-0.00366887
0.00176446
-0.00402198
0.00114287
-0.00416528
0.000440875
-0.00404204
-0.000378643
-0.00363948
-0.00124026
-0.00302749
-0.00196511
-0.00230567
-0.0024286
-0.00157051
-0.00258352
-0.000888487
-0.00246161
-0.00030802
-0.00210387
0.000147956
-0.00158842
0.000441581
-0.00097845
0.000548481
-0.000297516
0.000725698
0.00148326
-0.000871924
0.00170157
-0.00085332
0.00165471
-0.000821138
0.00164189
-0.000731043
0.00166852
-0.000575708
0.00172016
-0.000415077
0.00156284
0.0014934
0.00145193
0.00142513
0.00140959
0.00140341
0.00140835
0.00143494
0.00153167
0.0012584
0.000570019
0.000929221
0.000830081
0.000524001
0.00102381
0.00189755
-0.00104781
0.00840197
-0.00175513
0.00368445
-0.00225897
0.00288269
-0.00261953
0.00212502
-0.00286264
0.00138598
-0.00294199
0.000520234
-0.00275826
-0.000562363
-0.0023233
-0.00167521
-0.00175253
-0.00253587
-0.00114606
-0.00303507
-0.000576481
-0.00315308
-7.46859e-05
-0.0029634
0.000348048
-0.0025266
0.00070098
-0.00194134
0.0010132
-0.00129066
0.00136508
-0.000649397
0.00222485
-0.000134064
0.00250976
-0.000276305
0.00217378
-0.000535946
0.00203063
-0.000710167
0.00189146
-0.000681963
0.00176637
-0.000605949
0.00168427
-0.000493606
0.00161228
-0.000343078
0.00176081
-0.000148685
0.00184995
-8.9292e-05
0.00192078
-7.09875e-05
0.00197593
-5.53042e-05
0.00200104
-2.52667e-05
0.0019739
2.6988e-05
0.00186845
0.000105295
0.00165075
0.000217546
0.00126517
0.000385417
0.00110206
0.000733136
0.000788779
0.00114336
0.000324749
0.00148785
0.00224264
-0.000730548
0.00949896
-0.001265
0.00421891
-0.00139219
0.00300989
-0.00148798
0.00222081
-0.00154567
0.00144367
-0.00146668
0.000441251
-0.00113801
-0.000891027
-0.00066943
-0.00214378
-0.000189944
-0.00301534
0.000229726
-0.00345472
0.000564779
-0.00348813
0.000816129
-0.00321474
0.00101446
-0.00272492
0.00118655
-0.00211343
0.00136387
-0.00146797
0.00159324
-0.000878763
0.00191774
-0.00045856
0.00200617
-0.000364728
0.00192156
-0.000451342
0.0017403
-0.000528901
0.00157301
-0.000514664
0.00142717
-0.000460108
0.00131727
-0.000383712
0.00125992
-0.000285726
0.00129774
-0.000186505
0.00134886
-0.000140412
0.00140513
-0.000127268
0.00146352
-0.000113695
0.0015134
-7.51474e-05
0.00153378
6.60693e-06
0.00150238
0.000136684
0.00140677
0.000313157
0.00124885
0.000543329
0.00110127
0.000880711
0.0009363
0.00130833
0.000577214
0.00184693
0.000473741
0.00234611
-0.000991448
0.00146498
-0.00145034
0.000458686
-0.00140177
-0.000630332
0.010546
-0.000992114
0.0045807
-0.000596796
0.00261457
-0.000298659
0.00192268
-7.64321e-05
0.00122145
0.000305264
5.95579e-05
0.000828468
-0.00141423
0.00126223
-0.00257753
0.00155163
-0.00330472
0.00169722
-0.00360031
0.00173412
-0.00352501
0.0016926
-0.00317321
0.00161092
-0.00264322
0.00152652
-0.00202903
0.00147008
-0.00141152
0.0014646
-0.000873279
0.00150034
-0.000494298
0.00146962
-0.000334009
0.00134474
-0.000326463
0.0011645
-0.000348661
0.000995235
-0.000345395
0.000856253
-0.000321127
0.000757098
-0.000284559
0.000710268
-0.000238898
0.000722042
-0.000198282
0.000767511
-0.000185884
0.000831881
-0.000191642
0.000909036
-0.000190855
0.000992829
-0.000158945
0.00107127
-7.18405e-05
0.00112515
8.27957e-05
0.00114832
0.000289989
0.00114993
0.00054171
0.0011739
0.000856732
0.00126661
0.00121562
0.00144373
0.00166981
0.00188952
0.00190032
0.00215759
0.00119692
0.0017768
0.000839473
0.000433293
-0.000707687
0.0117154
-0.000583337
0.00445635
0.000510292
0.00152095
0.00122001
0.00121296
0.00186996
0.000571502
0.00256273
-0.000633203
0.00307614
-0.00192763
0.00333271
-0.00283409
0.00333595
-0.00330795
0.0031362
-0.00340054
0.00280195
-0.00319075
0.00239708
-0.00276833
0.00197915
-0.00222528
0.00159599
-0.00164587
0.0012762
-0.00109173
0.00103956
-0.000636643
0.00087881
-0.000333546
0.000741561
-0.00019676
0.0005902
-0.000175101
0.000432294
-0.000190756
0.000290832
-0.000203934
0.000178459
-0.000208756
0.000101964
-0.000208067
6.81977e-05
-0.000205135
7.78092e-05
-0.000207899
0.000117486
-0.000225566
0.00017614
-0.000250301
0.00025138
-0.000266101
0.00034697
-0.000254541
0.000467947
-0.000192824
0.000602916
-5.21793e-05
0.000739198
0.0001537
0.000886025
0.000394877
0.00108053
0.000662223
0.00136876
0.000927386
0.00181759
0.00122097
0.00249219
0.00122571
0.00304171
0.000647395
0.00306171
0.000819472
0.00355714
0.00263005
0.00960137
0.00332393
0.00376248
0.00352131
0.00132358
0.00406067
0.000673606
0.00482389
-0.000191718
0.00546911
-0.00127842
0.00567815
-0.00213665
0.00547958
-0.00263551
0.00497132
-0.00279966
0.00426308
-0.00269228
0.00345882
-0.00238649
0.00264114
-0.00195063
0.00187521
-0.00145936
0.00121389
-0.000984544
0.000677152
-0.000554994
0.000292026
-0.00025152
4.66432e-05
-8.81647e-05
-0.000113875
-3.62441e-05
-0.000241679
-4.72992e-05
-0.000355932
-7.6505e-05
-0.000455392
-0.000104478
-0.000535342
-0.000128811
-0.000592205
-0.000151208
-0.000623613
-0.000173733
-0.000631534
-0.000199983
-0.000624945
-0.000232161
-0.000610467
-0.000264786
-0.000587948
-0.000288627
-0.000549305
-0.000293191
-0.000475638
-0.000266498
-0.000336092
-0.000191731
-0.000142533
-3.98649e-05
8.58495e-05
0.000166488
0.000365453
0.000382614
0.00070263
0.000590204
0.00113418
0.000789418
0.00158547
0.000774422
0.00175194
0.000480915
0.00101069
0.00156072
0.00482738
0.0101683
0.0139239
0.0122795
0.00296797
0.0113979
0.0015552
0.0106378
0.000568412
0.00968429
-0.000324891
0.00847723
-0.000929562
0.00712698
-0.00128523
0.00573135
-0.00140401
0.00436377
-0.00132469
0.00308992
-0.00111263
0.00194737
-0.00080808
0.000963648
-0.000475642
0.000173076
-0.000193976
-0.000387352
5.42686e-06
-0.000714825
7.5948e-05
-0.000883761
8.07675e-05
-0.000978874
5.88652e-05
-0.00105205
2.58688e-05
-0.00112188
-6.67134e-06
-0.00119022
-3.61442e-05
-0.00125442
-6.46145e-05
-0.00131275
-9.28939e-05
-0.00136572
-0.000120764
-0.00141735
-0.000148362
-0.00147529
-0.000174221
-0.00154754
-0.000192543
-0.00164179
-0.000194386
-0.00176709
-0.000167893
-0.00193466
-9.89353e-05
-0.00215178
2.53826e-05
-0.00240646
0.000214808
-0.0027242
0.000484225
-0.00319064
0.000849048
-0.00390284
0.0013024
-0.00492132
0.00180789
-0.00635698
0.00221008
-0.00807339
0.00219733
-0.00752903
0.00101636
-0.002414
0.00508992
0.0045178
0.00402346
0.00262172
0.00436348
0.000228466
0.00436784
-0.0003292
0.0039177
-0.000479393
0.00319
-0.000557522
0.00231497
-0.000528989
0.00138537
-0.000395096
0.000467926
-0.000195191
-0.000362091
2.192e-05
-0.00099416
0.000156418
-0.00138138
0.000193236
-0.00157068
0.000194719
-0.00166117
0.00016644
-0.00171288
0.000132468
-0.00175212
9.81063e-05
-0.00179214
6.5881e-05
-0.0018366
3.77845e-05
-0.00188662
1.38703e-05
-0.00194394
-7.3026e-06
-0.00200864
-2.82075e-05
-0.00208111
-4.82995e-05
-0.00216347
-6.60075e-05
-0.00225784
-7.98549e-05
-0.00236548
-8.49082e-05
-0.00248529
-7.45831e-05
-0.00261263
-4.05626e-05
-0.00273872
2.71578e-05
-0.00285179
0.00013844
-0.0029492
0.000312216
-0.003039
0.000574015
-0.00312822
0.000938266
-0.00321419
0.00138837
-0.00324569
0.00183938
-0.0031557
0.00212009
-0.00274857
0.00179019
-0.00148214
-0.000250086
-0.00382124
-0.000441934
0.00501726
0.000810074
0.00136975
0.000691777
0.00034679
0.000337606
2.49733e-05
-0.00011477
-2.70457e-05
-0.000676017
3.703e-06
-0.0012577
5.26744e-05
-0.00176459
0.000111777
-0.00212695
0.000167162
-0.00231087
0.000205835
-0.00236925
0.000214793
-0.00237394
0.000197919
-0.00235001
0.000170779
-0.00232559
0.000142019
-0.00231108
0.000117949
-0.00231024
9.72614e-05
-0.00232253
7.8166e-05
-0.00234474
5.99822e-05
-0.00237338
4.25082e-05
-0.00240673
2.6042e-05
-0.00244584
1.0894e-05
-0.00249102
-3.12511e-06
-0.00254233
-1.47061e-05
-0.00259907
-2.31218e-05
-0.00265772
-2.62604e-05
-0.0027115
-2.08178e-05
-0.00274955
-2.51839e-06
-0.00275956
3.71662e-05
-0.00272798
0.000106859
-0.00263092
0.00021515
-0.00243525
0.00037834
-0.00211463
0.00061764
-0.00165665
0.000930388
-0.00103704
0.00121976
-7.43229e-05
0.00115737
0.00118543
0.000530441
0.00155287
-0.000617539
-0.00218615
-0.00795524
-0.010832
-0.00577051
-0.00437812
-0.00401774
-0.00398402
-0.00400525
-0.00399788
-0.00394311
-0.00383047
-0.00366346
-0.00345865
-0.00324562
-0.00305011
-0.00288225
-0.00274358
-0.00262932
-0.00253604
-0.00246205
-0.0024064
-0.00236829
-0.00234666
-0.00234016
-0.00234762
-0.00236657
-0.00239383
-0.00242411
-0.00244882
-0.00245509
-0.00242152
-0.0023181
-0.00210623
-0.00173104
-0.00111641
-0.000188947
0.00102792
0.0021823
0.00270957
0.00208861
)
;

boundaryField
{
    floor
    {
        type            calculated;
        value           nonuniform List<scalar> 
29
(
0
0
0
0
0
0
0
0
0
0
0
0
0
0
0
0
0
0
0
0
-4.0408e-06
-1.03126e-05
-1.56026e-05
-2.03429e-05
-1.73755e-06
-3.03041e-06
-8.88427e-06
-9.86224e-06
-8.59667e-06
)
;
    }
    ceiling
    {
        type            calculated;
        value           nonuniform List<scalar> 
43
(
-4.67765e-05
-4.55064e-05
-4.4245e-05
-2.2656e-05
-1.36028e-05
-8.76896e-06
-5.83174e-06
-3.67248e-06
-2.10472e-06
-8.71411e-07
1.46055e-07
1.014e-06
1.7603e-06
2.39528e-06
2.91622e-06
3.33979e-06
3.68599e-06
3.96522e-06
4.17689e-06
4.31813e-06
4.3925e-06
4.41047e-06
4.38438e-06
4.32412e-06
4.23747e-06
4.13375e-06
4.01595e-06
3.88592e-06
3.74437e-06
3.59015e-06
3.43345e-06
3.28098e-06
3.13811e-06
3.01231e-06
2.91755e-06
2.88999e-06
2.9867e-06
3.17244e-06
3.418e-06
4.44791e-06
9.86871e-06
6.88587e-06
-5.7497e-05
)
;
    }
    sWall
    {
        type            calculated;
        value           uniform -0.000272066;
    }
    nWall
    {
        type            calculated;
        value           nonuniform List<scalar> 6(-4.87717e-05 -5.82665e-05 -6.21365e-05 -7.49016e-05 -8.22203e-05 -0.000102002);
    }
    sideWalls
    {
        type            empty;
        value           nonuniform 0();
    }
    glass1
    {
        type            calculated;
        value           nonuniform List<scalar> 9(-5.74367e-05 -0.000154785 -0.00023689 -0.000306898 -0.000366433 -0.000416681 -0.000461701 -0.000516031 -0.000576775);
    }
    glass2
    {
        type            calculated;
        value           nonuniform List<scalar> 2(-0.000259548 -0.000287652);
    }
    sun
    {
        type            calculated;
        value           uniform 0;
    }
    heatsource1
    {
        type            calculated;
        value           nonuniform List<scalar> 3(2.04263e-07 2.04187e-07 2.04205e-07);
    }
    heatsource2
    {
        type            calculated;
        value           nonuniform List<scalar> 4(5.12226e-08 5.12925e-08 0 0);
    }
    Table_master
    {
        type            calculated;
        value           nonuniform List<scalar> 9(-1.53188e-07 -1.53285e-07 -1.5332e-07 -1.53343e-07 -1.53359e-07 -1.5337e-07 -1.53376e-07 -1.53372e-07 -1.53342e-07);
    }
    Table_slave
    {
        type            calculated;
        value           nonuniform List<scalar> 9(1.53056e-07 1.53076e-07 1.53053e-07 1.53034e-07 1.53025e-07 1.53028e-07 1.53042e-07 1.53084e-07 1.53167e-07);
    }
    inlet
    {
        type            calculated;
        value           uniform -0.00663973;
    }
    outlet
    {
        type            calculated;
        value           nonuniform List<scalar> 2(0.00827408 0.00292228);
    }
}


// ************************************************************************* //
