// -*- C++ -*-
// File generated by PyFoam - sorry for the ugliness

FoamFile
{
 version 2.0;
 format ascii;
 class volVectorField;
 location "600";
 object U;
}

dimensions [ 0 1 -1 0 0 0 0 ];

internalField nonuniform List<vector> 459
(
  (0.00399802 0.0913625 0)
  (-0.188086 0.0255877 0)
  (-0.217893 0.00365698 0)
  (-0.230323 -0.0141632 0)
  (-0.211339 -0.0336589 0)
  (-0.163735 -0.0558777 0)
  (-0.0947995 -0.07465 0)
  (-0.00548432 -0.0781533 0)
  (0.072926 -0.0586466 0)
  (0.12489 -0.040846 0)
  (0.159683 -0.0251712 0)
  (0.175226 -0.0112749 0)
  (0.169229 0.0035515 0)
  (0.138858 0.0258028 0)
  (0.10516 0.0758109 0)
  (-0.0366927 0.0197538 0)
  (-0.0590773 -0.00544319 0)
  (-0.0451728 -0.0233662 0)
  (-0.0185579 -0.0343224 0)
  (0.0206763 -0.0336599 0)
  (0.0501236 -0.0257234 0)
  (0.0719365 -0.0148316 0)
  (0.0860447 -0.00923284 0)
  (0.0942524 -0.00767622 0)
  (0.100207 -0.00758932 0)
  (0.106178 -0.00760241 0)
  (0.112142 -0.00705316 0)
  (0.116862 -0.00574973 0)
  (0.118914 -0.00378295 0)
  (0.116594 -0.000835972 0)
  (0.108546 0.0037664 0)
  (0.092743 0.010298 0)
  (0.0680676 0.018789 0)
  (0.019342 0.030411 0)
  (0.165373 0.192752 0)
  (-0.163693 0.0838965 0)
  (-0.172545 0.0434134 0)
  (-0.188086 0.00475143 0)
  (-0.173659 -0.0408855 0)
  (-0.132256 -0.0880431 0)
  (-0.073479 -0.12151 0)
  (-0.00576358 -0.123883 0)
  (0.0550408 -0.0956417 0)
  (0.0993614 -0.0635913 0)
  (0.129559 -0.0331683 0)
  (0.144796 -0.00463263 0)
  (0.147213 0.0230607 0)
  (0.140998 0.0535044 0)
  (0.136487 0.0954919 0)
  (0.129761 0.0876996 0)
  (0.0818379 0.0783017 0)
  (0.00332695 0.050641 0)
  (-0.0254025 0.0101458 0)
  (0.0238336 -0.04238 0)
  (0.0390611 -0.0520285 0)
  (0.0583072 -0.0497239 0)
  (0.0763752 -0.0399092 0)
  (0.0858471 -0.0191382 0)
  (0.0883989 -0.00688695 0)
  (0.0887112 -0.00356028 0)
  (0.089398 -0.00391079 0)
  (0.0906867 -0.00483773 0)
  (0.0922429 -0.00457293 0)
  (0.0937452 -0.00221795 0)
  (0.0933533 0.00218735 0)
  (0.0899294 0.00859168 0)
  (0.0821509 0.0191628 0)
  (0.067591 0.031389 0)
  (0.0491637 0.0442426 0)
  (-0.00567861 0.0616567 0)
  (0.311188 0.28711 0)
  (-0.165576 0.128998 0)
  (-0.131905 0.0679391 0)
  (-0.148487 0.00441302 0)
  (-0.134971 -0.067655 0)
  (-0.0958539 -0.138291 0)
  (-0.0460951 -0.181141 0)
  (0.00580661 -0.178763 0)
  (0.0499626 -0.142325 0)
  (0.0848471 -0.0978313 0)
  (0.108684 -0.0546151 0)
  (0.121496 -0.0152834 0)
  (0.126111 0.0213348 0)
  (0.125405 0.056737 0)
  (0.123713 0.0907523 0)
  (0.11146 0.0964855 0)
  (0.0868817 0.126592 0)
  (0.0515318 0.0197626 0)
  (0.0654971 -0.0332201 0)
  (0.0803022 -0.0587339 0)
  (0.0874579 -0.0663849 0)
  (0.0939218 -0.0633235 0)
  (0.101884 -0.0569201 0)
  (0.103752 -0.0421107 0)
  (0.0887167 -0.0272518 0)
  (0.0756805 -0.0196302 0)
  (0.067673 -0.0160401 0)
  (0.0606107 -0.0139527 0)
  (0.0528135 -0.0111128 0)
  (0.0464089 -0.00606734 0)
  (0.0462247 0.000517716 0)
  (0.0534517 0.00902525 0)
  (0.0570302 0.0292951 0)
  (0.0489619 0.0477378 0)
  (0.0407675 0.0658341 0)
  (-0.0240152 0.0903596 0)
  (0.441671 0.362602 0)
  (-0.183722 0.168537 0)
  (-0.0929821 0.0920303 0)
  (-0.107558 0.00684437 0)
  (-0.0880759 -0.0924365 0)
  (-0.0489498 -0.18377 0)
  (-0.00955662 -0.229676 0)
  (0.0258126 -0.221134 0)
  (0.0546207 -0.178121 0)
  (0.0776733 -0.123151 0)
  (0.0924929 -0.0693077 0)
  (0.0998898 -0.0219616 0)
  (0.10278 0.0191131 0)
  (0.10428 0.0552442 0)
  (0.109629 0.087214 0)
  (0.120324 0.106932 0)
  (0.138576 0.138243 0)
  (0.171477 0.112158 0)
  (0.143937 0.039048 0)
  (0.13914 -0.0140118 0)
  (0.133492 -0.047675 0)
  (0.12383 -0.0605366 0)
  (0.11258 -0.0593769 0)
  (0.0997773 -0.0504878 0)
  (0.0950117 -0.0283536 0)
  (0.104653 -0.0162902 0)
  (0.110166 -0.00969483 0)
  (0.108762 -0.0055771 0)
  (0.10383 -0.00262468 0)
  (0.0972368 -0.000285956 0)
  (0.0890845 0.00185564 0)
  (0.0784728 0.00437034 0)
  (0.0632355 0.00820524 0)
  (0.0493379 0.0316494 0)
  (0.0413146 0.0567436 0)
  (0.042448 0.0811134 0)
  (-0.0306151 0.115869 0)
  (0.555029 0.420392 0)
  (-0.209804 0.199719 0)
  (-0.056469 0.107499 0)
  (-0.0594513 0.00577775 0)
  (-0.0257113 -0.12054 0)
  (0.0108106 -0.222582 0)
  (0.0357039 -0.261202 0)
  (0.0529861 -0.246794 0)
  (0.0654952 -0.198164 0)
  (0.0734566 -0.135598 0)
  (0.0762552 -0.0748128 0)
  (0.075562 -0.023565 0)
  (0.0743785 0.0179332 0)
  (0.0767645 0.0512275 0)
  (0.0863095 0.0777781 0)
  (0.102954 0.0932031 0)
  (0.12707 0.0973504 0)
  (0.146612 0.0476098 0)
  (0.149061 0.00306238 0)
  (0.146358 -0.0273302 0)
  (0.13625 -0.0443555 0)
  (0.120945 -0.0495834 0)
  (0.104105 -0.045608 0)
  (0.0883492 -0.0343472 0)
  (0.0789311 -0.0140523 0)
  (0.0757182 -0.00129291 0)
  (0.0715683 0.00494097 0)
  (0.0661307 0.00804975 0)
  (0.0603212 0.0100616 0)
  (0.054739 0.011824 0)
  (0.0492815 0.0139525 0)
  (0.0436401 0.0172166 0)
  (0.0372207 0.0231061 0)
  (0.0337318 0.040186 0)
  (0.0340684 0.0625114 0)
  (0.0528916 0.0866137 0)
  (0.0296639 0.115666 0)
  (0.0678601 0.0750483 0)
  (0.0921974 0.0468127 0)
  (-0.357077 -0.014235 0)
  (0.645223 0.465376 0)
  (-0.238071 0.216974 0)
  (-0.0216268 0.101073 0)
  (0.0109104 -0.024879 0)
  (0.0538223 -0.160067 0)
  (0.0787867 -0.246843 0)
  (0.0878131 -0.275393 0)
  (0.0861367 -0.254046 0)
  (0.0782432 -0.19992 0)
  (0.0674132 -0.132294 0)
  (0.0553352 -0.0683201 0)
  (0.0444827 -0.0174685 0)
  (0.0380621 0.019683 0)
  (0.0407182 0.0456449 0)
  (0.0517188 0.0635582 0)
  (0.0688147 0.0709405 0)
  (0.0917177 0.0648761 0)
  (0.109993 0.0331933 0)
  (0.116463 0.00468837 0)
  (0.112873 -0.0158861 0)
  (0.101558 -0.028083 0)
  (0.0860468 -0.031807 0)
  (0.0693303 -0.0283525 0)
  (0.0537821 -0.0193393 0)
  (0.0420534 -0.00601005 0)
  (0.0339536 0.00398923 0)
  (0.0288535 0.00911389 0)
  (0.0244697 0.0115802 0)
  (0.0206502 0.0131407 0)
  (0.0175264 0.0146001 0)
  (0.0151804 0.0165327 0)
  (0.0137751 0.0196673 0)
  (0.0133623 0.0253326 0)
  (0.0170334 0.038159 0)
  (0.0253159 0.0560685 0)
  (0.0498104 0.0754202 0)
  (0.0605935 0.0856021 0)
  (0.0876454 0.0500906 0)
  (0.120814 0.0530635 0)
  (-0.0615361 0.0470619 0)
  (0.732845 0.504138 0)
  (-0.247917 0.195302 0)
  (0.0317288 0.0244105 0)
  (0.109366 -0.0970306 0)
  (0.148297 -0.199214 0)
  (0.157224 -0.260538 0)
  (0.145052 -0.270829 0)
  (0.118688 -0.238601 0)
  (0.0852424 -0.179394 0)
  (0.0522488 -0.1101 0)
  (0.0239986 -0.0477396 0)
  (0.00360344 -0.00308482 0)
  (-0.00362599 0.023017 0)
  (0.000831097 0.0384845 0)
  (0.0128222 0.0484148 0)
  (0.0295303 0.0509144 0)
  (0.0491294 0.0439974 0)
  (0.0629611 0.0247869 0)
  (0.0666486 0.00578285 0)
  (0.0623195 -0.00799249 0)
  (0.0515765 -0.0154075 0)
  (0.0374603 -0.0167218 0)
  (0.0224558 -0.0130431 0)
  (0.00869133 -0.00574972 0)
  (-0.00268169 0.00357327 0)
  (-0.00860407 0.00987872 0)
  (-0.0119024 0.0129785 0)
  (-0.0141603 0.01443 0)
  (-0.0156753 0.0152063 0)
  (-0.0163957 0.0157915 0)
  (-0.0161204 0.0165644 0)
  (-0.0145872 0.0180081 0)
  (-0.0115596 0.0209394 0)
  (-0.00511743 0.0274191 0)
  (0.00741306 0.0371299 0)
  (0.0321873 0.0445503 0)
  (0.0586668 0.0357797 0)
  (0.0867401 0.00267103 0)
  (0.118406 0.0261886 0)
  (-0.0570956 0.105196 0)
  (0.850928 0.485151 0)
  (0.00368018 0.164118 0)
  (0.153595 -0.0581022 0)
  (0.259062 -0.160947 0)
  (0.273106 -0.220642 0)
  (0.245482 -0.247072 0)
  (0.196999 -0.235884 0)
  (0.136446 -0.193668 0)
  (0.072193 -0.132891 0)
  (0.0163899 -0.0672638 0)
  (-0.0236412 -0.014097 0)
  (-0.0414663 0.0104284 0)
  (-0.0437342 0.0221477 0)
  (-0.0382797 0.0293784 0)
  (-0.0275202 0.0339921 0)
  (-0.0137073 0.0346301 0)
  (0.000730842 0.0297001 0)
  (0.00935146 0.0185937 0)
  (0.0100278 0.00763641 0)
  (0.00479357 -7.0141e-05 0)
  (-0.00462606 -0.00362897 0)
  (-0.0163145 -0.00310376 0)
  (-0.0279835 0.00025462 0)
  (-0.037694 0.00506063 0)
  (-0.0435344 0.00968906 0)
  (-0.0464561 0.0128323 0)
  (-0.0477894 0.0145075 0)
  (-0.0483401 0.0152126 0)
  (-0.0483893 0.0153222 0)
  (-0.0480381 0.0151142 0)
  (-0.0474171 0.014917 0)
  (-0.0469265 0.0152708 0)
  (-0.0474149 0.0171745 0)
  (-0.0496759 0.0222115 0)
  (-0.0547394 0.030951 0)
  (-0.0638687 0.0421969 0)
  (-0.0822139 0.0551893 0)
  (-0.112955 0.078267 0)
  (-0.174038 0.113841 0)
  (-0.420858 0.151105 0)
  (1.0201 0.41473 0)
  (0.486148 0.265673 0)
  (0.494727 0.131569 0)
  (0.477136 -0.0172551 0)
  (0.403489 -0.11885 0)
  (0.305329 -0.161611 0)
  (0.203341 -0.154275 0)
  (0.104706 -0.11497 0)
  (0.0124116 -0.0592468 0)
  (-0.05293 -0.00980134 0)
  (-0.0783507 0.00983063 0)
  (-0.0849771 0.0163289 0)
  (-0.0837152 0.0195575 0)
  (-0.0780282 0.0220179 0)
  (-0.0695759 0.023767 0)
  (-0.0600107 0.0238171 0)
  (-0.0514396 0.0214225 0)
  (-0.0469457 0.016602 0)
  (-0.0474379 0.0116101 0)
  (-0.0517848 0.00806024 0)
  (-0.0583079 0.0066004 0)
  (-0.0652663 0.0069789 0)
  (-0.0712945 0.00852514 0)
  (-0.075589 0.0105814 0)
  (-0.0778247 0.0125646 0)
  (-0.0784889 0.01396 0)
  (-0.0782686 0.0146866 0)
  (-0.0776716 0.0148965 0)
  (-0.0770199 0.0148064 0)
  (-0.0765989 0.014766 0)
  (-0.0767717 0.0153801 0)
  (-0.0780312 0.0176117 0)
  (-0.080889 0.0227591 0)
  (-0.0857157 0.0320543 0)
  (-0.0931634 0.0454995 0)
  (-0.104087 0.0599974 0)
  (-0.118547 0.0664571 0)
  (-0.139439 0.0497675 0)
  (-0.197304 -0.00462935 0)
  (-0.355053 -0.101959 0)
  (0.0300428 -0.00666696 0)
  (0.153251 -0.0849253 0)
  (0.161847 -0.119692 0)
  (0.0951143 -0.104495 0)
  (0.012016 -0.0607693 0)
  (-0.0644995 -0.0117376 0)
  (-0.109759 0.0125548 0)
  (-0.127924 0.0207635 0)
  (-0.13085 0.0211378 0)
  (-0.129014 0.0199824 0)
  (-0.124946 0.0194315 0)
  (-0.119523 0.0197434 0)
  (-0.113307 0.0204745 0)
  (-0.10705 0.0209464 0)
  (-0.101822 0.0206603 0)
  (-0.0988469 0.01951 0)
  (-0.0984088 0.0181869 0)
  (-0.099872 0.017327 0)
  (-0.102241 0.0172937 0)
  (-0.104534 0.0180851 0)
  (-0.106064 0.0194436 0)
  (-0.10651 0.0210728 0)
  (-0.105855 0.0227255 0)
  (-0.104346 0.0242039 0)
  (-0.10229 0.0254208 0)
  (-0.0999233 0.0263764 0)
  (-0.0974031 0.027134 0)
  (-0.0948493 0.0278625 0)
  (-0.0923457 0.028914 0)
  (-0.0898632 0.0309442 0)
  (-0.0870627 0.0350699 0)
  (-0.0831218 0.0428736 0)
  (-0.0769569 0.0558051 0)
  (-0.0677291 0.0736083 0)
  (-0.0548503 0.0910764 0)
  (-0.0402505 0.0948126 0)
  (0.0148637 0.0440845 0)
  (-0.0691766 -0.133124 0)
  (0.177766 0.0972385 0)
  (-0.00447243 -0.00625069 0)
  (-0.0485963 -0.0471 0)
  (-0.111126 -0.0410565 0)
  (-0.157576 -0.0283458 0)
  (-0.17946 -0.0220228 0)
  (-0.183338 -0.0216003 0)
  (-0.18115 -0.023736 0)
  (-0.17642 -0.0272793 0)
  (-0.171437 -0.0299315 0)
  (-0.166426 -0.0309489 0)
  (-0.161216 -0.0307082 0)
  (-0.1557 -0.0299661 0)
  (-0.150027 -0.0295264 0)
  (-0.144619 -0.0300475 0)
  (-0.140007 -0.0318835 0)
  (-0.136428 -0.0348646 0)
  (-0.133745 -0.0385819 0)
  (-0.131594 -0.04255 0)
  (-0.129551 -0.0463758 0)
  (-0.127281 -0.0498556 0)
  (-0.124589 -0.0529616 0)
  (-0.121423 -0.0558032 0)
  (-0.117848 -0.0585563 0)
  (-0.113996 -0.0613298 0)
  (-0.110002 -0.0640672 0)
  (-0.105971 -0.066483 0)
  (-0.101923 -0.0679963 0)
  (-0.0976878 -0.0676964 0)
  (-0.0927176 -0.0644028 0)
  (-0.0858387 -0.0569047 0)
  (-0.0751034 -0.0444665 0)
  (-0.0581623 -0.0276834 0)
  (-0.0336184 -0.00979954 0)
  (0.00305806 -0.000914369 0)
  (0.0436648 -0.0351652 0)
  (0.102154 -0.0959622 0)
  (-0.0164288 -0.165614 0)
  (0.83244 0.0949122 0)
  (-0.333878 -0.485842 0)
  (-0.361767 0.0755107 0)
  (-0.300427 0.0821207 0)
  (-0.27268 0.0958568 0)
  (-0.268968 0.106601 0)
  (-0.263509 0.116245 0)
  (-0.254094 0.124375 0)
  (-0.242856 0.130264 0)
  (-0.232382 0.134994 0)
  (-0.223728 0.138681 0)
  (-0.216888 0.141397 0)
  (-0.211047 0.143497 0)
  (-0.205329 0.145594 0)
  (-0.199102 0.148305 0)
  (-0.192094 0.152093 0)
  (-0.184404 0.157199 0)
  (-0.176387 0.163617 0)
  (-0.168424 0.171099 0)
  (-0.160779 0.179227 0)
  (-0.153552 0.187517 0)
  (-0.146707 0.195558 0)
  (-0.140126 0.203119 0)
  (-0.133673 0.210165 0)
  (-0.127236 0.216803 0)
  (-0.12077 0.223176 0)
  (-0.114293 0.229363 0)
  (-0.107857 0.235323 0)
  (-0.101498 0.240876 0)
  (-0.0951655 0.245688 0)
  (-0.0886091 0.24928 0)
  (-0.0812033 0.251153 0)
  (-0.0718186 0.251089 0)
  (-0.0591022 0.249688 0)
  (-0.0424598 0.248941 0)
  (-0.0227632 0.252482 0)
  (0.00573703 0.259028 0)
  (0.0248134 0.2814 0)
  (0.0858945 0.308559 0)
  (-0.239903 0.401976 0)
)
;

boundaryField
{
  floor
  {
    type noSlip;
  }
  ceiling
  {
    type noSlip;
  }
  sWall
  {
    type noSlip;
  }
  nWall
  {
    type noSlip;
  }
  sideWalls
  {
    type empty;
  }
  glass1
  {
    type noSlip;
  }
  glass2
  {
    type noSlip;
  }
  sun
  {
    type noSlip;
  }
  heatsource1
  {
    type noSlip;
  }
  heatsource2
  {
    type noSlip;
  }
  Table_master
  {
    type noSlip;
  }
  Table_slave
  {
    type noSlip;
  }
  inlet
  {
    type fixedValue;
    value uniform (0.3 0 0);
  }
  outlet
  {
    type zeroGradient;
  }
} 	// ************************************************************************* //

