/*--------------------------------*- C++ -*----------------------------------*\
  =========                 |
  \\      /  F ield         | OpenFOAM: The Open Source CFD Toolbox
   \\    /   O peration     | Website:  https://openfoam.org
    \\  /    A nd           | Version:  6
     \\/     M anipulation  |
\*---------------------------------------------------------------------------*/
FoamFile
{
    version     2.0;
    format      ascii;
    class       volScalarField;
    location    "900";
    object      alphat;
}
// * * * * * * * * * * * * * * * * * * * * * * * * * * * * * * * * * * * * * //

dimensions      [1 -1 -1 0 0 0 0];

internalField   nonuniform List<scalar> 
459
(
0.00118235
0.00128419
0.00130375
0.00136325
0.00141763
0.00146802
0.00151684
0.00156726
0.00160499
0.00162386
0.00161706
0.0015793
0.00150886
0.00141119
0.00130368
0.000512275
0.000613815
0.00068315
0.000675268
0.000649806
0.000618609
0.00058134
0.000544692
0.00051146
0.000481912
0.000455679
0.0004323
0.000411515
0.000392793
0.000375491
0.000358742
0.000341319
0.000332727
0.000307103
0.00162638
0.00371435
0.00347128
0.00401977
0.00454191
0.00507536
0.00556323
0.00591343
0.00624901
0.00653811
0.00673532
0.00678967
0.00662971
0.00610267
0.00464848
0.00131521
0.000732025
0.000545599
0.00106363
0.00142936
0.00168903
0.00182737
0.00183064
0.00151754
0.00133032
0.00119191
0.00108355
0.000996251
0.000924505
0.000861277
0.000802426
0.000746452
0.000697992
0.000652298
0.000789467
0.000421943
0.00199839
0.00504207
0.00417744
0.00528247
0.00575783
0.00609857
0.00636221
0.00657048
0.00681995
0.00709725
0.00736673
0.00757928
0.00767121
0.00758315
0.00713991
0.00560651
0.00127661
0.00105995
0.00143846
0.00176706
0.00206652
0.00228101
0.00225547
0.00082254
0.000735692
0.000664445
0.000605986
0.000557714
0.000517528
0.000483838
0.000455563
0.000432138
0.000462852
0.000526509
0.000889464
0.000497772
0.0023588
0.00653558
0.00408049
0.00552483
0.00591278
0.00599213
0.00603055
0.00612328
0.00631904
0.0065943
0.00691665
0.00723256
0.0074637
0.00757398
0.00749715
0.00701735
0.00519058
0.00151951
0.00179269
0.00220099
0.00260715
0.00294699
0.00318044
0.0030577
0.000925353
0.000856151
0.0008079
0.000771816
0.000740629
0.000709967
0.000680019
0.000647692
0.000608964
0.000572788
0.000572374
0.0010393
0.000556583
0.00272707
0.00850756
0.00441341
0.00521504
0.00578809
0.00573427
0.00563134
0.00567513
0.00587455
0.00615766
0.00651012
0.00687019
0.00712523
0.00722501
0.00715739
0.00690488
0.00632463
0.0052746
0.00485658
0.0047039
0.00466015
0.00465703
0.00465311
0.00455882
0.00401183
0.0037651
0.00363262
0.00352487
0.00339263
0.00318043
0.0028542
0.00243732
0.00196149
0.00147504
0.00108575
0.00105673
0.000747646
0.000695092
0.000836555
0.000937115
0.00311764
0.0106719
0.00618878
0.00490371
0.00546329
0.00564051
0.00547845
0.00553827
0.00573254
0.00600178
0.00634721
0.00670361
0.00696323
0.00703259
0.00688653
0.00658268
0.00623251
0.00594291
0.00582849
0.00577877
0.00571639
0.00563432
0.00553325
0.00539996
0.00519655
0.00501841
0.00485393
0.004682
0.00449073
0.00426971
0.00395632
0.0035293
0.00298751
0.00236325
0.00178382
0.00129028
0.00100882
0.000874964
0.00125834
0.000978099
0.00349117
0.0122728
0.00915069
0.00625634
0.00562941
0.00576628
0.0057671
0.00575669
0.00583432
0.00605564
0.00639867
0.00676397
0.00701494
0.0070381
0.00680772
0.00642309
0.00610075
0.00602721
0.00612819
0.00617337
0.00608334
0.00589391
0.00565111
0.00539715
0.00516373
0.00496954
0.00479395
0.00462061
0.00444662
0.004278
0.00411577
0.00384163
0.0034117
0.0028672
0.00232822
0.00181526
0.00146831
0.00136981
0.00141392
0.00110597
0.00357395
0.0113115
0.00969314
0.00839598
0.00747605
0.0069313
0.00637221
0.00603427
0.00600668
0.00624827
0.00664185
0.00702485
0.00723182
0.00714983
0.00678595
0.00630741
0.00602173
0.00608984
0.00617814
0.00602719
0.00571489
0.00534041
0.00498365
0.00469338
0.00447811
0.00431575
0.00417917
0.00405784
0.00395567
0.00388454
0.00385912
0.00385623
0.00361095
0.00324422
0.002911
0.00274031
0.00286634
0.00335453
0.00417611
0.00173721
0.00348902
0.004186
0.00474592
0.00495168
0.00500038
0.00500731
0.00514426
0.00547778
0.00598835
0.00659133
0.00714551
0.00749437
0.00751375
0.00715325
0.00653181
0.00602922
0.00583243
0.00571968
0.00546563
0.00505733
0.00460734
0.00421152
0.00391093
0.00369959
0.00354961
0.00343185
0.0033267
0.00322462
0.00312078
0.00301104
0.00289165
0.0027658
0.00266022
0.00258256
0.00255818
0.002579
0.00257339
0.00247457
0.00231313
0.00162442
0.0022735
0.00394721
0.00506719
0.00588106
0.00657068
0.00717586
0.00769056
0.00806089
0.00816225
0.00791283
0.00731096
0.00644791
0.00557724
0.00508124
0.00478118
0.0044145
0.00397456
0.00354354
0.0032009
0.00296135
0.0028039
0.00270021
0.00262791
0.00257292
0.0025281
0.00249085
0.00246127
0.00244156
0.00243729
0.00245634
0.00248399
0.0025192
0.00255458
0.00256111
0.00249075
0.00232579
0.00208513
0.00132904
0.00257428
0.00520252
0.00668827
0.00736474
0.00787831
0.00806984
0.00807065
0.00791337
0.00726367
0.00619603
0.00508765
0.00423604
0.00366189
0.00325561
0.00286258
0.00249749
0.00222116
0.00204388
0.00193312
0.0018719
0.00184768
0.00184887
0.00186888
0.00190434
0.00195349
0.00201495
0.00208652
0.00216403
0.00225387
0.00235503
0.00246586
0.00258059
0.00268326
0.00275323
0.0027396
0.00276344
0.00269928
0.00134931
0.00219975
0.00231676
0.00240562
0.00247814
0.00222436
0.00198742
0.00182421
0.00171938
0.00159682
0.0014416
0.00126709
0.00108519
0.000910278
0.000771914
0.00068025
0.000627097
0.000600403
0.000591099
0.000593182
0.000602948
0.000618185
0.000637373
0.000659575
0.000684608
0.000712465
0.000743263
0.000777255
0.000814879
0.000856892
0.000904626
0.000957974
0.0010169
0.00108219
0.00115468
0.00123461
0.00133159
0.00136492
0.00133254
0.00124697
0.00115654
)
;

boundaryField
{
    floor
    {
        type            compressible::alphatWallFunction;
        Prt             0.85;
        value           nonuniform List<scalar> 
29
(
0.000184385
7.11158e-05
8.64389e-05
9.67203e-05
9.55578e-05
9.17919e-05
8.71531e-05
8.15739e-05
7.60444e-05
7.09901e-05
6.64617e-05
6.24119e-05
5.87776e-05
5.55256e-05
5.25783e-05
4.98384e-05
4.71705e-05
4.43778e-05
4.29941e-05
3.88387e-05
3.88381e-05
5.71603e-05
6.88973e-05
7.78445e-05
0.000184383
7.1115e-05
7.61828e-05
0.000150707
0.000213607
)
;
    }
    ceiling
    {
        type            compressible::alphatWallFunction;
        Prt             0.85;
        value           nonuniform List<scalar> 
43
(
0.0003029
0.000317942
0.000329313
0.000338669
0.000306225
0.000275553
0.000254193
0.000240363
0.000224072
0.000203234
0.000179498
0.000154354
0.000129709
0.000109818
9.64069e-05
8.85313e-05
8.4546e-05
8.31523e-05
8.34654e-05
8.4929e-05
8.72062e-05
9.0064e-05
9.33573e-05
9.70544e-05
0.000101149
0.000105654
0.0001106
0.000116044
0.000122088
0.000128912
0.000136489
0.0001448
0.000153945
0.000164025
0.000175054
0.000188329
0.000192864
0.000188459
0.000176754
0.000164287
0.00046522
0.000550022
0.000350665
)
;
    }
    sWall
    {
        type            compressible::alphatWallFunction;
        Prt             0.85;
        value           uniform 0.000301677;
    }
    nWall
    {
        type            compressible::alphatWallFunction;
        Prt             0.85;
        value           nonuniform List<scalar> 6(0.000133205 0.000139 0.000156917 0.000187649 0.000190407 0.000163957);
    }
    sideWalls
    {
        type            empty;
    }
    glass1
    {
        type            compressible::alphatWallFunction;
        Prt             0.85;
        value           nonuniform List<scalar> 9(0.000163538 0.000222891 0.000271357 0.000317475 0.000363895 0.000412459 0.000458358 0.000468592 0.000458448);
    }
    glass2
    {
        type            compressible::alphatWallFunction;
        Prt             0.85;
        value           nonuniform List<scalar> 2(0.00024094 0.000226095);
    }
    sun
    {
        type            compressible::alphatWallFunction;
        Prt             0.85;
        value           nonuniform List<scalar> 
14
(
0.00016774
0.000181723
0.000184398
0.000192504
0.00019988
0.000206684
0.000213251
0.00022001
0.000225052
0.000227568
0.000226661
0.000221619
0.000212177
0.000199003
)
;
    }
    heatsource1
    {
        type            compressible::alphatWallFunction;
        Prt             0.85;
        value           nonuniform List<scalar> 3(9.8596e-05 0.000119164 0.00013353);
    }
    heatsource2
    {
        type            compressible::alphatWallFunction;
        Prt             0.85;
        value           nonuniform List<scalar> 4(0.000186089 0.000104013 0.000104011 0.000180809);
    }
    Table_master
    {
        type            compressible::alphatWallFunction;
        Prt             0.85;
        value           nonuniform List<scalar> 9(0.000117141 0.000104542 9.40722e-05 8.53795e-05 7.81235e-05 7.20235e-05 6.68635e-05 6.2498e-05 5.8855e-05);
    }
    Table_slave
    {
        type            compressible::alphatWallFunction;
        Prt             0.85;
        value           nonuniform List<scalar> 9(0.000131856 0.000121976 0.000115031 0.000109806 0.000105266 0.000100779 9.63749e-05 9.15937e-05 8.58273e-05);
    }
    inlet
    {
        type            fixedValue;
        value           uniform 1.94e-05;
    }
    outlet
    {
        type            zeroGradient;
    }
}


// ************************************************************************* //
