/*--------------------------------*- C++ -*----------------------------------*\
  =========                 |
  \\      /  F ield         | OpenFOAM: The Open Source CFD Toolbox
   \\    /   O peration     | Website:  https://openfoam.org
    \\  /    A nd           | Version:  6
     \\/     M anipulation  |
\*---------------------------------------------------------------------------*/
FoamFile
{
    version     2.0;
    format      ascii;
    class       volScalarField;
    location    "900";
    object      epsilon;
}
// * * * * * * * * * * * * * * * * * * * * * * * * * * * * * * * * * * * * * //

dimensions      [0 2 -3 0 0 0 0];

internalField   nonuniform List<scalar> 
459
(
0.000373888
0.000477791
0.000499903
0.00057149
0.000642632
0.000713586
0.000787135
0.000868227
0.000932388
0.000965555
0.000953366
0.000888021
0.000774344
0.000633466
0.000499453
3.03223e-05
5.21538e-05
7.18927e-05
6.94322e-05
6.18713e-05
5.33819e-05
4.43044e-05
3.64437e-05
3.01728e-05
2.52404e-05
2.13394e-05
1.82209e-05
1.57174e-05
1.36686e-05
1.1941e-05
1.04136e-05
8.96899e-06
8.3089e-06
6.53438e-06
0.00097497
0.00148277
0.000449471
0.000430584
0.000445366
0.000472383
0.000514745
0.00057712
0.000642883
0.000692488
0.00070607
0.000672894
0.0005958
0.000492949
0.000417142
0.000512736
8.8406e-05
3.66369e-05
8.68541e-05
9.1282e-05
8.2496e-05
6.97726e-05
5.78647e-05
5.10796e-05
4.14225e-05
3.30421e-05
2.64049e-05
2.12598e-05
1.72807e-05
1.42158e-05
1.18649e-05
1.01632e-05
9.16719e-06
8.81788e-06
2.61891e-05
1.69463e-05
0.00181222
0.00377105
0.000562413
0.000407561
0.000418436
0.000460378
0.000526285
0.000616321
0.000710905
0.00077989
0.000801997
0.000770699
0.000694183
0.000588527
0.000494309
0.000439769
0.000468912
0.000268533
0.000194953
0.000146502
0.000112309
8.78039e-05
7.26152e-05
0.000125497
8.97936e-05
6.61503e-05
5.01809e-05
3.91183e-05
3.12567e-05
2.55408e-05
2.13195e-05
1.81967e-05
1.40575e-05
1.19245e-05
5.03451e-05
2.78228e-05
0.00298605
0.00797386
0.000908282
0.0004072
0.000400295
0.00045725
0.000552155
0.000688583
0.000818569
0.000898057
0.000914941
0.000870977
0.000781297
0.000657948
0.000543801
0.000465154
0.000443028
0.000790912
0.000450559
0.000268279
0.000177504
0.000126635
9.57578e-05
8.07544e-05
0.000178739
0.00014157
0.000118964
0.00010373
9.16595e-05
8.0742e-05
7.09503e-05
6.13052e-05
5.09523e-05
3.11303e-05
2.06028e-05
8.40032e-05
3.88975e-05
0.00462318
0.0143784
0.00183197
0.000469361
0.000389641
0.000455173
0.00060677
0.000842383
0.00100891
0.00108071
0.00107464
0.00100151
0.0008805
0.000728842
0.000573878
0.000438731
0.000338859
0.000290624
0.000230418
0.000178406
0.000138447
0.000109114
8.81429e-05
7.48231e-05
7.30844e-05
7.02909e-05
6.76306e-05
6.46358e-05
6.06701e-05
5.54878e-05
5.00505e-05
4.47835e-05
3.9919e-05
3.27811e-05
2.56773e-05
5.90877e-05
4.55253e-05
7.58143e-05
0.000132215
0.00018587
0.00691947
0.0214668
0.00420723
0.000867641
0.00051982
0.000545057
0.000855836
0.00119828
0.00134026
0.00135969
0.00130301
0.00118787
0.00102369
0.00082585
0.000622087
0.000442221
0.000309525
0.000229703
0.000182074
0.000147476
0.000119423
9.79516e-05
8.29835e-05
7.43146e-05
7.19184e-05
7.28867e-05
7.45203e-05
7.51325e-05
7.35127e-05
6.86415e-05
6.03902e-05
5.15354e-05
4.33868e-05
3.62232e-05
3.16825e-05
4.36765e-05
4.61593e-05
5.71824e-05
0.000244924
0.000211273
0.00973114
0.0257117
0.0090051
0.0030033
0.001725
0.00145866
0.00179804
0.00192506
0.00188951
0.00177831
0.00162575
0.0014343
0.00120169
0.000939794
0.00067928
0.000454807
0.000295662
0.00020316
0.000154393
0.000124536
0.000102819
8.79247e-05
7.95605e-05
7.71382e-05
7.97941e-05
8.54467e-05
9.18719e-05
9.77354e-05
0.0001018
0.000102167
9.52741e-05
8.34559e-05
7.17714e-05
6.19867e-05
5.79007e-05
6.50993e-05
8.31365e-05
0.00013433
0.000318063
0.000305394
0.0104631
0.0292493
0.0156427
0.00970614
0.0064516
0.00483649
0.00384566
0.00316742
0.00269273
0.00233586
0.00202895
0.0017221
0.00139014
0.00104069
0.000710873
0.000436174
0.000257167
0.000162655
0.000120473
9.93496e-05
8.64449e-05
7.98835e-05
7.87982e-05
8.23273e-05
8.96104e-05
9.96301e-05
0.000111617
0.000125396
0.000141032
0.000158313
0.000176037
0.000185154
0.000192733
0.000211554
0.000251694
0.000378057
0.000704932
0.0013571
0.00405225
0.00118549
0.00976497
0.0168156
0.0135415
0.0101927
0.00768505
0.00595187
0.00475462
0.00392733
0.00333012
0.00285468
0.00242058
0.00197803
0.00150999
0.00104149
0.000636855
0.000312113
0.000170303
0.000113425
8.88823e-05
7.71916e-05
7.21043e-05
7.18623e-05
7.54987e-05
8.23654e-05
9.20916e-05
0.000104561
0.000120042
0.000139333
0.0001638
0.000195439
0.00023697
0.000292236
0.000367699
0.000483123
0.000654456
0.000888518
0.00115707
0.00139065
0.00156697
0.000970686
0.00521276
0.00695503
0.00656469
0.00587685
0.00513879
0.00441378
0.0037456
0.00310979
0.00248187
0.00185434
0.00121823
0.000618402
0.000299838
0.000148796
9.04214e-05
6.77747e-05
5.84407e-05
5.48902e-05
5.49099e-05
5.75429e-05
6.22689e-05
6.88593e-05
7.73191e-05
8.78748e-05
0.000101024
0.000117623
0.000139012
0.000167238
0.000205524
0.000259082
0.000333301
0.000435712
0.000569893
0.000722982
0.000852926
0.00090303
0.000842232
0.000531495
0.00364958
0.00683892
0.00647135
0.00518069
0.00432339
0.00366533
0.00299964
0.00218378
0.00141909
0.000819905
0.000422851
0.000201224
0.000104504
6.23328e-05
4.57779e-05
3.9842e-05
3.85428e-05
3.97285e-05
4.24711e-05
4.64962e-05
5.1738e-05
5.82914e-05
6.63842e-05
7.63902e-05
8.88795e-05
0.000104715
0.000125203
0.000152319
0.000188789
0.000238112
0.000305268
0.000395366
0.000509206
0.000638007
0.000735657
0.000835861
0.000750139
0.000556122
0.00231896
0.00270725
0.0030307
0.0033683
0.00245509
0.00175892
0.00136407
0.00114426
0.000917891
0.000676102
0.000459405
0.000288724
0.000170455
0.000103958
7.11542e-05
5.57483e-05
4.89313e-05
4.66944e-05
4.71925e-05
4.95645e-05
5.34202e-05
5.85529e-05
6.48894e-05
7.2564e-05
8.17896e-05
9.28642e-05
0.000106199
0.000122383
0.000142309
0.000167444
0.000198854
0.000237857
0.000286687
0.000348263
0.000425731
0.000534208
0.000575379
0.00053543
0.000438772
0.000350197
)
;

boundaryField
{
    floor
    {
        Cmu             0.09;
        kappa           0.41;
        E               9.8;
        type            epsilonWallFunction;
        value           nonuniform List<scalar> 
29
(
0.000499453
3.03223e-05
5.21538e-05
7.18927e-05
6.94322e-05
6.18713e-05
5.33819e-05
4.43044e-05
3.64437e-05
3.01728e-05
2.52404e-05
2.13394e-05
1.82209e-05
1.57174e-05
1.36686e-05
1.1941e-05
1.04136e-05
8.96899e-06
8.3089e-06
6.53438e-06
6.53438e-06
1.69463e-05
2.78228e-05
3.88975e-05
0.000499453
3.03223e-05
3.66369e-05
0.000268533
0.000790912
)
;
    }
    ceiling
    {
        Cmu             0.09;
        kappa           0.41;
        E               9.8;
        type            epsilonWallFunction;
        value           nonuniform List<scalar> 
43
(
0.00231896
0.00270725
0.0030307
0.0033683
0.00245509
0.00175892
0.00136407
0.00114426
0.000917891
0.000676102
0.000459405
0.000288724
0.000170455
0.000103958
7.11542e-05
5.57483e-05
4.89313e-05
4.66944e-05
4.71925e-05
4.95645e-05
5.34202e-05
5.85529e-05
6.48894e-05
7.2564e-05
8.17896e-05
9.28642e-05
0.000106199
0.000122383
0.000142309
0.000167444
0.000198854
0.000237857
0.000286687
0.000348263
0.000425731
0.000534208
0.000575379
0.00053543
0.000438772
0.000350197
0.00976497
0.0168156
0.00364958
)
;
    }
    sWall
    {
        Cmu             0.09;
        kappa           0.41;
        E               9.8;
        type            epsilonWallFunction;
        value           uniform 0.00231896;
    }
    nWall
    {
        Cmu             0.09;
        kappa           0.41;
        E               9.8;
        type            epsilonWallFunction;
        value           nonuniform List<scalar> 6(0.00018587 0.000211273 0.000305394 0.000531495 0.000556122 0.000350197);
    }
    sideWalls
    {
        type            empty;
    }
    glass1
    {
        Cmu             0.09;
        kappa           0.41;
        E               9.8;
        type            epsilonWallFunction;
        value           nonuniform List<scalar> 9(0.000373888 0.00097497 0.00181222 0.00298605 0.00462318 0.00691947 0.00973114 0.0104631 0.00976497);
    }
    glass2
    {
        Cmu             0.09;
        kappa           0.41;
        E               9.8;
        type            epsilonWallFunction;
        value           nonuniform List<scalar> 2(0.00118549 0.000970686);
    }
    sun
    {
        Cmu             0.09;
        kappa           0.41;
        E               9.8;
        type            epsilonWallFunction;
        value           nonuniform List<scalar> 
14
(
0.000373888
0.000477791
0.000499903
0.00057149
0.000642632
0.000713586
0.000787135
0.000868227
0.000932388
0.000965555
0.000953366
0.000888021
0.000774344
0.000633466
)
;
    }
    heatsource1
    {
        Cmu             0.09;
        kappa           0.41;
        E               9.8;
        type            epsilonWallFunction;
        value           nonuniform List<scalar> 3(7.58143e-05 0.000132215 0.00018587);
    }
    heatsource2
    {
        Cmu             0.09;
        kappa           0.41;
        E               9.8;
        type            epsilonWallFunction;
        value           nonuniform List<scalar> 4(0.000512736 8.8406e-05 8.8406e-05 0.000468912);
    }
    Table_master
    {
        Cmu             0.09;
        kappa           0.41;
        E               9.8;
        type            epsilonWallFunction;
        value           nonuniform List<scalar> 9(0.000125497 8.97936e-05 6.61503e-05 5.01809e-05 3.91183e-05 3.12567e-05 2.55408e-05 2.13195e-05 1.81967e-05);
    }
    Table_slave
    {
        Cmu             0.09;
        kappa           0.41;
        E               9.8;
        type            epsilonWallFunction;
        value           nonuniform List<scalar> 9(0.000178739 0.00014157 0.000118964 0.00010373 9.16595e-05 8.0742e-05 7.09503e-05 6.13052e-05 5.09523e-05);
    }
    inlet
    {
        type            turbulentMixingLengthDissipationRateInlet;
        mixingLength    0.01;
        phi             phi;
        k               k;
        value           uniform 0.000101881;
    }
    outlet
    {
        type            zeroGradient;
    }
}


// ************************************************************************* //
