/*--------------------------------*- C++ -*----------------------------------*\
  =========                 |
  \\      /  F ield         | OpenFOAM: The Open Source CFD Toolbox
   \\    /   O peration     | Website:  https://openfoam.org
    \\  /    A nd           | Version:  6
     \\/     M anipulation  |
\*---------------------------------------------------------------------------*/
FoamFile
{
    version     2.0;
    format      ascii;
    class       volScalarField;
    location    "1500";
    object      alphat;
}
// * * * * * * * * * * * * * * * * * * * * * * * * * * * * * * * * * * * * * //

dimensions      [1 -1 -1 0 0 0 0];

internalField   nonuniform List<scalar> 
459
(
0.00123632
0.0013491
0.00137472
0.00144036
0.00150122
0.00155865
0.00161576
0.00167025
0.00170852
0.00172326
0.00170748
0.00165621
0.00156709
0.0014426
0.0012964
0.000539567
0.00064423
0.000728193
0.00073561
0.000714941
0.000684889
0.000642862
0.000599944
0.000560883
0.000526291
0.000495745
0.000468684
0.000444642
0.000423147
0.000403416
0.000384473
0.000364971
0.000352805
0.00032294
0.00168274
0.0039955
0.00378271
0.00438825
0.00498154
0.00557635
0.00609286
0.00649544
0.00686948
0.00718055
0.00738603
0.00744213
0.00729616
0.00682349
0.00549972
0.00132006
0.000821409
0.000562513
0.0011865
0.00166459
0.00202746
0.00224291
0.00225494
0.00178086
0.00152973
0.00135186
0.00121616
0.0011089
0.00102199
0.000948321
0.000879651
0.000812972
0.000753667
0.000701388
0.000832489
0.00042932
0.00205368
0.00541935
0.00461385
0.00574808
0.00626852
0.00664668
0.0069421
0.00720294
0.00750605
0.00783494
0.00815083
0.00839485
0.00851368
0.00841831
0.00785151
0.00602298
0.00136094
0.00105699
0.00154258
0.00201404
0.00247273
0.00281476
0.00278212
0.000913972
0.000808351
0.000722566
0.000652936
0.000596023
0.00054908
0.000510076
0.000477708
0.000451411
0.000487576
0.000562749
0.000940913
0.000501413
0.00240988
0.00693213
0.0045545
0.00600295
0.00639568
0.00648935
0.00656789
0.00671548
0.00697001
0.00731289
0.00770712
0.00806902
0.00834081
0.00844541
0.00832605
0.00767458
0.00514095
0.00159228
0.00190955
0.00243991
0.00302354
0.00354581
0.00390778
0.00372436
0.00103464
0.000946703
0.000884111
0.000836525
0.000795836
0.000757698
0.00072093
0.000682095
0.000636805
0.000597489
0.000603654
0.00109332
0.000558514
0.0027729
0.0089058
0.00492294
0.00572363
0.00626429
0.00620701
0.00615245
0.00626392
0.0065027
0.00685367
0.00728951
0.00768776
0.00796613
0.00807322
0.00801084
0.0077512
0.00709384
0.00601243
0.00564725
0.00559327
0.0056546
0.00572616
0.00573929
0.00556237
0.00472993
0.00432665
0.00409294
0.00391117
0.00371787
0.00344118
0.00305778
0.00258678
0.00206136
0.0015387
0.00113581
0.00111966
0.000760151
0.000689757
0.000831537
0.000933898
0.00315839
0.01107
0.00677035
0.00553259
0.00605504
0.00622419
0.00605612
0.00616092
0.00635958
0.00668529
0.00710974
0.00752491
0.00780157
0.00786268
0.00772653
0.00749328
0.00727444
0.00713867
0.00715694
0.00719755
0.00717498
0.0070772
0.00690733
0.00665151
0.00626368
0.00591472
0.00560556
0.00530999
0.00501129
0.00469278
0.00428921
0.00378124
0.00316805
0.00248722
0.0018756
0.00138017
0.00105634
0.000901449
0.00128166
0.000976826
0.00351994
0.0126287
0.00970255
0.00702296
0.00656063
0.00659516
0.0064297
0.00633783
0.00643541
0.00674611
0.00719374
0.00762949
0.00789268
0.00789531
0.00767924
0.00742499
0.00736949
0.00758395
0.0078477
0.00793899
0.00782449
0.0075602
0.0071971
0.00677221
0.00632393
0.00591485
0.005549
0.00521455
0.00490881
0.00463711
0.00439863
0.00407329
0.00360448
0.0030242
0.00245734
0.00193304
0.00156206
0.00145474
0.00148915
0.00112049
0.00359584
0.0114425
0.00993453
0.00880853
0.00812192
0.00735317
0.00671186
0.00644597
0.00657225
0.00699177
0.00753188
0.00798927
0.00818726
0.00806803
0.00774353
0.0074983
0.00760627
0.00795835
0.00810967
0.00795185
0.00757047
0.00705236
0.00647501
0.00591283
0.00542372
0.00502566
0.0047008
0.00443415
0.00422412
0.00407666
0.00399946
0.00396677
0.00374329
0.00337816
0.00305145
0.00288951
0.00302279
0.0034984
0.00427187
0.00173723
0.00350563
0.00418984
0.00473642
0.00491056
0.00492762
0.00504726
0.00538536
0.00597224
0.00675493
0.0075791
0.00825047
0.00860074
0.00852041
0.008089
0.00763127
0.00755231
0.00763544
0.00764016
0.00740589
0.00693405
0.00631316
0.00564463
0.0050245
0.00451406
0.004124
0.0038291
0.00359796
0.00340927
0.00324946
0.00310706
0.00297172
0.00284212
0.00273833
0.00266144
0.00263238
0.00264204
0.00262058
0.0025064
0.0023364
0.00162403
0.00216536
0.00383542
0.0052946
0.00651365
0.00750162
0.00838679
0.0090732
0.00941465
0.00936303
0.00893877
0.00820674
0.00739259
0.00690224
0.00672637
0.00653008
0.00616353
0.00563373
0.00501952
0.00440342
0.00386229
0.00344311
0.00314111
0.00292873
0.00277786
0.00266908
0.00259121
0.00253803
0.00250665
0.00249962
0.00251874
0.00254842
0.00258481
0.00261852
0.00262021
0.0025434
0.00237466
0.0021299
0.00133264
0.00251492
0.00537745
0.00733744
0.0082518
0.00886413
0.00928536
0.0092355
0.00864422
0.0077493
0.00679608
0.00600041
0.00542829
0.00504682
0.00470274
0.0042873
0.00381953
0.00335788
0.00295807
0.00265019
0.0024332
0.00228396
0.00218434
0.00212678
0.00210277
0.00210578
0.00213146
0.00217578
0.00223353
0.00231126
0.00240552
0.00251321
0.00262664
0.00272764
0.00279496
0.00277284
0.00278908
0.00275529
0.00135515
0.00230246
0.00230973
0.00235303
0.00242419
0.0021901
0.00200808
0.00192192
0.00183463
0.00170857
0.00155296
0.0013762
0.0012014
0.00104728
0.000925504
0.000837666
0.000775819
0.000731411
0.000699587
0.000678431
0.000667089
0.000664515
0.000669396
0.000680577
0.000697485
0.000718953
0.000744679
0.000774784
0.000809618
0.00084987
0.000896832
0.000949709
0.00100872
0.00107457
0.00114794
0.00122858
0.00132584
0.00135615
0.00132132
0.00123766
0.00114833
)
;

boundaryField
{
    floor
    {
        type            compressible::alphatWallFunction;
        Prt             0.85;
        value           nonuniform List<scalar> 
29
(
0.000183391
7.52718e-05
9.09689e-05
0.000103335
0.000104419
0.000101396
9.69805e-05
9.07662e-05
8.43687e-05
7.8497e-05
7.32549e-05
6.859e-05
6.44272e-05
6.07032e-05
5.7352e-05
5.42568e-05
5.12666e-05
4.81685e-05
4.62249e-05
4.14163e-05
4.14157e-05
5.8317e-05
6.94587e-05
7.81401e-05
0.000183389
7.52709e-05
7.87426e-05
0.000150295
0.000223356
)
;
    }
    ceiling
    {
        type            compressible::alphatWallFunction;
        Prt             0.85;
        value           nonuniform List<scalar> 
43
(
0.000316226
0.000317045
0.000322588
0.000331799
0.000301821
0.000278257
0.000267026
0.000255587
0.000238951
0.000218224
0.000194392
0.00017048
0.000149065
0.000131886
0.00011933
0.000110395
0.000103928
9.92638e-05
9.61492e-05
9.44746e-05
9.40941e-05
9.48158e-05
9.64661e-05
9.89556e-05
0.000102106
0.000105866
0.000110247
0.00011529
0.000121086
0.000127806
0.000135324
0.000143656
0.000152888
0.000163096
0.00017423
0.00018755
0.000191678
0.000186935
0.00017548
0.000163154
0.000467261
0.000550485
0.000343109
)
;
    }
    sWall
    {
        type            compressible::alphatWallFunction;
        Prt             0.85;
        value           uniform 0.000315054;
    }
    nWall
    {
        type            compressible::alphatWallFunction;
        Prt             0.85;
        value           nonuniform List<scalar> 6(0.000132755 0.000138828 0.000158943 0.000188148 0.00019121 0.000162827);
    }
    sideWalls
    {
        type            empty;
    }
    glass1
    {
        type            compressible::alphatWallFunction;
        Prt             0.85;
        value           nonuniform List<scalar> 9(0.000170855 0.000230286 0.000278466 0.000323936 0.00036961 0.000417474 0.000461862 0.000471251 0.000460471);
    }
    glass2
    {
        type            compressible::alphatWallFunction;
        Prt             0.85;
        value           nonuniform List<scalar> 2(0.000240984 0.000226083);
    }
    sun
    {
        type            compressible::alphatWallFunction;
        Prt             0.85;
        value           nonuniform List<scalar> 
14
(
0.000175177
0.000190584
0.000194065
0.000202955
0.000211156
0.000218862
0.000226493
0.000233746
0.000238825
0.000240777
0.000238685
0.000231878
0.000219988
0.000203254
)
;
    }
    heatsource1
    {
        type            compressible::alphatWallFunction;
        Prt             0.85;
        value           nonuniform List<scalar> 3(9.78107e-05 0.000118442 0.000133073);
    }
    heatsource2
    {
        type            compressible::alphatWallFunction;
        Prt             0.85;
        value           nonuniform List<scalar> 4(0.000186753 0.000116983 0.000116981 0.000192317);
    }
    Table_master
    {
        type            compressible::alphatWallFunction;
        Prt             0.85;
        value           nonuniform List<scalar> 9(0.000130237 0.000115096 0.000102625 9.23701e-05 8.38892e-05 7.68188e-05 7.08868e-05 6.59207e-05 6.18548e-05);
    }
    Table_slave
    {
        type            compressible::alphatWallFunction;
        Prt             0.85;
        value           nonuniform List<scalar> 9(0.000147289 0.000134889 0.000125981 0.000119159 0.00011329 0.000107755 0.000102387 9.6682e-05 8.99781e-05);
    }
    inlet
    {
        type            fixedValue;
        value           uniform 1.94e-05;
    }
    outlet
    {
        type            zeroGradient;
    }
}


// ************************************************************************* //
