// -*- C++ -*-
// File generated by PyFoam - sorry for the ugliness

FoamFile
{
 version 2.0;
 format ascii;
 class volVectorField;
 location "1100";
 object U;
}

dimensions [ 0 1 -1 0 0 0 0 ];

internalField nonuniform List<vector> 459
(
  (0.0345541 0.0857747 0)
  (-0.166818 0.025401 0)
  (-0.191421 0.0178963 0)
  (-0.222479 0.0122843 0)
  (-0.245115 0.0060894 0)
  (-0.258272 -0.000498655 0)
  (-0.260309 -0.0075552 0)
  (-0.249855 -0.0151131 0)
  (-0.227435 -0.0225513 0)
  (-0.194785 -0.0285671 0)
  (-0.155487 -0.032062 0)
  (-0.11384 -0.0324837 0)
  (-0.0740352 -0.0300335 0)
  (-0.0412994 -0.0259436 0)
  (-0.0295006 -0.0220993 0)
  (-0.00576778 0.00874524 0)
  (-0.0285245 -0.0167969 0)
  (-0.00666403 -0.0265184 0)
  (0.0166188 -0.0203354 0)
  (0.0321663 -0.0139319 0)
  (0.044795 -0.00903073 0)
  (0.0527205 -0.00526658 0)
  (0.0568266 -0.0032917 0)
  (0.058674 -0.00249706 0)
  (0.0595879 -0.00215251 0)
  (0.060153 -0.00193815 0)
  (0.0604648 -0.00176462 0)
  (0.0604656 -0.00155348 0)
  (0.05997 -0.00113939 0)
  (0.0584533 -0.000156017 0)
  (0.0547875 0.00190505 0)
  (0.0477378 0.00408618 0)
  (0.0414214 0.00580526 0)
  (-0.0135711 0.0202673 0)
  (0.209332 0.175746 0)
  (-0.156187 0.0671459 0)
  (-0.154412 0.0530115 0)
  (-0.186617 0.0413763 0)
  (-0.209078 0.0281767 0)
  (-0.222508 0.0133034 0)
  (-0.225236 -0.00358877 0)
  (-0.215694 -0.0220123 0)
  (-0.194998 -0.0394852 0)
  (-0.165296 -0.0529355 0)
  (-0.130332 -0.0602002 0)
  (-0.0941602 -0.0605371 0)
  (-0.0603694 -0.0545435 0)
  (-0.0325273 -0.0438371 0)
  (-0.0146999 -0.0307463 0)
  (-0.000596281 -0.0125218 0)
  (-0.00131877 0.0156288 0)
  (0.0617555 0.035928 0)
  (0.0255147 -0.018025 0)
  (0.0337785 -0.0311616 0)
  (0.0448755 -0.027672 0)
  (0.0537725 -0.0198826 0)
  (0.0602693 -0.0124172 0)
  (0.0630793 -0.00526947 0)
  (0.0636128 -0.0011742 0)
  (0.0635596 0.000537063 0)
  (0.0636654 0.00129601 0)
  (0.0638665 0.00176256 0)
  (0.0640133 0.00214873 0)
  (0.064063 0.00261799 0)
  (0.0639723 0.00348485 0)
  (0.0632354 0.00561378 0)
  (0.0595428 0.0115372 0)
  (0.0501694 0.0164773 0)
  (0.0457652 0.0197333 0)
  (-0.0496547 0.0440406 0)
  (0.369717 0.263043 0)
  (-0.173343 0.107047 0)
  (-0.115967 0.0858368 0)
  (-0.147411 0.0650261 0)
  (-0.167427 0.0432696 0)
  (-0.179983 0.0191028 0)
  (-0.18246 -0.00839042 0)
  (-0.172282 -0.0379281 0)
  (-0.151776 -0.0650903 0)
  (-0.124029 -0.0848114 0)
  (-0.0930128 -0.0943023 0)
  (-0.0623116 -0.0932441 0)
  (-0.03427 -0.0830514 0)
  (-0.0110771 -0.0658706 0)
  (0.00624942 -0.0429413 0)
  (0.0178087 -0.0162703 0)
  (0.0224706 0.0210771 0)
  (0.110227 -0.0282034 0)
  (0.0743226 -0.0381921 0)
  (0.0689336 -0.038328 0)
  (0.0705236 -0.032682 0)
  (0.0719264 -0.0246663 0)
  (0.0732327 -0.0176811 0)
  (0.0719827 -0.0141541 0)
  (0.0674262 -0.0100142 0)
  (0.0641231 -0.00775208 0)
  (0.0626367 -0.00645531 0)
  (0.0620089 -0.00562169 0)
  (0.0616972 -0.00504313 0)
  (0.0616927 -0.00452898 0)
  (0.062432 -0.00371655 0)
  (0.065026 -0.000663697 0)
  (0.0630284 0.0161273 0)
  (0.049999 0.0278222 0)
  (0.0522182 0.0357047 0)
  (-0.0813278 0.0688612 0)
  (0.51444 0.333287 0)
  (-0.208383 0.142476 0)
  (-0.0751127 0.1138 0)
  (-0.105313 0.085187 0)
  (-0.119848 0.0573294 0)
  (-0.129227 0.0256963 0)
  (-0.128936 -0.0121789 0)
  (-0.115715 -0.0534491 0)
  (-0.0946504 -0.0896587 0)
  (-0.0697569 -0.114042 0)
  (-0.0444262 -0.124235 0)
  (-0.0212897 -0.121119 0)
  (-0.000672646 -0.10698 0)
  (0.0164905 -0.0848196 0)
  (0.0308703 -0.0584089 0)
  (0.0461641 -0.0294236 0)
  (0.0679912 0.00210471 0)
  (0.0987489 0.0143796 0)
  (0.10431 -0.0239616 0)
  (0.0907365 -0.0339623 0)
  (0.0819136 -0.0327854 0)
  (0.0770552 -0.0284394 0)
  (0.0734711 -0.0222931 0)
  (0.0711309 -0.0145752 0)
  (0.072493 -0.00884847 0)
  (0.0774425 -0.00668426 0)
  (0.0816776 -0.00548606 0)
  (0.0845434 -0.00462854 0)
  (0.086346 -0.00365173 0)
  (0.0866393 -0.00226682 0)
  (0.0842765 -0.00021488 0)
  (0.0780008 0.00280703 0)
  (0.0653147 0.00732228 0)
  (0.0531086 0.0266402 0)
  (0.0409951 0.0430033 0)
  (0.0563433 0.0559918 0)
  (-0.114208 0.0912472 0)
  (0.639681 0.387725 0)
  (-0.251137 0.171464 0)
  (-0.0343979 0.129967 0)
  (-0.0612501 0.0967595 0)
  (-0.067703 0.0655494 0)
  (-0.0711433 0.0290949 0)
  (-0.0625496 -0.0180684 0)
  (-0.0438838 -0.0703695 0)
  (-0.0234657 -0.112219 0)
  (-0.00420238 -0.137485 0)
  (0.0124472 -0.145375 0)
  (0.0251169 -0.138637 0)
  (0.0351003 -0.121662 0)
  (0.0431134 -0.0978936 0)
  (0.0504389 -0.070825 0)
  (0.0590679 -0.0441732 0)
  (0.0717749 -0.0241777 0)
  (0.0825546 -0.02246 0)
  (0.0838508 -0.0298246 0)
  (0.0775624 -0.0302974 0)
  (0.0694826 -0.0270824 0)
  (0.062919 -0.02301 0)
  (0.0580327 -0.018338 0)
  (0.0551522 -0.0129588 0)
  (0.0551028 -0.00733242 0)
  (0.0575542 -0.00462482 0)
  (0.06037 -0.00365304 0)
  (0.0630606 -0.00288441 0)
  (0.0655229 -0.00130624 0)
  (0.0674147 0.00169371 0)
  (0.0674934 0.00622222 0)
  (0.0651482 0.0124356 0)
  (0.0597861 0.020971 0)
  (0.0529238 0.0361975 0)
  (0.0428375 0.0542957 0)
  (0.0647515 0.0745295 0)
  (-0.0208688 0.10358 0)
  (0.0464376 0.0327065 0)
  (-0.0620527 -0.0345268 0)
  (-0.272584 -0.0571849 0)
  (0.730706 0.433159 0)
  (-0.292789 0.19105 0)
  (-0.0032124 0.126583 0)
  (-0.0163276 0.0980824 0)
  (-0.0122367 0.0680154 0)
  (-0.00740154 0.0268465 0)
  (0.019677 -0.0341907 0)
  (0.0416588 -0.0905045 0)
  (0.0574686 -0.129802 0)
  (0.0672806 -0.150444 0)
  (0.0716615 -0.154203 0)
  (0.0719145 -0.14447 0)
  (0.0695416 -0.125239 0)
  (0.0659888 -0.100457 0)
  (0.0627455 -0.0738147 0)
  (0.0612386 -0.0489423 0)
  (0.0623786 -0.0301284 0)
  (0.0631625 -0.0222539 0)
  (0.0599073 -0.0214495 0)
  (0.052952 -0.0211922 0)
  (0.0451287 -0.0194741 0)
  (0.0386603 -0.0170338 0)
  (0.0340579 -0.0142253 0)
  (0.0315811 -0.0110911 0)
  (0.0314439 -0.00823431 0)
  (0.0332627 -0.00715385 0)
  (0.0359992 -0.00703719 0)
  (0.0392081 -0.00666097 0)
  (0.0427067 -0.0050304 0)
  (0.0462151 -0.00126252 0)
  (0.0494391 0.0050006 0)
  (0.0511188 0.0133938 0)
  (0.051524 0.0240645 0)
  (0.052022 0.0385478 0)
  (0.0508523 0.0563879 0)
  (0.0731814 0.0792639 0)
  (0.0529383 0.0972315 0)
  (0.0933836 0.0681573 0)
  (0.11623 0.0447659 0)
  (-0.129034 -0.00707651 0)
  (0.782271 0.474459 0)
  (-0.313768 0.176619 0)
  (0.0233839 0.0773396 0)
  (0.0418571 0.0749535 0)
  (0.0565163 0.0544955 0)
  (0.0802523 0.00555656 0)
  (0.115292 -0.0586365 0)
  (0.135315 -0.108347 0)
  (0.142436 -0.139087 0)
  (0.139373 -0.151995 0)
  (0.128782 -0.149876 0)
  (0.113526 -0.136368 0)
  (0.0961526 -0.115247 0)
  (0.0788658 -0.0904263 0)
  (0.0633802 -0.065195 0)
  (0.0509621 -0.0426174 0)
  (0.0421084 -0.0258577 0)
  (0.0353928 -0.017133 0)
  (0.0287 -0.0144036 0)
  (0.0215549 -0.0137578 0)
  (0.0148892 -0.0130192 0)
  (0.00961923 -0.0120675 0)
  (0.00602073 -0.011032 0)
  (0.00422655 -0.00996313 0)
  (0.00427623 -0.00925484 0)
  (0.00578583 -0.00948278 0)
  (0.00811947 -0.0101284 0)
  (0.0110121 -0.0103421 0)
  (0.0145016 -0.00926285 0)
  (0.0187117 -0.00588774 0)
  (0.0245393 0.000810838 0)
  (0.0305508 0.0100452 0)
  (0.0361669 0.0208824 0)
  (0.04325 0.0338202 0)
  (0.050989 0.0485814 0)
  (0.0729764 0.0671059 0)
  (0.0861969 0.0748968 0)
  (0.118397 0.0523846 0)
  (0.158081 0.0442491 0)
  (-0.0354635 0.0941827 0)
  (0.886769 0.47737 0)
  (-0.0715388 0.156325 0)
  (0.105526 0.0044264 0)
  (0.16799 -0.0142031 0)
  (0.179995 -0.0310241 0)
  (0.214217 -0.0653975 0)
  (0.236841 -0.0988303 0)
  (0.240441 -0.123227 0)
  (0.227497 -0.135913 0)
  (0.202892 -0.136928 0)
  (0.171387 -0.127908 0)
  (0.137206 -0.111452 0)
  (0.103368 -0.0901017 0)
  (0.0723265 -0.0671503 0)
  (0.0456247 -0.0451495 0)
  (0.0245861 -0.0265716 0)
  (0.00976685 -0.0140682 0)
  (-2.55049e-05 -0.00829233 0)
  (-0.00693625 -0.00709162 0)
  (-0.0125927 -0.00746262 0)
  (-0.0173484 -0.00797822 0)
  (-0.0210638 -0.00843136 0)
  (-0.0237025 -0.00886531 0)
  (-0.0252465 -0.0093594 0)
  (-0.0257634 -0.0101029 0)
  (-0.0255633 -0.011221 0)
  (-0.0250178 -0.0124413 0)
  (-0.0242481 -0.0133267 0)
  (-0.0231059 -0.0133898 0)
  (-0.0212113 -0.0120521 0)
  (-0.0176201 -0.00856612 0)
  (-0.00895398 -0.0021622 0)
  (-0.00011553 0.00631995 0)
  (0.0104484 0.0147814 0)
  (0.0221404 0.0220069 0)
  (0.0419357 0.0294146 0)
  (0.0606018 0.0224884 0)
  (0.080243 -0.00503896 0)
  (0.139428 0.0403066 0)
  (-0.413432 0.206827 0)
  (1.03153 0.430078 0)
  (0.496786 0.285239 0)
  (0.502819 0.192236 0)
  (0.510271 0.121769 0)
  (0.483895 0.0708406 0)
  (0.442755 0.0182803 0)
  (0.39394 -0.0302086 0)
  (0.341474 -0.065375 0)
  (0.285151 -0.0842074 0)
  (0.227296 -0.088383 0)
  (0.171066 -0.0817864 0)
  (0.119344 -0.0685046 0)
  (0.0730484 -0.0510818 0)
  (0.0340795 -0.0330443 0)
  (0.00223766 -0.0167313 0)
  (-0.0195068 -0.0059877 0)
  (-0.0312583 -0.00180418 0)
  (-0.037846 -0.00109695 0)
  (-0.0421607 -0.00196973 0)
  (-0.0458025 -0.00327966 0)
  (-0.0490747 -0.00457651 0)
  (-0.0520113 -0.00579223 0)
  (-0.0546239 -0.00696036 0)
  (-0.05695 -0.00812834 0)
  (-0.0591164 -0.00935288 0)
  (-0.0613914 -0.0106058 0)
  (-0.0641006 -0.0116717 0)
  (-0.06754 -0.0121824 0)
  (-0.0720363 -0.0116168 0)
  (-0.0780536 -0.00928121 0)
  (-0.0862031 -0.00435191 0)
  (-0.0965866 0.00380508 0)
  (-0.107123 0.0146952 0)
  (-0.122354 0.0284898 0)
  (-0.146377 0.0452485 0)
  (-0.181732 0.063784 0)
  (-0.231729 0.0800441 0)
  (-0.288735 0.0914362 0)
  (-0.35759 0.0979201 0)
  (-0.620408 0.100101 0)
  (-0.150762 0.0844242 0)
  (0.136214 0.0655758 0)
  (0.220611 0.0110978 0)
  (0.204318 -0.0251041 0)
  (0.189159 -0.0410033 0)
  (0.167367 -0.0471987 0)
  (0.135545 -0.0467074 0)
  (0.0973627 -0.0411019 0)
  (0.0574483 -0.0319206 0)
  (0.0197848 -0.0202847 0)
  (-0.0184508 -0.00597996 0)
  (-0.0434335 0.00239789 0)
  (-0.0590058 0.006297 0)
  (-0.0669296 0.00705891 0)
  (-0.0706446 0.00632989 0)
  (-0.0730762 0.00532273 0)
  (-0.0750909 0.00428092 0)
  (-0.0771403 0.0032835 0)
  (-0.079515 0.00226913 0)
  (-0.0821926 0.00118704 0)
  (-0.0851323 7.41331e-05 0)
  (-0.0883639 -0.00101255 0)
  (-0.0919569 -0.001993 0)
  (-0.0960038 -0.00271457 0)
  (-0.100583 -0.00293855 0)
  (-0.105698 -0.00235598 0)
  (-0.111255 -0.000613392 0)
  (-0.117038 0.00264991 0)
  (-0.122452 0.00785926 0)
  (-0.126666 0.0157494 0)
  (-0.130155 0.0274568 0)
  (-0.133166 0.0433765 0)
  (-0.136511 0.062629 0)
  (-0.140709 0.0815527 0)
  (-0.14259 0.090218 0)
  (-0.125496 0.0677073 0)
  (-0.0828488 -0.0255833 0)
  (-0.278943 -0.203445 0)
  (-0.0267274 0.232258 0)
  (0.064329 0.102297 0)
  (0.0399473 0.0216835 0)
  (0.0278509 -0.00252686 0)
  (0.0204316 -0.00901388 0)
  (0.00350061 -0.0117998 0)
  (-0.0210056 -0.00983622 0)
  (-0.0471939 -0.00517636 0)
  (-0.0700185 -0.000522364 0)
  (-0.086335 0.00277671 0)
  (-0.0949593 0.00346407 0)
  (-0.0980711 0.00137904 0)
  (-0.0988729 -0.00155321 0)
  (-0.0985533 -0.00489973 0)
  (-0.098265 -0.0083512 0)
  (-0.0984926 -0.011572 0)
  (-0.0992554 -0.0144238 0)
  (-0.100461 -0.0167138 0)
  (-0.101971 -0.0183119 0)
  (-0.103764 -0.0192638 0)
  (-0.105841 -0.0196366 0)
  (-0.108179 -0.0195017 0)
  (-0.110775 -0.0190972 0)
  (-0.113595 -0.0184064 0)
  (-0.116522 -0.0173112 0)
  (-0.119323 -0.0155774 0)
  (-0.121635 -0.0128293 0)
  (-0.122948 -0.00849875 0)
  (-0.122722 -0.00234503 0)
  (-0.119995 0.00615903 0)
  (-0.113321 0.0178855 0)
  (-0.101403 0.0335956 0)
  (-0.0839406 0.052876 0)
  (-0.0618304 0.0716861 0)
  (-0.037877 0.0828302 0)
  (0.001884 0.0674649 0)
  (0.143523 -0.00399684 0)
  (-0.20747 -0.114367 0)
  (-0.104612 -0.34912 0)
  (-0.439382 -0.119847 0)
  (-0.310778 0.0970662 0)
  (-0.224095 -0.0201178 0)
  (-0.176714 -0.0430173 0)
  (-0.161153 -0.0315209 0)
  (-0.158485 -0.018542 0)
  (-0.1601 -0.0079451 0)
  (-0.16152 0.00113715 0)
  (-0.159745 0.00886192 0)
  (-0.155615 0.0158712 0)
  (-0.14907 0.0222672 0)
  (-0.140981 0.0277969 0)
  (-0.132787 0.0323528 0)
  (-0.125452 0.0365384 0)
  (-0.119321 0.0405665 0)
  (-0.114449 0.0445164 0)
  (-0.110682 0.0482016 0)
  (-0.10786 0.0512575 0)
  (-0.105877 0.0533638 0)
  (-0.104635 0.0543565 0)
  (-0.104055 0.0542692 0)
  (-0.104072 0.0532167 0)
  (-0.104619 0.0513925 0)
  (-0.105616 0.0492286 0)
  (-0.106963 0.0468565 0)
  (-0.108498 0.0443826 0)
  (-0.109954 0.041895 0)
  (-0.11091 0.0394606 0)
  (-0.110693 0.0371452 0)
  (-0.108067 0.0357548 0)
  (-0.101154 0.0359843 0)
  (-0.0874864 0.0385933 0)
  (-0.0651636 0.0444799 0)
  (-0.034701 0.0541666 0)
  (0.0135215 0.0673679 0)
  (0.0586704 0.0688706 0)
  (0.101442 0.0540926 0)
  (0.163937 0.0247911 0)
  (-0.219094 -0.0303605 0)
)
;

boundaryField
{
  floor
  {
    type noSlip;
  }
  ceiling
  {
    type noSlip;
  }
  sWall
  {
    type noSlip;
  }
  nWall
  {
    type noSlip;
  }
  sideWalls
  {
    type empty;
  }
  glass1
  {
    type noSlip;
  }
  glass2
  {
    type noSlip;
  }
  sun
  {
    type noSlip;
  }
  heatsource1
  {
    type noSlip;
  }
  heatsource2
  {
    type noSlip;
  }
  Table_master
  {
    type noSlip;
  }
  Table_slave
  {
    type noSlip;
  }
  inlet
  {
    type fixedValue;
    value uniform (0.3 0 0);
  }
  outlet
  {
    type zeroGradient;
  }
} 	// ************************************************************************* //

