/*--------------------------------*- C++ -*----------------------------------*\
  =========                 |
  \\      /  F ield         | OpenFOAM: The Open Source CFD Toolbox
   \\    /   O peration     | Website:  https://openfoam.org
    \\  /    A nd           | Version:  6
     \\/     M anipulation  |
\*---------------------------------------------------------------------------*/
FoamFile
{
    version     2.0;
    format      ascii;
    class       volScalarField;
    location    "800";
    object      nut;
}
// * * * * * * * * * * * * * * * * * * * * * * * * * * * * * * * * * * * * * //

dimensions      [0 2 -1 0 0 0 0];

internalField   nonuniform List<scalar> 
459
(
0.00106921
0.00116594
0.0011884
0.00124529
0.00129808
0.001348
0.00139777
0.00144465
0.00147707
0.00148865
0.00147338
0.00142712
0.00134766
0.00123687
0.00110737
0.00046307
0.00055083
0.00062269
0.00063062
0.000612777
0.000586817
0.000550127
0.000512656
0.000478632
0.000448581
0.000422109
0.000398716
0.000377955
0.00035945
0.000342521
0.000326326
0.000309767
0.000300084
0.000275462
0.00145462
0.00345014
0.00326487
0.00378623
0.00429877
0.00481153
0.00525358
0.00560259
0.00592608
0.0061938
0.00636952
0.0064173
0.00629452
0.00590004
0.00480967
0.00112823
0.000713448
0.000480998
0.00101732
0.00142807
0.00173987
0.00192544
0.0019327
0.00151739
0.00129825
0.00114336
0.00102554
0.000932715
0.0008577
0.000794858
0.000736671
0.000680499
0.000630518
0.00058674
0.000705774
0.000367401
0.00177539
0.00468056
0.00398162
0.0049427
0.00538581
0.00571062
0.00596705
0.00619934
0.00646781
0.00675657
0.00703133
0.00724308
0.00734749
0.00726354
0.00677474
0.0051842
0.00117154
0.00089406
0.00131015
0.0017145
0.00211054
0.00240573
0.00237715
0.000783464
0.000691693
0.000617235
0.000556873
0.000507599
0.000467009
0.000433318
0.000405374
0.000382652
0.000411743
0.000473116
0.000803602
0.000430855
0.00208374
0.00598525
0.00393493
0.0051534
0.00547761
0.00556036
0.00563948
0.00578185
0.00601319
0.00631744
0.00666029
0.00697292
0.00720699
0.00729133
0.00718375
0.0066079
0.00437456
0.00136696
0.00163197
0.00207931
0.00257572
0.00302154
0.00332891
0.00317184
0.000888124
0.000810545
0.00075492
0.000712535
0.000676529
0.000643176
0.000611121
0.000577416
0.000538338
0.000505022
0.000511239
0.000945222
0.000480811
0.0023983
0.00768778
0.00425623
0.00492214
0.0053592
0.00531247
0.00528681
0.00540503
0.00562207
0.00593429
0.00631152
0.00665294
0.00688808
0.00697551
0.00691931
0.00669261
0.0061173
0.00518655
0.00486245
0.00480473
0.00484546
0.00489414
0.00489185
0.00472801
0.00401262
0.0036574
0.00344951
0.00328994
0.00312349
0.00288725
0.00256334
0.00216668
0.00172589
0.00129113
0.000958367
0.000954161
0.00065899
0.000597398
0.000718825
0.000807533
0.00273256
0.00955729
0.00585338
0.00478231
0.00520909
0.00534958
0.00522681
0.00532957
0.00550757
0.00579503
0.00616423
0.0065194
0.00675045
0.006796
0.00667738
0.00648132
0.00629771
0.00617776
0.00617879
0.00619402
0.00615499
0.00605387
0.00589511
0.00566735
0.00532869
0.0050232
0.00475183
0.00449148
0.00422716
0.00394506
0.00359512
0.00316361
0.00265159
0.00208968
0.00159033
0.00117195
0.000916635
0.000786629
0.00111419
0.000845147
0.00304616
0.0109072
0.00838761
0.00608833
0.00569838
0.00571131
0.00556306
0.00548502
0.00557649
0.00585275
0.00624252
0.00661456
0.0068319
0.00682547
0.00663957
0.00643147
0.0063968
0.00657688
0.00677944
0.00683215
0.00671678
0.00648419
0.00617665
0.0058186
0.00543224
0.00506842
0.00473443
0.00442416
0.00413798
0.00388225
0.00365927
0.00339244
0.00301731
0.0025499
0.00209869
0.00167483
0.00138059
0.00127489
0.00126382
0.000959916
0.0031138
0.00988775
0.00858568
0.0076192
0.00701896
0.00633821
0.00578902
0.00557351
0.00569832
0.00607162
0.00654022
0.00692821
0.00708653
0.00697515
0.0067021
0.00650908
0.00661551
0.00689785
0.00699535
0.00684812
0.00652624
0.00609636
0.00561202
0.00512466
0.00468143
0.0043058
0.00399143
0.00373077
0.00352473
0.00337812
0.00329523
0.00326091
0.00314598
0.00287206
0.00262977
0.00251102
0.00259408
0.00287295
0.0035704
0.0014573
0.0030388
0.00362766
0.00409469
0.00423711
0.00425067
0.00436239
0.00466752
0.00519069
0.00587907
0.00659331
0.00716514
0.00745281
0.00736559
0.00698943
0.00662724
0.00656474
0.00662003
0.00659883
0.0063877
0.00600022
0.00548848
0.00492455
0.00437856
0.00390692
0.00353189
0.00324266
0.00301705
0.00283809
0.00269414
0.00257506
0.00247127
0.00237576
0.00230298
0.00225075
0.00223087
0.00223802
0.00222171
0.00213708
0.00199391
0.00135309
0.00182052
0.0032509
0.00454194
0.00562282
0.00650272
0.00728914
0.00788009
0.00815881
0.00809658
0.00772168
0.00707436
0.00638582
0.00598508
0.00582323
0.00564238
0.00532617
0.00488021
0.00436056
0.00383819
0.0033667
0.00298077
0.00269248
0.00248645
0.00234062
0.0022379
0.00216744
0.00212261
0.00209949
0.00209773
0.00212041
0.00215408
0.00219575
0.00224094
0.00227297
0.00226432
0.0022005
0.00194397
0.00108062
0.0021258
0.00458562
0.00632625
0.00713296
0.00768109
0.00806512
0.00796438
0.00742363
0.00664375
0.00583502
0.00516251
0.00468065
0.00435609
0.00405862
0.00370727
0.00331328
0.00291887
0.00256851
0.00229129
0.00209197
0.00195953
0.00187279
0.00181796
0.00178906
0.00178414
0.00179939
0.00183145
0.00187628
0.00193815
0.00201427
0.00210216
0.00219627
0.00228327
0.00234285
0.00235984
0.00232565
0.00167517
0.001105
0.00182924
0.00192613
0.00199771
0.00206751
0.00187699
0.00172802
0.00165876
0.00158216
0.00147166
0.00133427
0.00118161
0.00103245
0.000901976
0.000798826
0.000723878
0.00067027
0.000630819
0.000601446
0.000580645
0.000567919
0.000562613
0.000563741
0.000570369
0.0005818
0.000597816
0.000618097
0.000642279
0.000670635
0.000703704
0.000742492
0.000786511
0.000835809
0.000890802
0.000951797
0.00101824
0.00108957
0.0011023
0.000985766
0.000934964
0.00110589
)
;

boundaryField
{
    floor
    {
        type            nutkWallFunction;
        Cmu             0.09;
        kappa           0.41;
        E               9.8;
        value           nonuniform List<scalar> 
29
(
0.000133282
5.49682e-05
6.61686e-05
7.51754e-05
7.61614e-05
7.3941e-05
7.06962e-05
6.608e-05
6.13262e-05
5.69725e-05
5.30949e-05
4.96521e-05
4.65869e-05
4.38473e-05
4.13892e-05
3.9126e-05
3.69475e-05
3.47051e-05
3.33867e-05
3.0008e-05
3.00079e-05
4.24465e-05
5.07915e-05
5.72513e-05
0.000133282
5.49681e-05
5.72758e-05
0.000108178
0.000163105
)
;
    }
    ceiling
    {
        type            nutkWallFunction;
        Cmu             0.09;
        kappa           0.41;
        E               9.8;
        value           nonuniform List<scalar> 
43
(
0.000214591
0.000225205
0.000233011
0.000240686
0.000219944
0.00020355
0.000195875
0.000187343
0.000174948
0.000159388
0.000141886
0.000124535
0.000109123
9.67542e-05
8.76501e-05
8.10696e-05
7.61867e-05
7.25271e-05
6.99224e-05
6.83233e-05
6.7655e-05
6.7797e-05
6.8631e-05
7.00666e-05
7.20724e-05
7.46032e-05
7.76077e-05
8.11134e-05
8.51796e-05
8.99201e-05
9.52647e-05
0.000101208
0.000107791
0.000115037
0.00012287
0.000131213
0.000132696
0.000119049
0.000113043
0.000133116
0.000344168
0.00040503
0.000246798
)
;
    }
    sWall
    {
        type            nutkWallFunction;
        Cmu             0.09;
        kappa           0.41;
        E               9.8;
        value           uniform 0.000214651;
    }
    nWall
    {
        type            nutkWallFunction;
        Cmu             0.09;
        kappa           0.41;
        E               9.8;
        value           nonuniform List<scalar> 6(9.78052e-05 0.000102331 0.000116001 0.000130178 0.000133019 0.000133124);
    }
    sideWalls
    {
        type            empty;
    }
    glass1
    {
        type            nutkWallFunction;
        Cmu             0.09;
        kappa           0.41;
        E               9.8;
        value           nonuniform List<scalar> 9(0.000128938 0.000173247 0.000209108 0.000242914 0.00027685 0.0003124 0.000345339 0.000352407 0.000344597);
    }
    glass2
    {
        type            nutkWallFunction;
        Cmu             0.09;
        kappa           0.41;
        E               9.8;
        value           nonuniform List<scalar> 2(0.000173405 0.000161596);
    }
    sun
    {
        type            nutkWallFunction;
        Cmu             0.09;
        kappa           0.41;
        E               9.8;
        value           nonuniform List<scalar> 
14
(
0.000128839
0.000140075
0.000142669
0.000149215
0.000155261
0.000160951
0.000166602
0.000171903
0.000175559
0.000176861
0.000175142
0.000169922
0.000160911
0.000148247
)
;
    }
    heatsource1
    {
        type            nutkWallFunction;
        Cmu             0.09;
        kappa           0.41;
        E               9.8;
        value           nonuniform List<scalar> 3(7.20219e-05 8.70318e-05 9.78042e-05);
    }
    heatsource2
    {
        type            nutkWallFunction;
        Cmu             0.09;
        kappa           0.41;
        E               9.8;
        value           nonuniform List<scalar> 4(0.000135701 8.63753e-05 8.63753e-05 0.000140717);
    }
    Table_master
    {
        type            nutkWallFunction;
        Cmu             0.09;
        kappa           0.41;
        E               9.8;
        value           nonuniform List<scalar> 9(9.48964e-05 8.37074e-05 7.44989e-05 6.6935e-05 6.06863e-05 5.54825e-05 5.11202e-05 4.74697e-05 4.44779e-05);
    }
    Table_slave
    {
        type            nutkWallFunction;
        Cmu             0.09;
        kappa           0.41;
        E               9.8;
        value           nonuniform List<scalar> 9(0.000107471 9.81679e-05 9.14337e-05 8.62629e-05 8.18416e-05 7.7721e-05 7.37363e-05 6.9519e-05 6.45917e-05);
    }
    inlet
    {
        type            calculated;
        value           uniform 0.000100623;
    }
    outlet
    {
        type            calculated;
        value           nonuniform List<scalar> 2(0.00182924 0.00192613);
    }
}


// ************************************************************************* //
