/*--------------------------------*- C++ -*----------------------------------*\
  =========                 |
  \\      /  F ield         | OpenFOAM: The Open Source CFD Toolbox
   \\    /   O peration     | Website:  https://openfoam.org
    \\  /    A nd           | Version:  6
     \\/     M anipulation  |
\*---------------------------------------------------------------------------*/
FoamFile
{
    version     2.0;
    format      ascii;
    class       surfaceScalarField;
    location    "200";
    object      phi;
}
// * * * * * * * * * * * * * * * * * * * * * * * * * * * * * * * * * * * * * //

dimensions      [1 0 -1 0 0 0 0];

internalField   nonuniform List<scalar> 
852
(
-0.00265862
0.00272784
-0.00299304
0.000334483
-0.00345566
0.000462678
-0.00392964
0.000474036
-0.0043582
0.00042862
-0.0047143
0.000356161
-0.00497648
0.000262245
-0.00512246
0.00014604
-0.00512746
5.05138e-06
-0.0049621
-0.000165301
-0.00459972
-0.000362314
-0.00402142
-0.000578249
-0.00318457
-0.000836792
-0.00192714
-0.00125737
-0.00192401
-0.000530348
0.000535084
-0.000235995
-0.000294292
0.000265225
-0.000501156
0.000760207
-0.000494918
0.00120087
-0.000440602
0.00155677
-0.000355832
0.00170587
-0.000149034
0.00172379
-1.785e-05
0.00169922
2.46374e-05
0.00165936
3.99283e-05
0.00161109
4.83378e-05
0.00155891
5.2253e-05
0.00150404
5.49393e-05
0.00144109
6.30136e-05
0.00135223
8.89284e-05
0.00120928
0.000143021
0.00101725
0.000192096
0.000836847
0.000180469
0.000843679
-0.00194749
0.00485726
-0.0026195
0.00100656
-0.00324178
0.00108502
-0.00376435
0.000996666
-0.00421486
0.00087919
-0.00458763
0.000728994
-0.00486813
0.000542796
-0.00503775
0.00031572
-0.00507585
4.32101e-05
-0.00496404
-0.00027705
-0.00468391
-0.000642384
-0.00421869
-0.00104341
-0.00356877
-0.00148665
-0.00284233
-0.00198375
-0.0023404
-0.00242588
8.6084e-05
-0.00242647
8.60915e-05
0.000662698
-0.00011519
0.000485855
-0.000117387
0.000412536
-0.000427773
0.00066733
-0.000749648
0.00100514
-0.000778351
0.00131592
-0.000666539
0.00138038
-0.000213435
0.00137827
-1.56666e-05
0.00137292
3.00499e-05
0.00136685
4.60696e-05
0.00136047
5.47915e-05
0.00135497
5.78173e-05
0.00135035
5.96338e-05
0.00134415
6.92771e-05
0.00130996
0.000123198
0.0011638
0.000289244
0.000918949
0.000437018
0.000647406
0.000452079
0.00150794
-0.00145347
0.00658249
-0.00225539
0.00180854
-0.00290384
0.00173353
-0.00341696
0.00150985
-0.00386303
0.00132532
-0.00424222
0.00110824
-0.00454235
0.000842982
-0.00474635
0.000519779
-0.00483583
0.000132749
-0.00479584
-0.000316975
-0.00462024
-0.000817926
-0.00431849
-0.00134511
-0.00393256
-0.00187252
-0.00355255
-0.00236371
-0.00325985
-0.00271853
-0.0028705
-0.00281576
-0.00278435
-0.000527893
0.000427898
-0.000423266
-0.000221951
-8.31832e-05
-0.000767793
0.000293469
-0.00112624
0.000615015
-0.00109983
0.00108706
-0.00113852
0.000873847
0.000858404
0.000888678
0.000934972
0.000989989
0.00104803
0.00110789
0.00117739
0.00130082
0.0010838
0.000506327
0.000810432
0.000710458
0.000517242
0.000745336
0.00204987
-0.00109599
0.00802286
-0.00192226
0.00263487
-0.00245689
0.00226822
-0.00289304
0.00194606
-0.00328671
0.00171904
-0.00363383
0.00145542
-0.00392378
0.001133
-0.00414133
0.00073738
-0.00426696
0.00025844
-0.00428316
-0.000300713
-0.0041942
-0.000906831
-0.00403689
-0.00150236
-0.00387513
-0.00203422
-0.00378195
-0.00245683
-0.00378529
-0.00271512
-0.00386798
-0.00273301
-0.00443986
-0.00221241
-0.00312512
-0.0012999
-0.00191464
-0.000782523
-0.00117292
-0.00096361
-0.000541102
-0.00139955
-7.8296e-05
-0.00158898
0.000154255
-0.00133232
8.91348e-05
-0.00107333
0.000663028
-0.000573982
0.00108965
-0.000426709
0.00146038
-0.000370818
0.00178866
-0.000328368
0.00205853
-0.00026996
0.00223299
-0.000174545
0.00225933
-2.64274e-05
0.00209011
0.000169132
0.00167004
0.000419986
0.00137145
0.000804986
0.000887093
0.00119488
0.000164583
0.00146791
0.00224623
-0.000812792
0.00924037
-0.00160918
0.00343131
-0.00191662
0.00257573
-0.00222699
0.00225649
-0.00252076
0.00201286
-0.00278279
0.00171752
-0.00300641
0.00135667
-0.00318259
0.000913625
-0.00329495
0.00037085
-0.00331733
-0.000278271
-0.00325306
-0.000971046
-0.00315456
-0.0016008
-0.00307956
-0.00210916
-0.00306612
-0.00247022
-0.00312045
-0.00266074
-0.00323115
-0.00262225
-0.0031913
-0.0022522
-0.00271514
-0.00177601
-0.00197638
-0.00152122
-0.00128914
-0.00165079
-0.00069728
-0.00199135
-0.000255514
-0.00203069
-3.48763e-05
-0.00155289
0.000117439
-0.00122558
0.000457972
-0.000914451
0.000787797
-0.000756468
0.0010933
-0.000676259
0.00137838
-0.000613381
0.00163335
-0.000524863
0.00183044
-0.000371567
0.00192498
-0.000120904
0.00187961
0.000214566
0.0017083
0.000591365
0.00148574
0.00102762
0.0011823
0.00149838
0.000571785
0.00207849
0.000262771
0.00255531
-0.00119542
0.00145805
-0.00167425
0.000478683
-0.00161203
-0.000714192
0.0104108
-0.00142045
0.00413763
-0.00132357
0.0024789
-0.00145451
0.00238749
-0.0016321
0.00219051
-0.00177668
0.00186216
-0.00188544
0.00146548
-0.00196434
0.000992591
-0.00200975
0.000416319
-0.00198987
-0.00029809
-0.00191637
-0.00104449
-0.00185212
-0.001665
-0.00183888
-0.00212234
-0.00189239
-0.00241665
-0.00200368
-0.00254939
-0.00212376
-0.00250212
-0.00210116
-0.00227474
-0.00187355
-0.00200357
-0.00150393
-0.00189079
-0.00110799
-0.00204668
-0.000679635
-0.00241965
-0.000318345
-0.00239192
-0.000156077
-0.0017151
-2.82144e-05
-0.00135338
0.000170699
-0.0011133
0.000391006
-0.000976711
0.000615001
-0.000900189
0.000842202
-0.000840517
0.00107145
-0.000754048
0.00129123
-0.000591284
0.00147157
-0.000301172
0.00156163
0.000124575
0.001571
0.000582057
0.0015603
0.00103839
0.00159331
0.00146544
0.00170122
0.00197065
0.00214931
0.00210728
0.0024192
0.00118822
0.00201908
0.000878863
0.000480826
-0.00100274
0.0119147
-0.00117229
0.00430724
-0.000491342
0.00179802
-0.000441038
0.00233725
-0.000570354
0.00231989
-0.000633002
0.00192486
-0.000612086
0.00144463
-0.000544405
0.000924969
-0.000438387
0.00031036
-0.000323882
-0.000412536
-0.000241574
-0.00112674
-0.000233729
-0.00167278
-0.000311287
-0.00204473
-0.000464642
-0.00226324
-0.000666339
-0.00234763
-0.000860265
-0.00230814
-0.000967372
-0.00216758
-0.000965032
-0.00200585
-0.000897177
-0.00195859
-0.000791927
-0.00215187
-0.000561465
-0.00265006
-0.000315798
-0.00263753
-0.000261082
-0.00176975
-0.000235305
-0.0013791
-0.000174257
-0.00117428
-8.93904e-05
-0.00106151
1.37139e-05
-0.00100323
0.000137306
-0.000964045
0.000288411
-0.000905089
0.000478472
-0.000781281
0.000714289
-0.000536925
0.000949201
-0.000110273
0.00115485
0.000376476
0.00136583
0.000827475
0.00166609
0.00116524
0.00215301
0.0014838
0.00289899
0.00136136
0.00352369
0.000563595
0.00357794
0.000824674
0.00413602
0.00209578
0.0103759
0.00250171
0.00390136
0.00213114
0.00216864
0.00175495
0.0027135
0.00138232
0.00269258
0.00119622
0.00211102
0.00121089
0.00143002
0.00134032
0.000795595
0.00156019
9.05493e-05
0.00175013
-0.000602416
0.00177002
-0.00114656
0.00164308
-0.00154579
0.0014099
-0.00181149
0.00110542
-0.00195871
0.000763363
-0.00200552
0.000426729
-0.00197145
0.000141296
-0.0018821
-7.86026e-05
-0.0017859
-0.000264338
-0.0017728
-0.000424343
-0.00199182
-0.000385481
-0.00268887
-0.000258821
-0.00276413
-0.000346604
-0.00168191
-0.000462721
-0.00126292
-0.000554567
-0.00108238
-0.000626724
-0.000989293
-0.000685807
-0.000944083
-0.000729528
-0.000920261
-0.000747987
-0.000886567
-0.000718908
-0.000810297
-0.000596942
-0.000658828
-0.000306939
-0.000400211
5.00984e-05
1.95033e-05
0.000400996
0.000476642
0.000776751
0.000789552
0.0012281
0.00103251
0.00162904
0.000960497
0.00165267
0.000540019
0.000741628
0.00173578
0.00522491
0.0109928
0.0148926
0.011747
0.00531433
0.00949687
0.00496365
0.00770949
0.00448002
0.00650119
0.00331938
0.00575471
0.00217655
0.00532425
0.00122611
0.00496594
0.000448916
0.00455592
-0.000192337
0.00410825
-0.000698837
0.00363011
-0.00106759
0.00312714
-0.00130846
0.00261008
-0.0014416
0.00209512
-0.00149051
0.00160242
-0.0014787
0.00115045
-0.00143008
0.000737757
-0.00137316
0.000325843
-0.00136084
-7.77714e-05
-0.00158815
-0.000184141
-0.00258245
-0.000139424
-0.00280879
-0.000408279
-0.00141299
-0.000699349
-0.000971784
-0.000943252
-0.00083841
-0.00117071
-0.000761771
-0.00140785
-0.000706876
-0.00166489
-0.000663162
-0.00194779
-0.000603605
-0.00226241
-0.000495617
-0.00261324
-0.000307938
-0.00301152
-1.86748e-06
-0.00342382
0.000431873
-0.00394364
0.000996522
-0.00480178
0.00164775
-0.00605798
0.00228877
-0.00780368
0.00270626
-0.00982571
0.00256211
-0.0090515
0.000961626
-0.00343851
0.00568191
0.00612071
0.0050369
0.00560868
0.00565657
0.00386038
0.00598888
0.00298711
0.0060675
0.00209798
0.00604394
0.00124973
0.00592536
0.000567548
0.00566935
6.37161e-05
0.00526804
-0.000297475
0.0047649
-0.000564405
0.00420249
-0.000746001
0.00361638
-0.000855444
0.00303368
-0.000907761
0.0024727
-0.000917672
0.00194168
-0.000899005
0.00142884
-0.000860271
0.000873995
-0.000805946
0.000261125
-0.000975235
1.94025e-05
-0.00234068
-7.45111e-05
-0.00271482
-0.000554452
-0.000932991
-0.000987615
-0.000538558
-0.00129143
-0.000534536
-0.00157245
-0.000480686
-0.00187607
-0.000403188
-0.00220782
-0.000331354
-0.00255665
-0.000254715
-0.00289582
-0.000156382
-0.00317632
-2.73737e-05
-0.00337606
0.000197928
-0.00351751
0.000573392
-0.0036332
0.00111226
-0.00375262
0.00176723
-0.00383043
0.00236664
-0.00374018
0.00261607
-0.00325016
0.00207214
-0.00181229
-0.000476178
-0.00515249
-0.000583112
0.006747
0.00176564
0.00325996
0.00308778
0.00253828
0.00406964
0.00200529
0.00482747
0.0013402
0.00527186
0.000805372
0.00543166
0.0004078
0.00536489
0.000130532
0.00514324
-7.57765e-05
0.00480749
-0.000228616
0.00439374
-0.0003322
0.00393454
-0.000396198
0.00345491
-0.000428083
0.00297292
-0.000435627
0.00250005
-0.000426089
0.00203818
-0.000398358
0.00156233
-0.000330049
0.00100586
-0.000418709
0.000245784
-0.00158056
-0.000592211
-0.00187676
-0.00112555
-0.000399593
-0.0014832
-0.00018085
-0.00173834
-0.000279329
-0.00194881
-0.000270158
-0.00213524
-0.000216694
-0.00230549
-0.000161037
-0.0024613
-9.8851e-05
-0.00259882
-1.87999e-05
-0.00270065
7.45244e-05
-0.00270194
0.000199277
-0.00254681
0.000418319
-0.00219692
0.000762434
-0.00167387
0.00124425
-0.000990862
0.00168369
0.000105728
0.00151954
0.00143268
0.000745247
0.00163711
-0.000680543
-0.00340755
-0.00979718
-0.0123662
-0.0055791
-0.00229283
0.000267895
0.00229363
0.00365416
0.00448028
0.00490952
0.00506237
0.00500984
0.00480539
0.00449827
0.00412811
0.00372708
0.00331954
0.00292257
0.00255432
0.0022552
0.00186809
0.000320028
-0.00152521
-0.00189489
-0.00204626
-0.0022962
-0.00253706
-0.0027246
-0.00285672
-0.00292702
-0.00291782
-0.00281609
-0.00259054
-0.00214702
-0.0013605
-9.33309e-05
0.00161175
0.00315212
0.00391846
0.00326014
)
;

boundaryField
{
    floor
    {
        type            calculated;
        value           nonuniform List<scalar> 
29
(
0
0
0
0
0
0
0
0
0
0
0
0
0
0
0
0
0
0
0
0
-6.76833e-06
-1.67901e-05
-2.46217e-05
-3.17213e-05
-3.06929e-06
-4.67483e-06
-1.23633e-05
-1.51321e-05
-1.4787e-05
)
;
    }
    ceiling
    {
        type            calculated;
        value           nonuniform List<scalar> 
43
(
-4.24292e-05
-4.12886e-05
-4.00743e-05
-2.6277e-05
-2.24195e-05
-2.04032e-05
-2.02976e-05
-2.07014e-05
-2.13953e-05
-2.2271e-05
-2.32064e-05
-2.41134e-05
-2.50366e-05
-2.59969e-05
-2.70012e-05
-2.804e-05
-2.90811e-05
-3.00585e-05
-3.0877e-05
-3.15545e-05
-3.24468e-05
-3.14629e-05
-2.98561e-05
-2.9417e-05
-2.93288e-05
-2.92361e-05
-2.90884e-05
-2.88568e-05
-2.84897e-05
-2.79382e-05
-2.71471e-05
-2.62088e-05
-2.51482e-05
-2.40181e-05
-2.28678e-05
-2.13298e-05
-2.07768e-05
-2.10345e-05
-2.2166e-05
-2.29678e-05
4.10739e-06
1.65756e-06
-4.3177e-05
)
;
    }
    sWall
    {
        type            calculated;
        value           uniform -0.000242851;
    }
    nWall
    {
        type            calculated;
        value           nonuniform List<scalar> 6(-6.23614e-05 -7.3716e-05 -7.7196e-05 -9.8252e-05 -0.000107767 -0.000124384);
    }
    sideWalls
    {
        type            empty;
        value           nonuniform 0();
    }
    glass1
    {
        type            calculated;
        value           nonuniform List<scalar> 9(-6.91659e-05 -0.000181883 -0.000271701 -0.000344329 -0.000404671 -0.000456199 -0.000501114 -0.00055692 -0.000620997);
    }
    glass2
    {
        type            calculated;
        value           nonuniform List<scalar> 2(-0.000347194 -0.000388026);
    }
    sun
    {
        type            calculated;
        value           uniform 0;
    }
    heatsource1
    {
        type            calculated;
        value           nonuniform List<scalar> 3(2.06451e-07 2.06288e-07 2.06298e-07);
    }
    heatsource2
    {
        type            calculated;
        value           nonuniform List<scalar> 4(5.14362e-08 5.17384e-08 0 0);
    }
    Table_master
    {
        type            calculated;
        value           nonuniform List<scalar> 9(-1.54856e-07 -1.55003e-07 -1.55033e-07 -1.55048e-07 -1.55056e-07 -1.5506e-07 -1.55061e-07 -1.55057e-07 -1.5503e-07);
    }
    Table_slave
    {
        type            calculated;
        value           nonuniform List<scalar> 9(1.54964e-07 1.54875e-07 1.5476e-07 1.54658e-07 1.54576e-07 1.54527e-07 1.54531e-07 1.54548e-07 1.54625e-07);
    }
    inlet
    {
        type            calculated;
        value           uniform -0.00648827;
    }
    outlet
    {
        type            calculated;
        value           nonuniform List<scalar> 2(0.0100825 0.00261032);
    }
}


// ************************************************************************* //
