// -*- C++ -*-
// File generated by PyFoam - sorry for the ugliness

FoamFile
{
 version 2.0;
 format ascii;
 class volScalarField;
 location "1100";
 object T;
}

dimensions [ 0 0 0 1 0 0 0 ];

internalField nonuniform List<scalar> 459
(
  303.318
  303.054
  303.041
  303.038
  303.035
  303.031
  303.027
  303.021
  303.013
  303.001
  302.989
  302.979
  302.972
  302.971
  302.977
  303.055
  303.037
  303.03
  303.033
  303.037
  303.04
  303.044
  303.047
  303.05
  303.053
  303.056
  303.059
  303.062
  303.065
  303.068
  303.071
  303.075
  303.079
  303.098
  303.498
  303.095
  303.073
  303.076
  303.08
  303.081
  303.08
  303.073
  303.056
  303.032
  303.005
  302.982
  302.966
  302.959
  302.957
  302.952
  302.942
  303.057
  303.023
  303.018
  303.021
  303.026
  303.03
  303.031
  303.032
  303.032
  303.033
  303.033
  303.033
  303.033
  303.034
  303.035
  303.038
  303.043
  303.05
  303.081
  303.686
  303.146
  303.109
  303.121
  303.137
  303.148
  303.153
  303.147
  303.12
  303.077
  303.029
  302.99
  302.966
  302.956
  302.954
  302.954
  302.951
  303.015
  303.01
  303.013
  303.022
  303.032
  303.04
  303.039
  303.038
  303.036
  303.035
  303.034
  303.033
  303.032
  303.031
  303.031
  303.033
  303.036
  303.042
  303.074
  303.875
  303.208
  303.145
  303.165
  303.196
  303.225
  303.244
  303.239
  303.197
  303.127
  303.053
  302.996
  302.963
  302.952
  302.953
  302.957
  302.96
  302.97
  302.982
  302.999
  303.018
  303.036
  303.053
  303.066
  303.077
  303.087
  303.095
  303.103
  303.109
  303.114
  303.117
  303.12
  303.121
  303.093
  303.068
  303.053
  303.075
  304.059
  303.286
  303.185
  303.201
  303.244
  303.293
  303.335
  303.329
  303.265
  303.165
  303.065
  302.994
  302.956
  302.945
  302.951
  302.963
  302.975
  302.989
  303.007
  303.029
  303.051
  303.073
  303.092
  303.109
  303.123
  303.136
  303.146
  303.154
  303.159
  303.161
  303.161
  303.157
  303.149
  303.128
  303.097
  303.07
  303.074
  303.153
  303.198
  303.205
  304.226
  303.386
  303.249
  303.242
  303.283
  303.345
  303.409
  303.386
  303.294
  303.172
  303.059
  302.979
  302.941
  302.935
  302.951
  302.974
  302.997
  303.021
  303.046
  303.072
  303.097
  303.12
  303.14
  303.156
  303.17
  303.181
  303.19
  303.197
  303.2
  303.2
  303.194
  303.186
  303.173
  303.153
  303.124
  303.093
  303.082
  303.112
  303.129
  303.165
  304.375
  303.548
  303.403
  303.367
  303.386
  303.444
  303.472
  303.407
  303.278
  303.131
  303.01
  302.935
  302.911
  302.924
  302.958
  302.998
  303.035
  303.069
  303.099
  303.127
  303.151
  303.172
  303.19
  303.204
  303.215
  303.224
  303.23
  303.233
  303.234
  303.23
  303.222
  303.21
  303.194
  303.174
  303.149
  303.12
  303.102
  303.109
  303.119
  303.148
  304.594
  303.973
  303.808
  303.705
  303.657
  303.64
  303.541
  303.367
  303.171
  303.004
  302.898
  302.859
  302.874
  302.923
  302.986
  303.046
  303.095
  303.133
  303.162
  303.186
  303.206
  303.222
  303.235
  303.245
  303.252
  303.257
  303.26
  303.26
  303.258
  303.253
  303.245
  303.233
  303.218
  303.2
  303.181
  303.16
  303.152
  303.164
  303.183
  303.309
  304.906
  304.616
  304.35
  304.12
  303.933
  303.708
  303.376
  303.06
  302.837
  302.728
  302.717
  302.774
  302.869
  302.966
  303.06
  303.131
  303.172
  303.2
  303.221
  303.238
  303.252
  303.263
  303.271
  303.277
  303.281
  303.282
  303.282
  303.28
  303.278
  303.275
  303.272
  303.272
  303.273
  303.279
  303.293
  303.315
  303.348
  303.38
  303.402
  303.457
  297.026
  299.134
  300.235
  300.689
  301.132
  301.572
  301.978
  302.321
  302.596
  302.819
  303.007
  303.111
  303.174
  303.213
  303.237
  303.255
  303.269
  303.279
  303.288
  303.294
  303.298
  303.301
  303.302
  303.303
  303.303
  303.303
  303.303
  303.304
  303.305
  303.307
  303.311
  303.32
  303.333
  303.352
  303.375
  303.399
  303.418
  303.439
  297.457
  299.316
  300.254
  300.954
  301.55
  302.082
  302.481
  302.76
  302.952
  303.082
  303.166
  303.216
  303.248
  303.269
  303.283
  303.294
  303.302
  303.308
  303.312
  303.315
  303.317
  303.318
  303.319
  303.32
  303.321
  303.321
  303.322
  303.323
  303.324
  303.326
  303.33
  303.336
  303.345
  303.358
  303.374
  303.392
  303.391
  303.421
  301.261
  299.507
  299.438
  301.189
  302.056
  302.501
  302.751
  302.925
  303.05
  303.137
  303.198
  303.239
  303.266
  303.284
  303.296
  303.304
  303.31
  303.314
  303.317
  303.319
  303.321
  303.322
  303.324
  303.325
  303.326
  303.327
  303.328
  303.329
  303.33
  303.332
  303.333
  303.335
  303.337
  303.34
  303.345
  303.356
  303.364
  303.37
  303.373
  303.411
)
;

boundaryField
{
  floor
  {
    type wallHeatTransfer;
    Tinf uniform 305.2;
    alphaWall uniform 0.24;
    value nonuniform List<scalar> 29
(
  303.207
  303.467
  303.406
  303.372
  303.371
  303.381
  303.394
  303.413
  303.433
  303.453
  303.473
  303.492
  303.51
  303.528
  303.545
  303.561
  303.578
  303.597
  303.61
  303.651
  303.651
  303.549
  303.498
  303.47
  303.207
  303.467
  303.458
  303.279
  303.167
)
;
  }
  ceiling
  {
    type wallHeatTransfer;
    Tinf uniform 303.2;
    alphaWall uniform 0.24;
    value nonuniform List<scalar> 43
(
  301.388
  299.748
  299.679
  301.315
  302.134
  302.552
  302.785
  302.947
  303.063
  303.142
  303.198
  303.235
  303.258
  303.273
  303.282
  303.288
  303.292
  303.295
  303.297
  303.299
  303.3
  303.302
  303.303
  303.304
  303.306
  303.307
  303.309
  303.311
  303.312
  303.314
  303.316
  303.318
  303.321
  303.325
  303.33
  303.34
  303.348
  303.353
  303.355
  303.388
  304.827
  304.56
  297.806
)
;
  }
  sWall
  {
    type wallHeatTransfer;
    Tinf uniform 315.2;
    alphaWall uniform 0.36;
    value uniform 302.59;
  }
  nWall
  {
    type wallHeatTransfer;
    Tinf uniform 307.2;
    alphaWall uniform 0.36;
    value nonuniform List<scalar> 6
(
  303.938
  303.882
  303.798
  303.978
  303.956
  304.013
)
;
  }
  sideWalls
  {
    type empty;
  }
  glass1
  {
    type wallHeatTransfer;
    Tinf uniform 315.2;
    alphaWall uniform 4.3;
    value nonuniform List<scalar> 9
(
  311.47
  310.827
  310.421
  310.112
  309.855
  309.622
  309.44
  309.507
  309.731
)
;
  }
  glass2
  {
    type wallHeatTransfer;
    Tinf uniform 307.2;
    alphaWall uniform 4.3;
    value nonuniform List<scalar> 2
(
  305.698
  305.809
)
;
  }
  sun
  {
    type wallHeatTransfer;
    Tinf uniform 305.2;
    alphaWall uniform 0.24;
    value nonuniform List<scalar> 14
(
  303.519
  303.268
  303.254
  303.243
  303.234
  303.225
  303.216
  303.206
  303.195
  303.183
  303.173
  303.169
  303.171
  303.183
)
;
  }
  heatsource1
  {
    type fixedGradient;
    gradient uniform 0;
  }
  heatsource2
  {
    type fixedGradient;
    gradient uniform 0;
  }
  Table_master
  {
    type zeroGradient;
  }
  Table_slave
  {
    type zeroGradient;
  }
  inlet
  {
    type fixedValue;
    value uniform 293.15;
  }
  outlet
  {
    type zeroGradient;
  }
} 	// ************************************************************************* //

