// -*- C++ -*-
// File generated by PyFoam - sorry for the ugliness

FoamFile
{
 version 2.0;
 format ascii;
 class volScalarField;
 location "600";
 object T;
}

dimensions [ 0 0 0 1 0 0 0 ];

internalField nonuniform List<scalar> 459
(
  302.994
  302.701
  302.691
  302.69
  302.688
  302.687
  302.685
  302.683
  302.681
  302.678
  302.673
  302.666
  302.657
  302.649
  302.642
  302.755
  302.723
  302.722
  302.722
  302.722
  302.722
  302.722
  302.722
  302.722
  302.722
  302.721
  302.721
  302.72
  302.72
  302.719
  302.718
  302.717
  302.716
  302.728
  303.209
  302.732
  302.713
  302.717
  302.722
  302.727
  302.729
  302.731
  302.731
  302.727
  302.717
  302.699
  302.676
  302.652
  302.634
  302.629
  302.634
  302.716
  302.713
  302.714
  302.714
  302.713
  302.711
  302.708
  302.704
  302.701
  302.697
  302.693
  302.69
  302.686
  302.683
  302.681
  302.681
  302.682
  302.685
  302.711
  303.43
  302.775
  302.741
  302.755
  302.771
  302.786
  302.799
  302.808
  302.812
  302.809
  302.792
  302.761
  302.719
  302.673
  302.638
  302.628
  302.64
  302.708
  302.715
  302.721
  302.725
  302.726
  302.724
  302.718
  302.712
  302.706
  302.7
  302.694
  302.688
  302.682
  302.677
  302.672
  302.67
  302.669
  302.671
  302.702
  303.645
  302.831
  302.769
  302.791
  302.82
  302.848
  302.874
  302.895
  302.907
  302.906
  302.884
  302.838
  302.771
  302.698
  302.641
  302.624
  302.645
  302.685
  302.702
  302.723
  302.736
  302.742
  302.744
  302.744
  302.743
  302.742
  302.74
  302.739
  302.736
  302.733
  302.729
  302.725
  302.719
  302.697
  302.679
  302.67
  302.7
  303.848
  302.904
  302.797
  302.817
  302.855
  302.895
  302.935
  302.97
  302.994
  302.998
  302.973
  302.914
  302.825
  302.724
  302.642
  302.617
  302.646
  302.69
  302.72
  302.743
  302.757
  302.763
  302.764
  302.763
  302.763
  302.761
  302.759
  302.756
  302.752
  302.747
  302.741
  302.734
  302.725
  302.709
  302.688
  302.673
  302.692
  302.759
  302.788
  302.797
  304.025
  302.998
  302.839
  302.835
  302.872
  302.916
  302.963
  303.009
  303.047
  303.063
  303.04
  302.971
  302.865
  302.743
  302.639
  302.612
  302.646
  302.7
  302.741
  302.766
  302.778
  302.782
  302.782
  302.781
  302.779
  302.777
  302.774
  302.77
  302.765
  302.757
  302.749
  302.739
  302.729
  302.714
  302.696
  302.679
  302.685
  302.714
  302.725
  302.761
  304.159
  303.155
  302.971
  302.895
  302.897
  302.927
  302.968
  303.01
  303.066
  303.096
  303.07
  302.992
  302.877
  302.743
  302.632
  302.606
  302.647
  302.713
  302.763
  302.787
  302.795
  302.797
  302.797
  302.796
  302.794
  302.792
  302.788
  302.783
  302.776
  302.767
  302.755
  302.743
  302.732
  302.718
  302.702
  302.686
  302.684
  302.693
  302.702
  302.732
  304.384
  303.635
  303.41
  303.214
  303.097
  303.049
  303.044
  303.065
  303.114
  303.122
  303.073
  302.976
  302.849
  302.71
  302.604
  302.597
  302.653
  302.733
  302.786
  302.803
  302.809
  302.81
  302.811
  302.81
  302.809
  302.807
  302.803
  302.798
  302.792
  302.783
  302.772
  302.757
  302.745
  302.734
  302.722
  302.711
  302.712
  302.729
  302.756
  302.914
  304.697
  304.375
  304.097
  303.825
  303.605
  303.449
  303.354
  303.304
  303.246
  303.149
  303.028
  302.896
  302.762
  302.631
  302.552
  302.589
  302.67
  302.762
  302.804
  302.817
  302.822
  302.824
  302.825
  302.826
  302.826
  302.825
  302.823
  302.82
  302.817
  302.815
  302.814
  302.818
  302.825
  302.839
  302.863
  302.896
  302.94
  302.981
  303.007
  303.068
  298.16
  300.815
  302.083
  302.546
  302.722
  302.779
  302.781
  302.757
  302.711
  302.65
  302.577
  302.5
  302.489
  302.606
  302.711
  302.795
  302.821
  302.83
  302.835
  302.838
  302.841
  302.843
  302.845
  302.848
  302.85
  302.852
  302.854
  302.858
  302.862
  302.867
  302.875
  302.889
  302.909
  302.936
  302.965
  302.99
  303.004
  303.017
  298.502
  300.757
  301.611
  302.057
  302.277
  302.372
  302.402
  302.416
  302.418
  302.41
  302.394
  302.376
  302.467
  302.688
  302.79
  302.824
  302.838
  302.845
  302.849
  302.853
  302.856
  302.86
  302.863
  302.866
  302.87
  302.873
  302.877
  302.881
  302.885
  302.89
  302.897
  302.907
  302.921
  302.939
  302.959
  302.978
  302.971
  302.999
  299.723
  299.669
  299.665
  301.067
  301.605
  302.023
  302.137
  302.194
  302.221
  302.237
  302.252
  302.266
  302.279
  302.301
  302.547
  302.832
  302.855
  302.863
  302.868
  302.872
  302.875
  302.877
  302.88
  302.882
  302.884
  302.887
  302.889
  302.891
  302.893
  302.896
  302.898
  302.902
  302.906
  302.911
  302.919
  302.933
  302.945
  302.95
  302.951
  302.988
)
;

boundaryField
{
  floor
  {
    type wallHeatTransfer;
    Tinf uniform 305.2;
    alphaWall uniform 0.24;
    value nonuniform List<scalar> 29
(
  302.941
  303.22
  303.16
  303.17
  303.183
  303.195
  303.207
  303.219
  303.231
  303.243
  303.253
  303.263
  303.273
  303.282
  303.291
  303.3
  303.31
  303.322
  303.331
  303.367
  303.367
  303.269
  303.212
  303.176
  302.941
  303.22
  303.083
  303.041
  302.981
)
;
  }
  ceiling
  {
    type wallHeatTransfer;
    Tinf uniform 303.2;
    alphaWall uniform 0.24;
    value nonuniform List<scalar> 43
(
  299.945
  299.886
  299.875
  301.188
  301.7
  302.099
  302.21
  302.268
  302.298
  302.318
  302.337
  302.354
  302.372
  302.4
  302.634
  302.892
  302.911
  302.918
  302.923
  302.926
  302.927
  302.929
  302.93
  302.931
  302.932
  302.932
  302.933
  302.934
  302.934
  302.935
  302.936
  302.937
  302.939
  302.943
  302.948
  302.96
  302.969
  302.975
  302.977
  303.011
  304.625
  304.327
  298.772
)
;
  }
  sWall
  {
    type wallHeatTransfer;
    Tinf uniform 315.2;
    alphaWall uniform 0.36;
    value uniform 301.165;
  }
  nWall
  {
    type wallHeatTransfer;
    Tinf uniform 307.2;
    alphaWall uniform 0.36;
    value nonuniform List<scalar> 6
(
  303.594
  303.544
  303.478
  303.617
  303.596
  303.641
)
;
  }
  sideWalls
  {
    type empty;
  }
  glass1
  {
    type wallHeatTransfer;
    Tinf uniform 315.2;
    alphaWall uniform 4.3;
    value nonuniform List<scalar> 9
(
  312.014
  311.297
  310.808
  310.404
  310.061
  309.76
  309.48
  309.508
  309.704
)
;
  }
  glass2
  {
    type wallHeatTransfer;
    Tinf uniform 307.2;
    alphaWall uniform 4.3;
    value nonuniform List<scalar> 2
(
  305.543
  305.665
)
;
  }
  sun
  {
    type wallHeatTransfer;
    Tinf uniform 305.2;
    alphaWall uniform 0.24;
    value nonuniform List<scalar> 14
(
  303.289
  303.022
  303.014
  303.005
  302.997
  302.991
  302.986
  302.98
  302.975
  302.97
  302.964
  302.957
  302.95
  302.944
)
;
  }
  heatsource1
  {
    type fixedGradient;
    gradient uniform 0;
  }
  heatsource2
  {
    type fixedGradient;
    gradient uniform 0;
  }
  Table_master
  {
    type zeroGradient;
  }
  Table_slave
  {
    type zeroGradient;
  }
  inlet
  {
    type fixedValue;
    value uniform 293.15;
  }
  outlet
  {
    type zeroGradient;
  }
} 	// ************************************************************************* //

