/*--------------------------------*- C++ -*----------------------------------*\
  =========                 |
  \\      /  F ield         | OpenFOAM: The Open Source CFD Toolbox
   \\    /   O peration     | Website:  https://openfoam.org
    \\  /    A nd           | Version:  6
     \\/     M anipulation  |
\*---------------------------------------------------------------------------*/
FoamFile
{
    version     2.0;
    format      ascii;
    class       volScalarField;
    location    "1100";
    object      alphat;
}
// * * * * * * * * * * * * * * * * * * * * * * * * * * * * * * * * * * * * * //

dimensions      [1 -1 -1 0 0 0 0];

internalField   nonuniform List<scalar> 
459
(
0.00122966
0.0013411
0.00136589
0.00143071
0.00149066
0.00154707
0.0016029
0.00165694
0.00169539
0.0017111
0.00169707
0.00164824
0.00156247
0.00144296
0.00130408
0.000535558
0.000640324
0.000722358
0.000727018
0.000705512
0.000675189
0.000633819
0.000591784
0.000553531
0.000519622
0.000489643
0.000463054
0.00043943
0.000418283
0.000398857
0.00038019
0.000360963
0.000349385
0.000320078
0.00167572
0.00396393
0.00374778
0.00434677
0.00493187
0.00552048
0.00603683
0.00643365
0.00680405
0.00711427
0.0073211
0.00737811
0.0072287
0.00673907
0.00535194
0.00132612
0.000804273
0.000560787
0.0011715
0.00163491
0.00198426
0.0021894
0.00220135
0.00175068
0.0015083
0.00133578
0.00120379
0.00109926
0.00101441
0.000941948
0.000874395
0.000808961
0.000750972
0.000699407
0.000830834
0.000428284
0.00204676
0.00537757
0.00456709
0.00570308
0.00622195
0.00659816
0.00689138
0.00714426
0.00743957
0.00776179
0.00807354
0.0083144
0.00842992
0.00833704
0.0077794
0.00598724
0.00135284
0.00106268
0.00153519
0.00198773
0.00242449
0.00274918
0.00271788
0.000901723
0.000798526
0.000714665
0.000646539
0.000590807
0.000544803
0.00050655
0.000474763
0.000448871
0.000484925
0.000559688
0.000936625
0.000501016
0.00240342
0.00688873
0.00450345
0.00596062
0.00635981
0.00645302
0.00652421
0.00666076
0.0069045
0.00723648
0.00762453
0.00798182
0.00825074
0.00836158
0.00824853
0.00762212
0.00519343
0.0015866
0.00190245
0.00242112
0.00298287
0.00348077
0.00382558
0.00364834
0.00102029
0.000934706
0.000873988
0.000827992
0.000788717
0.000751652
0.000715915
0.000678091
0.000633845
0.000595608
0.000601387
0.00108684
0.000558509
0.00276702
0.00886234
0.00486767
0.00567497
0.00623081
0.00617449
0.00610882
0.00620475
0.0064345
0.00677202
0.00720252
0.00759835
0.00787914
0.00799047
0.00793057
0.00767369
0.00702664
0.0059381
0.00556502
0.00549844
0.00554625
0.00560873
0.00562089
0.0054551
0.00465461
0.00427062
0.00404982
0.00387784
0.00369313
0.00342681
0.00305181
0.00258723
0.00206613
0.00154488
0.00114013
0.00111623
0.000761086
0.000689611
0.000831413
0.000933719
0.00315306
0.0110258
0.00670612
0.00546308
0.00599662
0.00617125
0.00599487
0.00609352
0.00628749
0.00660318
0.00701827
0.00743114
0.00771314
0.00778217
0.00764829
0.00740578
0.00716701
0.00700765
0.00700827
0.00703882
0.00701359
0.00692027
0.00676075
0.00652032
0.00615353
0.00582365
0.00553078
0.0052499
0.00496512
0.0046615
0.00427221
0.00377681
0.00317338
0.0024977
0.00188544
0.00138197
0.00105731
0.000901074
0.00128034
0.000976478
0.00351587
0.012588
0.00963844
0.00693098
0.0064416
0.00650341
0.0063578
0.00627315
0.00636298
0.00665904
0.0070948
0.00752836
0.00779945
0.00781262
0.00759726
0.00732301
0.00722588
0.007401
0.00764946
0.00774159
0.00763454
0.00738071
0.00703014
0.00662147
0.00619513
0.00581024
0.00546781
0.00515482
0.00486755
0.00461073
0.00438344
0.00406928
0.00360868
0.00303326
0.00246673
0.00193773
0.00156294
0.00145122
0.00148295
0.0011179
0.00359252
0.0114279
0.00990748
0.00876127
0.00804104
0.0073171
0.00668092
0.00639747
0.00649727
0.00689234
0.00741861
0.00787705
0.00808784
0.00798069
0.00764908
0.00736633
0.00741551
0.00773865
0.00789599
0.00774438
0.00736957
0.00686222
0.0063037
0.00576969
0.00531387
0.00494773
0.00465004
0.00440478
0.00421002
0.00407231
0.00400079
0.0039721
0.00375085
0.00338543
0.00305477
0.0028857
0.00300945
0.00347442
0.00424561
0.00173512
0.00350279
0.00418826
0.0047381
0.00491909
0.00494437
0.00504181
0.00534754
0.00589449
0.00664086
0.00744391
0.00811402
0.00848126
0.00842691
0.00800548
0.00750525
0.00738064
0.00743556
0.00743623
0.00720293
0.0067331
0.00612105
0.00547522
0.00489043
0.00441968
0.00406502
0.00379739
0.00358525
0.00340841
0.00325458
0.00311385
0.00297732
0.00284442
0.0027371
0.00265689
0.00262542
0.00263417
0.00261333
0.00250088
0.00233241
0.00162303
0.00218088
0.00385049
0.00525028
0.00641255
0.007354
0.00820201
0.00889044
0.00926066
0.0092465
0.00885897
0.00815017
0.00730833
0.00675981
0.00655935
0.00635677
0.00598967
0.00546364
0.0048591
0.00426337
0.00375659
0.00337315
0.00310056
0.00290897
0.00277111
0.00266933
0.00259407
0.00254061
0.00250726
0.00249731
0.00251384
0.00254093
0.00257495
0.00260684
0.00260749
0.00253029
0.00236085
0.0021166
0.00133124
0.00252553
0.00533012
0.00722206
0.00811847
0.00870927
0.00910624
0.0091599
0.0086263
0.0077505
0.00677825
0.00594502
0.00533759
0.00493285
0.00458236
0.00416219
0.00369427
0.00324286
0.00286277
0.00257917
0.00238123
0.00224658
0.00215862
0.00211022
0.00209206
0.00209853
0.00212596
0.0021709
0.00222852
0.00230549
0.00239858
0.00250478
0.0026166
0.00271622
0.00278208
0.00276017
0.00277575
0.0027415
0.0013535
0.00215611
0.00227114
0.00235619
0.00242314
0.00218855
0.00200088
0.00190727
0.00182189
0.00169823
0.00154846
0.00137259
0.00119559
0.00103747
0.000912097
0.00082201
0.000759529
0.000715852
0.00068581
0.000667071
0.00065834
0.000658242
0.000665245
0.000678265
0.000696521
0.000718874
0.000745259
0.000775828
0.000810948
0.00085132
0.000898234
0.000950996
0.00100978
0.0010753
0.00114825
0.00122845
0.00132484
0.00135593
0.00132169
0.00123773
0.00114856
)
;

boundaryField
{
    floor
    {
        type            compressible::alphatWallFunction;
        Prt             0.85;
        value           nonuniform List<scalar> 
29
(
0.000184442
7.46635e-05
9.03891e-05
0.000102481
0.000103163
0.000100012
9.55498e-05
8.94221e-05
8.31456e-05
7.73859e-05
7.22389e-05
6.76535e-05
6.35569e-05
5.98922e-05
5.65905e-05
5.35384e-05
5.05877e-05
4.75287e-05
4.56768e-05
4.09521e-05
4.09515e-05
5.81552e-05
6.93979e-05
7.81394e-05
0.00018444
7.46626e-05
7.84822e-05
0.000151091
0.000222597
)
;
    }
    ceiling
    {
        type            compressible::alphatWallFunction;
        Prt             0.85;
        value           nonuniform List<scalar> 
43
(
0.000297267
0.000312085
0.000322993
0.000331665
0.00030162
0.000277318
0.000265107
0.000253909
0.000237579
0.000217619
0.0001939
0.000169677
0.000147688
0.000129977
0.000117073
0.000108026
0.000101648
9.72347e-05
9.44701e-05
9.31789e-05
9.31646e-05
9.42011e-05
9.61244e-05
9.88132e-05
0.000102094
0.00010595
0.000110398
0.000115482
0.000121293
0.000128006
0.000135506
0.000143804
0.000152989
0.000163139
0.000174212
0.000187413
0.000191648
0.000186984
0.00017549
0.000163186
0.000466913
0.000550295
0.000344461
)
;
    }
    sWall
    {
        type            compressible::alphatWallFunction;
        Prt             0.85;
        value           uniform 0.000296047;
    }
    nWall
    {
        type            compressible::alphatWallFunction;
        Prt             0.85;
        value           nonuniform List<scalar> 6(0.00013273 0.000138778 0.000158583 0.000187956 0.000190985 0.000162859);
    }
    sideWalls
    {
        type            empty;
    }
    glass1
    {
        type            compressible::alphatWallFunction;
        Prt             0.85;
        value           nonuniform List<scalar> 9(0.000169959 0.000229373 0.000277584 0.000323127 0.000368885 0.000416827 0.000461375 0.000470855 0.000460134);
    }
    glass2
    {
        type            compressible::alphatWallFunction;
        Prt             0.85;
        value           nonuniform List<scalar> 2(0.000240704 0.000225948);
    }
    sun
    {
        type            compressible::alphatWallFunction;
        Prt             0.85;
        value           nonuniform List<scalar> 
14
(
0.000174262
0.000189495
0.000192867
0.000201651
0.000209737
0.000217311
0.000224777
0.000231978
0.000237084
0.000239166
0.000237306
0.000230817
0.000219371
0.000203303
)
;
    }
    heatsource1
    {
        type            compressible::alphatWallFunction;
        Prt             0.85;
        value           nonuniform List<scalar> 3(9.77893e-05 0.000118424 0.000133048);
    }
    heatsource2
    {
        type            compressible::alphatWallFunction;
        Prt             0.85;
        value           nonuniform List<scalar> 4(0.000187579 0.000114508 0.000114507 0.000191215);
    }
    Table_master
    {
        type            compressible::alphatWallFunction;
        Prt             0.85;
        value           nonuniform List<scalar> 9(0.000128491 0.000113675 0.000101467 9.1421e-05 8.31067e-05 7.61706e-05 7.03476e-05 6.54666e-05 6.14602e-05);
    }
    Table_slave
    {
        type            compressible::alphatWallFunction;
        Prt             0.85;
        value           nonuniform List<scalar> 9(0.000145274 0.000133187 0.000124533 0.000117931 0.000112258 0.000106874 0.000101652 9.60913e-05 8.95378e-05);
    }
    inlet
    {
        type            fixedValue;
        value           uniform 1.94e-05;
    }
    outlet
    {
        type            zeroGradient;
    }
}


// ************************************************************************* //
