// -*- C++ -*-
// File generated by PyFoam - sorry for the ugliness

FoamFile
{
 version 2.0;
 format ascii;
 class volVectorField;
 location "800";
 object U;
}

dimensions [ 0 1 -1 0 0 0 0 ];

internalField nonuniform List<vector> 459
(
  (0.0201294 0.0897667 0)
  (-0.177422 0.0280603 0)
  (-0.208074 0.0152723 0)
  (-0.236637 0.00543787 0)
  (-0.249653 -0.00513416 0)
  (-0.244382 -0.0163373 0)
  (-0.220559 -0.0281652 0)
  (-0.180512 -0.0386804 0)
  (-0.129698 -0.0456595 0)
  (-0.0756134 -0.0480137 0)
  (-0.0253735 -0.0448844 0)
  (0.0233455 -0.0284084 0)
  (0.0438445 -0.0136337 0)
  (0.049814 0.00365476 0)
  (0.0358188 0.0325784 0)
  (-0.0217023 0.0140978 0)
  (-0.043424 -0.0129018 0)
  (-0.0211786 -0.0271085 0)
  (0.0039357 -0.0280603 0)
  (0.0283291 -0.0217938 0)
  (0.0477907 -0.0154298 0)
  (0.0612675 -0.00896229 0)
  (0.0690881 -0.0054229 0)
  (0.0728216 -0.00404058 0)
  (0.0746856 -0.00345907 0)
  (0.0759311 -0.00307953 0)
  (0.0768315 -0.00275939 0)
  (0.0773082 -0.0024095 0)
  (0.0770747 -0.00181106 0)
  (0.075452 -0.000531148 0)
  (0.0710133 0.00205223 0)
  (0.0621187 0.0053104 0)
  (0.0493397 0.0096657 0)
  (0.00563551 0.0245669 0)
  (0.188028 0.184799 0)
  (-0.160274 0.0779359 0)
  (-0.167084 0.0545176 0)
  (-0.197205 0.0338219 0)
  (-0.211114 0.00991733 0)
  (-0.207079 -0.0170667 0)
  (-0.185191 -0.0445469 0)
  (-0.149116 -0.0669298 0)
  (-0.105035 -0.0794624 0)
  (-0.0597068 -0.0810529 0)
  (-0.0190169 -0.0718456 0)
  (0.0171234 -0.0487615 0)
  (0.0393185 -0.0231992 0)
  (0.0548182 0.00453128 0)
  (0.0624545 0.0340146 0)
  (0.0654998 0.0366847 0)
  (0.0448699 0.0408133 0)
  (0.0363464 0.0450239 0)
  (0.00696018 -0.0169494 0)
  (0.0261572 -0.0387785 0)
  (0.0401336 -0.0390378 0)
  (0.0533748 -0.032137 0)
  (0.0645248 -0.0229408 0)
  (0.0700672 -0.0105647 0)
  (0.0715544 -0.00312801 0)
  (0.0716382 -0.000245214 0)
  (0.0718408 0.000854394 0)
  (0.0721998 0.00145515 0)
  (0.0724766 0.0019075 0)
  (0.0726189 0.00249294 0)
  (0.0725505 0.00363105 0)
  (0.0716985 0.00629206 0)
  (0.067474 0.01321 0)
  (0.0570538 0.0199922 0)
  (0.0460186 0.0272826 0)
  (-0.0276559 0.051236 0)
  (0.342457 0.276024 0)
  (-0.169575 0.121872 0)
  (-0.126207 0.0872141 0)
  (-0.155964 0.0521429 0)
  (-0.169034 0.0126121 0)
  (-0.163652 -0.0311619 0)
  (-0.140861 -0.0742331 0)
  (-0.106889 -0.106827 0)
  (-0.0689826 -0.122159 0)
  (-0.0322372 -0.120438 0)
  (-0.000335824 -0.103219 0)
  (0.0255063 -0.0739087 0)
  (0.0448388 -0.0412286 0)
  (0.0591859 -0.0080407 0)
  (0.0680799 0.022927 0)
  (0.0679384 0.0423121 0)
  (0.0583123 0.0768497 0)
  (0.0997789 -0.00090985 0)
  (0.0731664 -0.0335347 0)
  (0.0715068 -0.0467798 0)
  (0.0745114 -0.0468572 0)
  (0.0776644 -0.0400939 0)
  (0.0814287 -0.0324563 0)
  (0.0809429 -0.0247225 0)
  (0.0724632 -0.0162171 0)
  (0.0659293 -0.0116096 0)
  (0.0629504 -0.00901735 0)
  (0.0615849 -0.00735426 0)
  (0.0606722 -0.00621091 0)
  (0.0600973 -0.00528484 0)
  (0.0605134 -0.00399857 0)
  (0.0633879 -5.5385e-05 0)
  (0.0614665 0.0184109 0)
  (0.0487606 0.0319898 0)
  (0.0451951 0.0440765 0)
  (-0.0606729 0.0777204 0)
  (0.483631 0.349228 0)
  (-0.196934 0.159924 0)
  (-0.0835979 0.11625 0)
  (-0.112021 0.0693632 0)
  (-0.121055 0.0156682 0)
  (-0.108613 -0.0454832 0)
  (-0.0825611 -0.103386 0)
  (-0.0513663 -0.143127 0)
  (-0.021899 -0.158163 0)
  (0.00483892 -0.151611 0)
  (0.0258029 -0.128271 0)
  (0.0426462 -0.0945602 0)
  (0.0563263 -0.0569397 0)
  (0.067569 -0.0197708 0)
  (0.0779811 0.0143889 0)
  (0.0899651 0.0423707 0)
  (0.107818 0.075396 0)
  (0.138298 0.0673618 0)
  (0.130346 0.00913105 0)
  (0.11526 -0.0240787 0)
  (0.104354 -0.0387271 0)
  (0.0954727 -0.0414715 0)
  (0.0877791 -0.0369286 0)
  (0.0812398 -0.0281194 0)
  (0.0804884 -0.016273 0)
  (0.0867579 -0.0102386 0)
  (0.090737 -0.00685194 0)
  (0.0910297 -0.00464205 0)
  (0.0890195 -0.00279172 0)
  (0.0853147 -0.000949934 0)
  (0.0794343 0.00120207 0)
  (0.0702036 0.00414451 0)
  (0.0540342 0.0086948 0)
  (0.0421436 0.0295225 0)
  (0.0328657 0.0460525 0)
  (0.0453339 0.0609712 0)
  (-0.0951086 0.099175 0)
  (0.608239 0.405316 0)
  (-0.234108 0.189728 0)
  (-0.0414327 0.134134 0)
  (-0.0657631 0.0802279 0)
  (-0.0660277 0.0148497 0)
  (-0.0369008 -0.0650488 0)
  (-0.00852138 -0.132012 0)
  (0.0165047 -0.17207 0)
  (0.0339266 -0.181551 0)
  (0.0468323 -0.169941 0)
  (0.0557153 -0.14281 0)
  (0.0619978 -0.106143 0)
  (0.06689 -0.0663675 0)
  (0.0717047 -0.028497 0)
  (0.0785272 0.00434822 0)
  (0.0882278 0.028744 0)
  (0.1039 0.0401514 0)
  (0.115808 0.0139999 0)
  (0.114499 -0.0120015 0)
  (0.106846 -0.0255449 0)
  (0.0962749 -0.0314607 0)
  (0.0850857 -0.0320246 0)
  (0.0747473 -0.0281448 0)
  (0.0663807 -0.0204836 0)
  (0.0621201 -0.0090724 0)
  (0.0615943 -0.0022456 0)
  (0.0610553 0.00106049 0)
  (0.0596356 0.00308721 0)
  (0.0579857 0.00503471 0)
  (0.0560587 0.00750453 0)
  (0.0533793 0.0109877 0)
  (0.0494046 0.0160394 0)
  (0.0430372 0.0234122 0)
  (0.0366037 0.0378591 0)
  (0.029306 0.0546873 0)
  (0.0531109 0.0742395 0)
  (-0.0203951 0.107696 0)
  (0.0455395 0.0343421 0)
  (-0.0592649 -0.0331563 0)
  (-0.265503 -0.0550814 0)
  (0.703076 0.450651 0)
  (-0.273329 0.20789 0)
  (-0.00632209 0.131342 0)
  (-0.0141683 0.0795467 0)
  (0.0149334 -0.00613714 0)
  (0.0524727 -0.0949459 0)
  (0.076771 -0.155823 0)
  (0.0897449 -0.186517 0)
  (0.0934528 -0.190474 0)
  (0.0909475 -0.174122 0)
  (0.0847389 -0.143905 0)
  (0.0771283 -0.105804 0)
  (0.0701362 -0.0660195 0)
  (0.0654131 -0.0297879 0)
  (0.0644337 -0.000574647 0)
  (0.0677922 0.0188615 0)
  (0.0765209 0.024735 0)
  (0.0830143 0.0121922 0)
  (0.0824305 -0.00217477 0)
  (0.0759817 -0.0129926 0)
  (0.0663698 -0.0191249 0)
  (0.0559927 -0.0206995 0)
  (0.0462104 -0.0183932 0)
  (0.0380964 -0.013042 0)
  (0.0328325 -0.00589403 0)
  (0.0304374 -0.00113114 0)
  (0.0293128 0.00128719 0)
  (0.0290693 0.00277797 0)
  (0.0294633 0.00447615 0)
  (0.0303358 0.00714068 0)
  (0.0314341 0.0113581 0)
  (0.0325932 0.0176438 0)
  (0.0334896 0.0263907 0)
  (0.035211 0.0387388 0)
  (0.0360484 0.0540857 0)
  (0.0614353 0.0750437 0)
  (0.0449485 0.0956727 0)
  (0.0881964 0.0656849 0)
  (0.112322 0.0430878 0)
  (-0.127267 -0.0063891 0)
  (0.770076 0.49121 0)
  (-0.293086 0.18959 0)
  (0.0314348 0.0730366 0)
  (0.0623367 0.0306592 0)
  (0.120065 -0.0536813 0)
  (0.15442 -0.126302 0)
  (0.168739 -0.171439 0)
  (0.166356 -0.188843 0)
  (0.151489 -0.183168 0)
  (0.129102 -0.160889 0)
  (0.103984 -0.128424 0)
  (0.0796306 -0.0907263 0)
  (0.0588942 -0.0532033 0)
  (0.0435311 -0.0207534 0)
  (0.03408 0.00325643 0)
  (0.0330078 0.0166582 0)
  (0.0374032 0.0195666 0)
  (0.0408697 0.0121698 0)
  (0.0397699 0.00214981 0)
  (0.0351856 -0.0059513 0)
  (0.0276255 -0.0105274 0)
  (0.0190456 -0.0116975 0)
  (0.0107569 -0.010122 0)
  (0.00386353 -0.00663374 0)
  (-0.00063842 -0.00242945 0)
  (-0.00258175 0.000262985 0)
  (-0.00258508 0.0013137 0)
  (-0.00132219 0.00173709 0)
  (0.00108367 0.00257592 0)
  (0.00457985 0.00458403 0)
  (0.00916958 0.00828057 0)
  (0.0149184 0.0140008 0)
  (0.0217849 0.0219406 0)
  (0.0306727 0.0320916 0)
  (0.0399785 0.0438568 0)
  (0.0636242 0.0603148 0)
  (0.078196 0.0692709 0)
  (0.112062 0.0473708 0)
  (0.152528 0.0402653 0)
  (-0.0358145 0.0890255 0)
  (0.879865 0.485289 0)
  (-0.039267 0.164808 0)
  (0.12555 -0.0170385 0)
  (0.229395 -0.0860204 0)
  (0.27261 -0.125682 0)
  (0.280487 -0.155719 0)
  (0.266502 -0.171056 0)
  (0.235596 -0.169462 0)
  (0.1932 -0.153018 0)
  (0.145638 -0.126086 0)
  (0.0992374 -0.0938628 0)
  (0.0577426 -0.0595807 0)
  (0.0250173 -0.027692 0)
  (0.00220909 -0.00281467 0)
  (-0.00840701 0.0110829 0)
  (-0.00915321 0.016598 0)
  (-0.00624029 0.0166001 0)
  (-0.00398369 0.0114565 0)
  (-0.00492093 0.00471639 0)
  (-0.00851208 -0.000672719 0)
  (-0.0140725 -0.00361683 0)
  (-0.0205892 -0.00434559 0)
  (-0.0267533 -0.00349686 0)
  (-0.0316603 -0.00179919 0)
  (-0.034732 -0.000171626 0)
  (-0.0357802 0.000420102 0)
  (-0.0353851 3.54027e-06 0)
  (-0.0341795 -0.000899734 0)
  (-0.0319644 -0.00169816 0)
  (-0.028366 -0.00178029 0)
  (-0.0228464 -0.000610291 0)
  (-0.0154809 0.00202132 0)
  (-0.00676039 0.00594629 0)
  (0.00565002 0.0109017 0)
  (0.0179983 0.0154098 0)
  (0.0374374 0.0217966 0)
  (0.0557523 0.0170979 0)
  (0.074349 -0.00688315 0)
  (0.132557 0.0398697 0)
  (-0.412254 0.199842 0)
  (1.03362 0.427719 0)
  (0.496201 0.281059 0)
  (0.508058 0.16862 0)
  (0.527019 0.0648992 0)
  (0.48036 -0.0163002 0)
  (0.409771 -0.0717251 0)
  (0.334499 -0.0994913 0)
  (0.257679 -0.103759 0)
  (0.181738 -0.0910436 0)
  (0.110213 -0.0681251 0)
  (0.0484759 -0.0413723 0)
  (-0.00375453 -0.0138915 0)
  (-0.035639 0.00387729 0)
  (-0.0487317 0.0115264 0)
  (-0.0523362 0.0146621 0)
  (-0.0515458 0.0154328 0)
  (-0.0491755 0.0142598 0)
  (-0.0476332 0.011054 0)
  (-0.0482896 0.00711277 0)
  (-0.0509947 0.00380181 0)
  (-0.0548924 0.00176021 0)
  (-0.0591679 0.000861687 0)
  (-0.0632044 0.000690213 0)
  (-0.0664527 0.000754229 0)
  (-0.068662 0.000558096 0)
  (-0.0702837 -0.000202774 0)
  (-0.0719089 -0.00135579 0)
  (-0.0739906 -0.00246158 0)
  (-0.0771346 -0.00296813 0)
  (-0.081772 -0.00220607 0)
  (-0.0881792 0.000491313 0)
  (-0.0963592 0.00561947 0)
  (-0.107167 0.0135479 0)
  (-0.122913 0.0247532 0)
  (-0.146571 0.0392804 0)
  (-0.180133 0.0559587 0)
  (-0.226768 0.0708658 0)
  (-0.28066 0.0806187 0)
  (-0.345652 0.0850807 0)
  (-0.59488 0.0849519 0)
  (-0.0750921 0.0435979 0)
  (0.103471 -0.0268789 0)
  (0.171319 -0.0777509 0)
  (0.144469 -0.0782231 0)
  (0.105244 -0.0626517 0)
  (0.0601948 -0.042997 0)
  (0.0102666 -0.0202526 0)
  (-0.040072 0.000670006 0)
  (-0.0711455 0.0114864 0)
  (-0.087687 0.0161011 0)
  (-0.0933911 0.0166788 0)
  (-0.0944081 0.0162457 0)
  (-0.0930655 0.0158688 0)
  (-0.0906683 0.0154965 0)
  (-0.0882253 0.01482 0)
  (-0.086773 0.0136001 0)
  (-0.086878 0.0122424 0)
  (-0.088381 0.0113163 0)
  (-0.090705 0.011155 0)
  (-0.0932384 0.0117156 0)
  (-0.0955503 0.0127164 0)
  (-0.0974487 0.0138176 0)
  (-0.0989977 0.0147165 0)
  (-0.100483 0.0152007 0)
  (-0.102201 0.0152197 0)
  (-0.10432 0.0148931 0)
  (-0.106891 0.0145479 0)
  (-0.10985 0.0147697 0)
  (-0.113065 0.0164217 0)
  (-0.116338 0.0205689 0)
  (-0.119484 0.0282982 0)
  (-0.122472 0.0403285 0)
  (-0.125488 0.0562024 0)
  (-0.128458 0.0730034 0)
  (-0.128393 0.0824759 0)
  (-0.107982 0.0660091 0)
  (-0.0464565 -0.015527 0)
  (-0.258095 -0.194987 0)
  (0.0695114 0.190305 0)
  (0.0349036 0.0366435 0)
  (0.000435232 -0.0248973 0)
  (-0.0453845 -0.0249666 0)
  (-0.0850817 -0.013792 0)
  (-0.115496 -0.00546209 0)
  (-0.134459 0.000111847 0)
  (-0.141437 0.0016881 0)
  (-0.142714 0.000247139 0)
  (-0.140406 -0.00195112 0)
  (-0.136267 -0.00462003 0)
  (-0.13174 -0.00717236 0)
  (-0.127226 -0.00929805 0)
  (-0.122887 -0.0112601 0)
  (-0.118973 -0.0135976 0)
  (-0.115866 -0.0167651 0)
  (-0.113821 -0.0207899 0)
  (-0.112787 -0.0253828 0)
  (-0.112484 -0.0301313 0)
  (-0.112572 -0.0346721 0)
  (-0.112788 -0.0387597 0)
  (-0.112999 -0.0422305 0)
  (-0.113193 -0.0449268 0)
  (-0.11342 -0.0466151 0)
  (-0.113701 -0.0469206 0)
  (-0.113963 -0.0453851 0)
  (-0.114 -0.0416094 0)
  (-0.113432 -0.0353525 0)
  (-0.111653 -0.0265299 0)
  (-0.107755 -0.0150756 0)
  (-0.10059 -0.000766481 0)
  (-0.0891024 0.0165999 0)
  (-0.072724 0.0360329 0)
  (-0.0516605 0.052872 0)
  (-0.0297016 0.0610906 0)
  (0.0138239 0.0390389 0)
  (0.141841 -0.0249764 0)
  (-0.192256 -0.0989779 0)
  (-0.0774196 -0.334106 0)
  (-0.426796 -0.123078 0)
  (-0.30511 0.0770163 0)
  (-0.275787 0.00890874 0)
  (-0.23877 0.0147546 0)
  (-0.234739 0.0267875 0)
  (-0.23267 0.03566 0)
  (-0.227496 0.043512 0)
  (-0.218715 0.0507786 0)
  (-0.207508 0.0567682 0)
  (-0.195964 0.0615314 0)
  (-0.18521 0.0657224 0)
  (-0.175739 0.0696924 0)
  (-0.167456 0.0738027 0)
  (-0.159902 0.0783252 0)
  (-0.152672 0.0834979 0)
  (-0.145598 0.089521 0)
  (-0.138767 0.0964642 0)
  (-0.13236 0.10418 0)
  (-0.126496 0.112289 0)
  (-0.121195 0.12028 0)
  (-0.116398 0.127665 0)
  (-0.112018 0.134093 0)
  (-0.107978 0.139331 0)
  (-0.104234 0.143175 0)
  (-0.100775 0.145349 0)
  (-0.0975869 0.145493 0)
  (-0.0945963 0.143278 0)
  (-0.0916036 0.138585 0)
  (-0.0881748 0.131682 0)
  (-0.0834238 0.123312 0)
  (-0.0757561 0.114672 0)
  (-0.0630578 0.107326 0)
  (-0.0440717 0.103036 0)
  (-0.020435 0.103032 0)
  (0.022614 0.103906 0)
  (0.0552508 0.10195 0)
  (0.088741 0.0951245 0)
  (0.157534 0.0771008 0)
  (-0.267414 0.0452012 0)
)
;

boundaryField
{
  floor
  {
    type noSlip;
  }
  ceiling
  {
    type noSlip;
  }
  sWall
  {
    type noSlip;
  }
  nWall
  {
    type noSlip;
  }
  sideWalls
  {
    type empty;
  }
  glass1
  {
    type noSlip;
  }
  glass2
  {
    type noSlip;
  }
  sun
  {
    type noSlip;
  }
  heatsource1
  {
    type noSlip;
  }
  heatsource2
  {
    type noSlip;
  }
  Table_master
  {
    type noSlip;
  }
  Table_slave
  {
    type noSlip;
  }
  inlet
  {
    type fixedValue;
    value uniform (0.3 0 0);
  }
  outlet
  {
    type zeroGradient;
  }
} 	// ************************************************************************* //

