/*--------------------------------*- C++ -*----------------------------------*\
  =========                 |
  \\      /  F ield         | OpenFOAM: The Open Source CFD Toolbox
   \\    /   O peration     | Website:  https://openfoam.org
    \\  /    A nd           | Version:  6
     \\/     M anipulation  |
\*---------------------------------------------------------------------------*/
FoamFile
{
    version     2.0;
    format      ascii;
    class       volScalarField;
    location    "100";
    object      alphat;
}
// * * * * * * * * * * * * * * * * * * * * * * * * * * * * * * * * * * * * * //

dimensions      [1 -1 -1 0 0 0 0];

internalField   nonuniform List<scalar> 
459
(
0.00160133
0.00179269
0.00187703
0.00199928
0.00213389
0.00225518
0.00233759
0.00236876
0.00226377
0.00213386
0.00199199
0.00183678
0.00168438
0.00153382
0.00136403
0.000819851
0.000966891
0.0011293
0.00124836
0.00129038
0.00126834
0.00118841
0.00110268
0.00102702
0.00096251
0.000907509
0.000860369
0.000819452
0.00078343
0.000750907
0.000719754
0.000686973
0.000647988
0.000590973
0.00203801
0.00558482
0.0057222
0.00664506
0.0073931
0.0079718
0.00842993
0.00883172
0.00902641
0.00874883
0.00821947
0.0075088
0.00639068
0.00493818
0.00326265
0.00151538
0.00129388
0.00079593
0.00207471
0.00355955
0.00466259
0.0053311
0.00520023
0.00348919
0.00285313
0.00245645
0.00217932
0.00197606
0.00182189
0.00170334
0.00159939
0.00147864
0.00135313
0.00123152
0.00112439
0.000632314
0.00240117
0.00774098
0.00723006
0.00791782
0.00825679
0.00846888
0.00874775
0.00930691
0.00985647
0.0100142
0.00982601
0.00938724
0.00862485
0.00737751
0.00566175
0.00358343
0.00143198
0.000805244
0.00212101
0.00368075
0.00538123
0.00657191
0.00621299
0.00158346
0.00137603
0.00120801
0.00107409
0.000967271
0.000881516
0.000812193
0.000757429
0.000719671
0.000840877
0.0010085
0.00116349
0.000647083
0.00274962
0.00962493
0.0079631
0.00840957
0.00830503
0.00808585
0.00819569
0.00886631
0.00958895
0.0100119
0.0100625
0.00984499
0.00939498
0.00858678
0.00731186
0.00549259
0.00296038
0.0015463
0.00172106
0.00286552
0.00483972
0.00688837
0.00826184
0.00772303
0.00179719
0.00163902
0.00151319
0.00140857
0.00131388
0.00122286
0.00113157
0.00103656
0.000931546
0.000867437
0.000933049
0.00115842
0.000657809
0.00310296
0.0118467
0.00933422
0.00929157
0.00858538
0.00786663
0.00791457
0.0086238
0.00946724
0.0100186
0.0101698
0.0100438
0.00975217
0.00929566
0.00854579
0.00740905
0.00590444
0.00545148
0.00637236
0.00783738
0.0093999
0.0106427
0.0113207
0.0111256
0.00913166
0.00795979
0.0070967
0.00624004
0.00539493
0.00456401
0.00374518
0.00293663
0.00214474
0.00148303
0.00116057
0.00118708
0.000782092
0.000638074
0.000650018
0.000763735
0.00346474
0.0142033
0.0120587
0.0106535
0.0088404
0.00780663
0.00786266
0.00868241
0.00964973
0.0102928
0.0105072
0.0104858
0.0104335
0.010376
0.0101956
0.00987799
0.00959272
0.010136
0.0114666
0.0126445
0.0134721
0.0138629
0.0138115
0.0133037
0.0122592
0.0111105
0.00985647
0.00858962
0.00734251
0.00613096
0.00496111
0.00384067
0.00279635
0.00193439
0.00144788
0.00130213
0.000980448
0.000841276
0.00111413
0.000811292
0.00373139
0.0153917
0.0143735
0.0110807
0.00861663
0.0076035
0.0079098
0.00898719
0.010127
0.0108664
0.0112055
0.0115156
0.0120092
0.0123514
0.0125618
0.0127914
0.0132299
0.014123
0.0151204
0.0156938
0.0158283
0.0155669
0.0149752
0.0141137
0.0130125
0.0117477
0.0103696
0.00898912
0.00764357
0.00635849
0.00515334
0.00404668
0.00305091
0.00221736
0.00175702
0.00156158
0.00131237
0.00120882
0.00119381
0.000874012
0.00375583
0.0121904
0.0111045
0.00865461
0.0071617
0.0070666
0.00808367
0.00960219
0.0109079
0.0117341
0.0123924
0.0133088
0.0139163
0.0142467
0.0145671
0.0150027
0.0155883
0.0162601
0.0167216
0.0167436
0.0163434
0.0156107
0.0146297
0.0134723
0.0122104
0.0109008
0.00956456
0.00824142
0.00696797
0.00577891
0.00470602
0.0037752
0.00300175
0.00240546
0.00203978
0.0019315
0.00188668
0.00187327
0.00252888
0.0012212
0.00363134
0.00420432
0.00442462
0.00444809
0.00515546
0.0068003
0.00890526
0.0107825
0.0119061
0.0129616
0.0137456
0.0143519
0.01463
0.0148663
0.0151963
0.01561
0.0160198
0.0162716
0.0162004
0.0157409
0.0149425
0.0138938
0.0126979
0.0114515
0.0102129
0.00900369
0.00781823
0.00665719
0.00553235
0.00445923
0.0034549
0.0025665
0.00191702
0.00161152
0.00157313
0.00164664
0.00172975
0.0017712
0.00172938
0.00125626
0.0012215
0.00333164
0.00758663
0.0104733
0.012053
0.0128484
0.0128706
0.0131109
0.0133163
0.0133845
0.0134812
0.0136798
0.0139388
0.0141635
0.0142353
0.0140342
0.0135026
0.0126744
0.0116502
0.010545
0.00945478
0.00843557
0.0074971
0.00661828
0.00577318
0.00495086
0.00415729
0.00341191
0.00274735
0.00220917
0.00184466
0.00167186
0.00165517
0.00172351
0.00180163
0.00183096
0.0017744
0.0012909
0.00227129
0.00933481
0.0117162
0.0120777
0.0116689
0.0110713
0.0105417
0.0101644
0.00992476
0.00984236
0.00989574
0.0100207
0.0101453
0.0101946
0.0100964
0.00980058
0.00931077
0.00868684
0.00801339
0.00736097
0.00676656
0.00623456
0.00575066
0.0052967
0.00485941
0.00443269
0.00401606
0.00361336
0.00323252
0.00288516
0.00258451
0.00234274
0.00216802
0.00205736
0.00198831
0.00198906
0.00257932
0.00140516
0.00215432
0.00230277
0.002417
0.0026657
0.00244167
0.00226929
0.00211776
0.00198153
0.00188364
0.00183077
0.00180725
0.00180081
0.00180213
0.00180388
0.00180022
0.00178653
0.00175988
0.0017202
0.00167106
0.00161812
0.00156658
0.0015193
0.00147666
0.00143745
0.00139983
0.00136218
0.00132356
0.00128389
0.00124396
0.00120527
0.00116984
0.00113989
0.00111773
0.00110564
0.00110533
0.00111624
0.00113286
0.00114548
0.00116022
0.00116213
)
;

boundaryField
{
    floor
    {
        type            compressible::alphatWallFunction;
        Prt             0.85;
        value           nonuniform List<scalar> 
29
(
0.000192612
0.000116698
0.000137685
0.000160438
0.000176879
0.000182639
0.000179626
0.000168635
0.00015675
0.000146174
0.000137085
0.000129278
0.000122544
0.000116663
0.000111456
0.00010673
0.000102181
9.73677e-05
9.16068e-05
8.31052e-05
8.31042e-05
8.92791e-05
9.14722e-05
9.30617e-05
0.00019261
0.000116697
0.00011324
0.000114582
0.000217227
)
;
    }
    ceiling
    {
        type            compressible::alphatWallFunction;
        Prt             0.85;
        value           nonuniform List<scalar> 
43
(
0.000297156
0.000316269
0.000330889
0.000362605
0.000334235
0.000312195
0.000292656
0.00027496
0.000262164
0.000255226
0.000252133
0.000251288
0.000251465
0.000251698
0.000251219
0.000249414
0.000245895
0.000240645
0.000234123
0.000227074
0.000220187
0.000213846
0.000208109
0.000202816
0.000197722
0.000192608
0.000187344
0.00018192
0.000176442
0.000171115
0.00016622
0.000162068
0.000158988
0.000157304
0.00015726
0.000158778
0.000161092
0.000162865
0.00016493
0.0001652
0.000482639
0.000552199
0.000311889
)
;
    }
    sWall
    {
        type            compressible::alphatWallFunction;
        Prt             0.85;
        value           uniform 0.000296004;
    }
    nWall
    {
        type            compressible::alphatWallFunction;
        Prt             0.85;
        value           nonuniform List<scalar> 6(0.000108443 0.00011532 0.000124304 0.00018261 0.00019817 0.000164923);
    }
    sideWalls
    {
        type            empty;
    }
    glass1
    {
        type            compressible::alphatWallFunction;
        Prt             0.85;
        value           nonuniform List<scalar> 9(0.000219359 0.000276158 0.000322496 0.000366335 0.000410253 0.00045473 0.000487269 0.000490388 0.000475516);
    }
    glass2
    {
        type            compressible::alphatWallFunction;
        Prt             0.85;
        value           nonuniform List<scalar> 2(0.000172213 0.000177141);
    }
    sun
    {
        type            compressible::alphatWallFunction;
        Prt             0.85;
        value           nonuniform List<scalar> 
14
(
0.000224565
0.000249934
0.000261025
0.000277007
0.000294483
0.000310129
0.000320706
0.000324698
0.000311239
0.00029449
0.00027607
0.000255754
0.000235621
0.000215532
)
;
    }
    heatsource1
    {
        type            compressible::alphatWallFunction;
        Prt             0.85;
        value           nonuniform List<scalar> 3(9.01853e-05 9.19326e-05 0.000108622);
    }
    heatsource2
    {
        type            compressible::alphatWallFunction;
        Prt             0.85;
        value           nonuniform List<scalar> 4(0.0002132 0.000183189 0.000183187 0.000201963);
    }
    Table_master
    {
        type            compressible::alphatWallFunction;
        Prt             0.85;
        value           nonuniform List<scalar> 9(0.00022235 0.000194409 0.000171428 0.00015285 0.000137838 0.000125646 0.000115687 0.000107748 0.000102234);
    }
    Table_slave
    {
        type            compressible::alphatWallFunction;
        Prt             0.85;
        value           nonuniform List<scalar> 9(0.000250719 0.000229763 0.000212931 0.000198818 0.000185943 0.000173469 0.000160849 0.000147592 0.000132772);
    }
    inlet
    {
        type            fixedValue;
        value           uniform 1.94e-05;
    }
    outlet
    {
        type            zeroGradient;
    }
}


// ************************************************************************* //
