/*--------------------------------*- C++ -*----------------------------------*\
  =========                 |
  \\      /  F ield         | OpenFOAM: The Open Source CFD Toolbox
   \\    /   O peration     | Website:  https://openfoam.org
    \\  /    A nd           | Version:  6
     \\/     M anipulation  |
\*---------------------------------------------------------------------------*/
FoamFile
{
    version     2.0;
    format      ascii;
    class       volScalarField;
    location    "1300";
    object      alphat;
}
// * * * * * * * * * * * * * * * * * * * * * * * * * * * * * * * * * * * * * //

dimensions      [1 -1 -1 0 0 0 0];

internalField   nonuniform List<scalar> 
459
(
0.00122847
0.00133957
0.0013641
0.00142876
0.00148856
0.0015448
0.00160043
0.00165431
0.0016926
0.00170816
0.00169401
0.00164505
0.0015592
0.00143975
0.00130141
0.000534591
0.000638655
0.000719924
0.000724197
0.000702514
0.000672143
0.000630936
0.000589129
0.0005511
0.000517398
0.000487606
0.000461183
0.000437706
0.000416688
0.000397373
0.000378809
0.000359687
0.000348484
0.000319611
0.00167501
0.00395695
0.00373805
0.00433458
0.00491684
0.00550275
0.00601704
0.00641213
0.00678127
0.00709067
0.00729703
0.00735369
0.00720411
0.00671463
0.00532891
0.00132267
0.000800309
0.000559816
0.00116518
0.00162349
0.00196849
0.00217041
0.00218154
0.00173744
0.00149711
0.00132568
0.00119444
0.00109052
0.00100619
0.000934177
0.000867114
0.000802265
0.000744748
0.000693423
0.000828088
0.000428748
0.00204648
0.00536803
0.00455148
0.00568309
0.00619783
0.00657116
0.00686269
0.00711475
0.00740977
0.00773166
0.00804289
0.00828271
0.00839711
0.00830387
0.00774964
0.00596647
0.00134912
0.00105945
0.00152683
0.00197237
0.00240199
0.0027208
0.00268969
0.00089736
0.000795033
0.000711833
0.000644207
0.00058886
0.000543154
0.000505136
0.000473527
0.000447753
0.000483012
0.000556114
0.000935423
0.000502331
0.0024036
0.00687969
0.00448654
0.00593675
0.00633039
0.00642155
0.00649274
0.00663073
0.00687584
0.00720799
0.00759538
0.00795061
0.00821696
0.00832596
0.00821217
0.00758919
0.00517813
0.00158161
0.00189452
0.00240595
0.00295784
0.00344511
0.00378094
0.00360596
0.00101508
0.00093046
0.000870332
0.000824649
0.000785506
0.000748555
0.000712947
0.000675318
0.000631362
0.000592436
0.00059757
0.00108819
0.000560167
0.00276762
0.00885424
0.00485017
0.00565087
0.00619775
0.00613859
0.00607568
0.00617623
0.00640892
0.0067466
0.00717621
0.00756922
0.00784665
0.00795469
0.00789221
0.00763419
0.00698873
0.00590335
0.00552571
0.00545091
0.00548844
0.00554012
0.00554298
0.00537434
0.0045897
0.00420956
0.00398842
0.00381497
0.0036292
0.00336291
0.00299113
0.0025338
0.00202368
0.00151499
0.00112082
0.00110861
0.000761615
0.000692394
0.000833815
0.000936061
0.00315401
0.0110183
0.0066866
0.00543849
0.00596516
0.00613424
0.0059627
0.00606736
0.00626466
0.0065807
0.00699355
0.00740264
0.00768039
0.00774539
0.00760791
0.00736175
0.00711831
0.00695189
0.00694168
0.00695893
0.0069196
0.00681308
0.00664315
0.00639756
0.00603331
0.00570707
0.00541835
0.0051427
0.00486422
0.00456699
0.00418393
0.00369642
0.00310394
0.0024429
0.00184629
0.00135893
0.00104899
0.000898646
0.00128123
0.000978915
0.00351743
0.0125826
0.00962111
0.00690302
0.00640676
0.0064701
0.00633085
0.00625147
0.00634336
0.00663819
0.00707003
0.00749822
0.00776383
0.00777187
0.00755152
0.00727085
0.00716373
0.00732379
0.00755331
0.00762592
0.00750129
0.00723397
0.00687599
0.00646745
0.00604858
0.00567555
0.00534749
0.00505016
0.00477851
0.00453597
0.00432089
0.00401235
0.00355646
0.00298692
0.00242711
0.00190513
0.00153858
0.0014305
0.00146848
0.00111839
0.0035943
0.01143
0.00990277
0.0087476
0.00801944
0.00730195
0.00666806
0.00638445
0.00648167
0.00687158
0.00739079
0.00784176
0.0080459
0.00793237
0.00759359
0.00729961
0.00733145
0.007631
0.00776181
0.00758858
0.00719955
0.00668738
0.0061346
0.00561588
0.00518152
0.00483904
0.00456459
0.00434034
0.00416319
0.00403949
0.0039792
0.00395886
0.0037341
0.00336684
0.00303235
0.00285723
0.00297767
0.00345079
0.00423913
0.00173751
0.00350465
0.00419104
0.00474129
0.00492316
0.00494907
0.00504313
0.00534463
0.00588539
0.00662323
0.00741626
0.00807646
0.00843562
0.00837542
0.00794623
0.00743358
0.00728683
0.00731496
0.00728841
0.0070322
0.0065493
0.00593721
0.00530539
0.00474615
0.00430657
0.00398262
0.00374138
0.00354959
0.00338647
0.00324007
0.0031017
0.00296433
0.00282953
0.00272061
0.00264045
0.00261008
0.00262005
0.00260092
0.00249105
0.0023251
0.00162428
0.00218696
0.00385835
0.00525068
0.00640566
0.00733753
0.00817317
0.0088508
0.00921245
0.00919174
0.00879991
0.00808506
0.00722248
0.00664664
0.00641935
0.00619526
0.00581301
0.00528181
0.00468585
0.00411288
0.00363832
0.00328956
0.00304811
0.00288097
0.00276014
0.00266847
0.00259755
0.00254415
0.00250822
0.00249453
0.00250734
0.00253165
0.00256425
0.00259606
0.0025978
0.00252293
0.00235722
0.00211585
0.00133236
0.00252701
0.00534056
0.00721459
0.00810376
0.0086825
0.00906447
0.00911564
0.00857237
0.00768021
0.00668876
0.00583601
0.00520833
0.00478725
0.00442555
0.00399765
0.00352836
0.00308612
0.00272579
0.00246805
0.00229672
0.00218543
0.00211817
0.00208546
0.00207852
0.00209249
0.00212444
0.00217146
0.00222912
0.00230489
0.00239609
0.00250022
0.00261021
0.00270864
0.00277505
0.00275445
0.00277357
0.00272938
0.00135384
0.00230586
0.00231935
0.00236324
0.00243421
0.00219357
0.00199942
0.001901
0.00181329
0.00168744
0.00153602
0.00135835
0.0011794
0.00101945
0.000892485
0.00080129
0.000738469
0.000695348
0.00066678
0.000650289
0.000644257
0.000646963
0.000656663
0.000672178
0.00069239
0.000716418
0.000744207
0.000775918
0.000811938
0.000852996
0.000900421
0.000953539
0.00101254
0.00107818
0.00115119
0.00123148
0.00132881
0.00135918
0.00132474
0.00124095
0.00115162
)
;

boundaryField
{
    floor
    {
        type            compressible::alphatWallFunction;
        Prt             0.85;
        value           nonuniform List<scalar> 
29
(
0.000184075
7.45157e-05
9.01401e-05
0.000102124
0.00010275
9.95713e-05
9.50995e-05
8.89926e-05
8.27466e-05
7.70175e-05
7.18991e-05
6.73398e-05
6.32667e-05
5.9623e-05
5.63396e-05
5.33037e-05
5.03677e-05
4.7324e-05
4.55311e-05
4.08754e-05
4.08748e-05
5.82263e-05
6.95979e-05
7.83883e-05
0.000184073
7.45148e-05
7.83346e-05
0.000150639
0.000221928
)
;
    }
    ceiling
    {
        type            compressible::alphatWallFunction;
        Prt             0.85;
        value           nonuniform List<scalar> 
43
(
0.00031666
0.000318277
0.000323894
0.000333076
0.000302266
0.000277126
0.000264285
0.000252776
0.000236147
0.000215951
0.000191965
0.000167442
0.000145158
0.00012718
0.000114082
0.000104956
9.86373e-05
9.44252e-05
9.19837e-05
9.1089e-05
9.14906e-05
9.29289e-05
9.52236e-05
9.82035e-05
0.000101732
0.000105795
0.00011041
0.000115624
0.000121533
0.000128318
0.000135866
0.000144193
0.000153391
0.000163547
0.00017463
0.000187955
0.00019209
0.000187401
0.000175933
0.000163611
0.000467139
0.000550629
0.000344648
)
;
    }
    sWall
    {
        type            compressible::alphatWallFunction;
        Prt             0.85;
        value           uniform 0.000315488;
    }
    nWall
    {
        type            compressible::alphatWallFunction;
        Prt             0.85;
        value           nonuniform List<scalar> 6(0.00013306 0.00013912 0.00015865 0.000188108 0.00019103 0.000163283);
    }
    sideWalls
    {
        type            empty;
    }
    glass1
    {
        type            compressible::alphatWallFunction;
        Prt             0.85;
        value           nonuniform List<scalar> 9(0.000169791 0.00022927 0.000277538 0.00032314 0.000368949 0.000416933 0.000461553 0.00047106 0.000460349);
    }
    glass2
    {
        type            compressible::alphatWallFunction;
        Prt             0.85;
        value           nonuniform List<scalar> 2(0.00024101 0.000226105);
    }
    sun
    {
        type            compressible::alphatWallFunction;
        Prt             0.85;
        value           nonuniform List<scalar> 
14
(
0.000174097
0.000189286
0.000192622
0.000201387
0.000209453
0.000217006
0.000224447
0.000231626
0.000236712
0.000238776
0.000236898
0.000230391
0.000218931
0.000202867
)
;
    }
    heatsource1
    {
        type            compressible::alphatWallFunction;
        Prt             0.85;
        value           nonuniform List<scalar> 3(9.81988e-05 0.000118769 0.00013338);
    }
    heatsource2
    {
        type            compressible::alphatWallFunction;
        Prt             0.85;
        value           nonuniform List<scalar> 4(0.000187108 0.000113936 0.000113934 0.000190709);
    }
    Table_master
    {
        type            compressible::alphatWallFunction;
        Prt             0.85;
        value           nonuniform List<scalar> 9(0.00012787 0.00011317 0.000101052 9.10753e-05 8.28147e-05 7.59209e-05 7.01314e-05 6.52761e-05 6.12868e-05);
    }
    Table_slave
    {
        type            compressible::alphatWallFunction;
        Prt             0.85;
        value           nonuniform List<scalar> 9(0.000144541 0.000132584 0.00012401 0.00011745 0.000111793 0.000106423 0.000101218 9.56825e-05 8.91685e-05);
    }
    inlet
    {
        type            fixedValue;
        value           uniform 1.94e-05;
    }
    outlet
    {
        type            zeroGradient;
    }
}


// ************************************************************************* //
