/*--------------------------------*- C++ -*----------------------------------*\
  =========                 |
  \\      /  F ield         | OpenFOAM: The Open Source CFD Toolbox
   \\    /   O peration     | Website:  https://openfoam.org
    \\  /    A nd           | Version:  6
     \\/     M anipulation  |
\*---------------------------------------------------------------------------*/
FoamFile
{
    version     2.0;
    format      ascii;
    class       volScalarField;
    location    "1300";
    object      epsilon;
}
// * * * * * * * * * * * * * * * * * * * * * * * * * * * * * * * * * * * * * //

dimensions      [0 2 -3 0 0 0 0];

internalField   nonuniform List<scalar> 
459
(
0.000419372
0.000542342
0.000572609
0.000657937
0.000744028
0.000831549
0.000924621
0.00102112
0.00109358
0.0011239
0.00109605
0.00100363
0.000854498
0.000672758
0.000496893
3.44697e-05
5.87607e-05
8.4162e-05
8.56707e-05
7.8206e-05
6.84976e-05
5.66581e-05
4.61268e-05
3.77597e-05
3.12483e-05
2.61562e-05
2.2131e-05
1.89211e-05
1.63246e-05
1.41586e-05
1.22659e-05
1.05009e-05
9.55045e-06
7.36925e-06
0.00106501
0.0015657
0.000509305
0.000492023
0.000513171
0.000550405
0.000607881
0.000685594
0.000761207
0.000810045
0.000811669
0.000759174
0.000660274
0.000536595
0.00043623
0.000521563
0.000115529
3.95866e-05
9.34672e-05
0.000103116
9.60572e-05
8.33649e-05
7.08229e-05
6.4517e-05
5.22136e-05
4.12758e-05
3.26365e-05
2.59961e-05
2.09137e-05
1.70213e-05
1.40539e-05
1.18799e-05
1.05481e-05
9.98717e-06
2.64181e-05
1.77878e-05
0.00194609
0.00386997
0.000627587
0.000465841
0.000484676
0.000541744
0.000629269
0.000742227
0.000848752
0.000914722
0.000921807
0.000869417
0.000769204
0.000644832
0.000529278
0.000471842
0.000553508
0.000268213
0.000207541
0.000163548
0.000130193
0.00010468
8.91849e-05
0.000163012
0.000113364
8.13677e-05
6.03106e-05
4.60628e-05
3.6148e-05
2.90763e-05
2.39522e-05
2.02502e-05
1.54837e-05
1.30209e-05
5.02732e-05
2.86077e-05
0.00315915
0.00807131
0.000993452
0.000467357
0.000468672
0.000548244
0.000679254
0.000849062
0.000986602
0.00105603
0.00105243
0.000985017
0.000866334
0.000722476
0.000595163
0.000511563
0.000492055
0.000891993
0.000514372
0.000314626
0.000213443
0.00015561
0.000119674
0.000102799
0.000236041
0.000181811
0.000148804
0.000126588
0.00010941
9.46883e-05
8.18108e-05
6.95306e-05
5.68182e-05
3.40581e-05
2.21895e-05
8.38239e-05
3.96728e-05
0.00483191
0.0144522
0.00196977
0.000544752
0.0004683
0.000571778
0.000804521
0.00106637
0.00121781
0.0012663
0.00123097
0.00113009
0.000978051
0.000799344
0.000625213
0.000481408
0.00038211
0.000339516
0.000277504
0.000221572
0.000176825
0.000142045
0.000115434
9.72414e-05
9.40226e-05
8.82669e-05
8.26902e-05
7.70756e-05
7.08745e-05
6.39278e-05
5.69525e-05
5.03061e-05
4.41849e-05
3.56771e-05
2.75387e-05
5.96968e-05
4.60332e-05
7.49773e-05
0.000131
0.000185356
0.00716354
0.021528
0.00445569
0.00101498
0.000651983
0.000745474
0.00122627
0.00150752
0.00159654
0.00157744
0.00148768
0.00133755
0.00113387
0.000899735
0.000670205
0.000479506
0.000347254
0.000272298
0.000227089
0.000191405
0.000159392
0.00013204
0.000110414
9.54848e-05
8.8375e-05
8.58382e-05
8.47373e-05
8.3111e-05
7.97382e-05
7.36554e-05
6.47123e-05
5.52893e-05
4.66424e-05
3.89313e-05
3.39015e-05
4.49984e-05
4.72886e-05
5.77234e-05
0.000242302
0.000211927
0.00995132
0.0257812
0.0093297
0.00337775
0.00212484
0.00204675
0.00230364
0.00230844
0.00219315
0.0020335
0.00184259
0.00160842
0.00132599
0.00101783
0.000724035
0.000487406
0.000330772
0.000245257
0.000199797
0.0001681
0.000141015
0.000118949
0.00010312
9.411e-05
9.17864e-05
9.39686e-05
9.78442e-05
0.000101735
0.000104405
0.000104093
9.74536e-05
8.62046e-05
7.50489e-05
6.56476e-05
6.19261e-05
6.94016e-05
8.85262e-05
0.000141502
0.00032619
0.000315998
0.0106416
0.0288211
0.0156285
0.00991834
0.00696672
0.00538848
0.00427112
0.00351679
0.0030021
0.00262005
0.00228135
0.00192453
0.00152719
0.00111882
0.000745326
0.000461009
0.000289608
0.000204375
0.000163593
0.000137494
0.000117458
0.000103438
9.5676e-05
9.3879e-05
9.72733e-05
0.000104522
0.000114442
0.000126674
0.000141293
0.000158178
0.00017626
0.000187651
0.000197603
0.000219228
0.000263674
0.000396615
0.000732619
0.00138303
0.00403385
0.00118684
0.00989588
0.0168753
0.013547
0.010226
0.00778841
0.00612218
0.00499404
0.00422027
0.00366253
0.00319731
0.00272798
0.00220667
0.00163357
0.00109195
0.00062722
0.000330158
0.000205909
0.000151294
0.000123234
0.000105409
9.37228e-05
8.74903e-05
8.62892e-05
8.95486e-05
9.6679e-05
0.000107266
0.000121368
0.000139718
0.000163714
0.00019542
0.000237614
0.000294264
0.000371868
0.000488133
0.000658762
0.000889521
0.00115251
0.00138093
0.00155653
0.000971034
0.00499076
0.00670125
0.00666792
0.00615924
0.0054642
0.00479849
0.00415328
0.00346719
0.00271996
0.00193751
0.0010774
0.000568107
0.000299025
0.000173004
0.000119761
9.42542e-05
8.03233e-05
7.21657e-05
6.78678e-05
6.69006e-05
6.88554e-05
7.33608e-05
8.02337e-05
8.95637e-05
0.000101786
0.000117749
0.000138812
0.000167046
0.000205711
0.000259846
0.000334833
0.000437798
0.000571917
0.000724236
0.000853677
0.000905961
0.000847851
0.000535876
0.00344422
0.00676719
0.00662723
0.00531394
0.0044751
0.00382138
0.00299639
0.00210736
0.0013424
0.000784018
0.0004236
0.00023348
0.000138237
9.37601e-05
7.32635e-05
6.30947e-05
5.79767e-05
5.59152e-05
5.61115e-05
5.81145e-05
6.17025e-05
6.68765e-05
7.37716e-05
8.26744e-05
9.40975e-05
0.000108869
0.000128279
0.00015431
0.000189697
0.000238051
0.000304307
0.000393387
0.000505749
0.000632839
0.000726938
0.00082245
0.000761978
0.000562148
0.0027179
0.00271808
0.00287316
0.00319507
0.00235814
0.00179374
0.00154563
0.00134376
0.00108437
0.000818583
0.000566478
0.00037095
0.000239634
0.000160816
0.000116397
9.11174e-05
7.60729e-05
6.70786e-05
6.22251e-05
6.0511e-05
6.1278e-05
6.40779e-05
6.873e-05
7.5121e-05
8.32191e-05
9.32867e-05
0.00010573
0.000121153
0.000140481
0.000165244
0.000196254
0.000234988
0.000283724
0.000345371
0.000422816
0.000531244
0.000568558
0.000526461
0.000432758
0.000346
)
;

boundaryField
{
    floor
    {
        Cmu             0.09;
        kappa           0.41;
        E               9.8;
        type            epsilonWallFunction;
        value           nonuniform List<scalar> 
29
(
0.000496893
3.44697e-05
5.87607e-05
8.4162e-05
8.56707e-05
7.8206e-05
6.84976e-05
5.66581e-05
4.61268e-05
3.77597e-05
3.12483e-05
2.61562e-05
2.2131e-05
1.89211e-05
1.63246e-05
1.41586e-05
1.22659e-05
1.05009e-05
9.55045e-06
7.36925e-06
7.36925e-06
1.77878e-05
2.86077e-05
3.96728e-05
0.000496893
3.44697e-05
3.95866e-05
0.000268213
0.000891993
)
;
    }
    ceiling
    {
        Cmu             0.09;
        kappa           0.41;
        E               9.8;
        type            epsilonWallFunction;
        value           nonuniform List<scalar> 
43
(
0.0027179
0.00271808
0.00287316
0.00319507
0.00235814
0.00179374
0.00154563
0.00134376
0.00108437
0.000818583
0.000566478
0.00037095
0.000239634
0.000160816
0.000116397
9.11174e-05
7.60729e-05
6.70786e-05
6.22251e-05
6.0511e-05
6.1278e-05
6.40779e-05
6.873e-05
7.5121e-05
8.32191e-05
9.32867e-05
0.00010573
0.000121153
0.000140481
0.000165244
0.000196254
0.000234988
0.000283724
0.000345371
0.000422816
0.000531244
0.000568558
0.000526461
0.000432758
0.000346
0.00989588
0.0168753
0.00344422
)
;
    }
    sWall
    {
        Cmu             0.09;
        kappa           0.41;
        E               9.8;
        type            epsilonWallFunction;
        value           uniform 0.0027179;
    }
    nWall
    {
        Cmu             0.09;
        kappa           0.41;
        E               9.8;
        type            epsilonWallFunction;
        value           nonuniform List<scalar> 6(0.000185356 0.000211927 0.000315998 0.000535876 0.000562148 0.000346);
    }
    sideWalls
    {
        type            empty;
    }
    glass1
    {
        Cmu             0.09;
        kappa           0.41;
        E               9.8;
        type            epsilonWallFunction;
        value           nonuniform List<scalar> 9(0.000419372 0.00106501 0.00194609 0.00315915 0.00483191 0.00716354 0.00995132 0.0106416 0.00989588);
    }
    glass2
    {
        Cmu             0.09;
        kappa           0.41;
        E               9.8;
        type            epsilonWallFunction;
        value           nonuniform List<scalar> 2(0.00118684 0.000971034);
    }
    sun
    {
        Cmu             0.09;
        kappa           0.41;
        E               9.8;
        type            epsilonWallFunction;
        value           nonuniform List<scalar> 
14
(
0.000419372
0.000542342
0.000572609
0.000657937
0.000744028
0.000831549
0.000924621
0.00102112
0.00109358
0.0011239
0.00109605
0.00100363
0.000854498
0.000672758
)
;
    }
    heatsource1
    {
        Cmu             0.09;
        kappa           0.41;
        E               9.8;
        type            epsilonWallFunction;
        value           nonuniform List<scalar> 3(7.49773e-05 0.000131 0.000185356);
    }
    heatsource2
    {
        Cmu             0.09;
        kappa           0.41;
        E               9.8;
        type            epsilonWallFunction;
        value           nonuniform List<scalar> 4(0.000521563 0.000115529 0.000115529 0.000553508);
    }
    Table_master
    {
        Cmu             0.09;
        kappa           0.41;
        E               9.8;
        type            epsilonWallFunction;
        value           nonuniform List<scalar> 9(0.000163012 0.000113364 8.13677e-05 6.03106e-05 4.60628e-05 3.6148e-05 2.90763e-05 2.39522e-05 2.02502e-05);
    }
    Table_slave
    {
        Cmu             0.09;
        kappa           0.41;
        E               9.8;
        type            epsilonWallFunction;
        value           nonuniform List<scalar> 9(0.000236041 0.000181811 0.000148804 0.000126588 0.00010941 9.46883e-05 8.18108e-05 6.95306e-05 5.68182e-05);
    }
    inlet
    {
        type            turbulentMixingLengthDissipationRateInlet;
        mixingLength    0.01;
        phi             phi;
        k               k;
        value           uniform 0.000101881;
    }
    outlet
    {
        type            zeroGradient;
    }
}


// ************************************************************************* //
