/*--------------------------------*- C++ -*----------------------------------*\
  =========                 |
  \\      /  F ield         | OpenFOAM: The Open Source CFD Toolbox
   \\    /   O peration     | Website:  https://openfoam.org
    \\  /    A nd           | Version:  6
     \\/     M anipulation  |
\*---------------------------------------------------------------------------*/
FoamFile
{
    version     2.0;
    format      ascii;
    class       volScalarField;
    location    "500";
    object      alphat;
}
// * * * * * * * * * * * * * * * * * * * * * * * * * * * * * * * * * * * * * //

dimensions      [1 -1 -1 0 0 0 0];

internalField   nonuniform List<scalar> 
459
(
0.000851495
0.0008918
0.000885803
0.000912823
0.000934868
0.000952741
0.000967462
0.000979986
0.000991245
0.00100203
0.00100923
0.00101188
0.0010101
0.00100629
0.00100208
0.000749668
0.000699377
0.000661475
0.000633717
0.000611413
0.000591168
0.000571012
0.000552227
0.000534589
0.000517878
0.000501976
0.000486777
0.00047214
0.000457835
0.000443451
0.00042835
0.000411305
0.00039693
0.000365038
0.0012633
0.00197492
0.00168643
0.00192266
0.00204799
0.00218314
0.00231802
0.00244016
0.00253206
0.00257701
0.0025854
0.00252977
0.0023723
0.00206314
0.00155729
0.0010244
0.000960262
0.000866311
0.00119482
0.00140332
0.00156219
0.00166194
0.00167508
0.00150837
0.00139014
0.0012904
0.00120316
0.00112448
0.00105158
0.000981022
0.000907658
0.000827029
0.000753549
0.000692733
0.000810476
0.00045244
0.00164023
0.00286857
0.00184216
0.00262343
0.00279887
0.00292843
0.00302694
0.00310129
0.00315703
0.00318916
0.00320614
0.00318298
0.00308912
0.0028917
0.0025507
0.00200246
0.00110327
0.000961267
0.00182258
0.00220911
0.00242512
0.00250819
0.0022726
0.000667729
0.000603178
0.00055349
0.000514689
0.000483805
0.000458781
0.000438384
0.000422205
0.0004111
0.000471385
0.000562906
0.000924588
0.000520364
0.00203554
0.00428495
0.00173795
0.00291591
0.00316452
0.003249
0.00328179
0.00329186
0.00330079
0.00331605
0.00333842
0.00334706
0.00331608
0.00322234
0.00304085
0.00272261
0.00212536
0.00109439
0.00225942
0.00272918
0.00285736
0.00292198
0.00292649
0.00258436
0.000710675
0.000680127
0.000666825
0.000658336
0.000647131
0.000628666
0.00060789
0.000584351
0.000554212
0.0005323
0.000563157
0.00107502
0.000576084
0.00244802
0.00626028
0.00199824
0.00279599
0.00329657
0.00336513
0.0033523
0.00331546
0.00329338
0.00330684
0.00334652
0.00339283
0.00340721
0.00335601
0.0032125
0.00299961
0.00287876
0.00304298
0.00312517
0.00310703
0.00302369
0.0029927
0.00300337
0.00297712
0.00272474
0.0026908
0.00269328
0.00267991
0.00262799
0.0025228
0.00229532
0.00197918
0.00160995
0.00121629
0.00091531
0.00103074
0.000712364
0.000748176
0.000890992
0.000988486
0.00287613
0.00844673
0.00331744
0.0023727
0.00316117
0.00335895
0.00337515
0.00332374
0.00325828
0.00324453
0.00331395
0.00340518
0.00346393
0.0034484
0.00330215
0.00299449
0.00268356
0.00289147
0.00323408
0.00316502
0.0029984
0.00291303
0.00292656
0.00298925
0.00305041
0.00312087
0.00317005
0.00318577
0.00316264
0.00309902
0.00295442
0.00269073
0.00230863
0.00183197
0.00139101
0.00108593
0.000889966
0.000831714
0.00126061
0.00102878
0.00332773
0.010268
0.00630263
0.00298161
0.00238349
0.002673
0.00301789
0.00324548
0.00335365
0.00320802
0.0033104
0.00342027
0.00349813
0.00350885
0.00338196
0.00302819
0.0025439
0.00272506
0.00327671
0.00318599
0.00296865
0.00285896
0.00286504
0.00293181
0.00301766
0.00309913
0.00315805
0.00318995
0.00319885
0.00319182
0.0031698
0.00299826
0.00265918
0.00220835
0.00178756
0.0014095
0.00118035
0.00114576
0.00124657
0.00111916
0.00345831
0.0105782
0.00830404
0.00603754
0.00419219
0.00318614
0.00290546
0.00303422
0.00324716
0.00331907
0.00338867
0.00346336
0.00352302
0.00352727
0.0033975
0.00301976
0.0024414
0.00257613
0.00331286
0.00322695
0.00297259
0.00284553
0.00282783
0.00285747
0.0028998
0.00293909
0.00297031
0.0029967
0.00303004
0.00308542
0.00317644
0.00325565
0.00297684
0.002591
0.00228116
0.00217568
0.00236054
0.00307363
0.0042516
0.00181474
0.00340972
0.00419817
0.00470708
0.00479377
0.004511
0.00406419
0.00369579
0.00349848
0.0034177
0.00340456
0.00344161
0.00349705
0.0035342
0.00350783
0.00333927
0.00290494
0.00223884
0.0024065
0.00338641
0.00329537
0.00299893
0.00284404
0.00278376
0.00275507
0.00273164
0.00270369
0.00266787
0.00262429
0.00257439
0.00251847
0.00245527
0.00238378
0.00231647
0.00228551
0.00232492
0.00242194
0.00249264
0.00245068
0.00230496
0.00167673
0.00260358
0.00405462
0.0043672
0.00427466
0.00409675
0.00394591
0.00384537
0.00376727
0.00370328
0.00363315
0.00353358
0.00337562
0.00309437
0.00257646
0.00187338
0.0021802
0.00352407
0.00338778
0.00304231
0.00287065
0.00277697
0.00269982
0.00262672
0.00255583
0.00248671
0.00242071
0.00236195
0.00231779
0.00229818
0.00230985
0.00234096
0.00239167
0.00245565
0.0024993
0.00246575
0.00232461
0.00208149
0.00136513
0.00273404
0.00466096
0.0048549
0.0046673
0.00446726
0.00426433
0.00406817
0.00387502
0.00361261
0.00331523
0.00300153
0.00267725
0.00232229
0.00188438
0.00137312
0.00181552
0.00294454
0.0028255
0.00257817
0.00244802
0.00236068
0.00228768
0.00223365
0.00220503
0.00220375
0.0022274
0.00226957
0.00231999
0.00237073
0.0024419
0.0025311
0.00263301
0.00273453
0.0028207
0.0028444
0.00291139
0.00263512
0.00138059
0.00240277
0.00251806
0.00261885
0.00276539
0.00259382
0.0023509
0.00218469
0.00203122
0.00188685
0.00174995
0.0016336
0.00152682
0.00142372
0.00132076
0.00121518
0.00110154
0.000894461
0.000787762
0.000808414
0.000802657
0.000797406
0.00080044
0.000809215
0.00082277
0.000840957
0.000863609
0.000890577
0.000921929
0.000958172
0.00100058
0.0010508
0.00110729
0.00117078
0.00124183
0.00132107
0.00142621
0.00146463
0.00143654
0.00134387
0.00124417
)
;

boundaryField
{
    floor
    {
        type            compressible::alphatWallFunction;
        Prt             0.85;
        value           nonuniform List<scalar> 
29
(
0.000142553
0.000106443
9.90837e-05
9.34958e-05
8.93788e-05
8.60548e-05
8.30249e-05
7.99955e-05
7.71602e-05
7.4487e-05
7.19442e-05
6.9515e-05
6.71839e-05
6.49306e-05
6.27198e-05
6.04878e-05
5.81349e-05
5.54662e-05
5.32046e-05
4.81492e-05
4.81486e-05
6.18816e-05
7.23193e-05
8.07542e-05
0.000142552
0.000106441
0.000123286
0.0001368
0.000155482
)
;
    }
    ceiling
    {
        type            compressible::alphatWallFunction;
        Prt             0.85;
        value           nonuniform List<scalar> 
43
(
0.000328965
0.000343652
0.000356436
0.000375022
0.000353392
0.000322479
0.000301122
0.000281244
0.000262394
0.000244374
0.000228936
0.000214661
0.000200772
0.000186789
0.00017232
0.000156588
0.000127432
0.000112089
0.000115078
0.000114248
0.000113489
0.000113927
0.000115195
0.00011715
0.000119767
0.000123018
0.000126875
0.000131342
0.000136483
0.00014247
0.000149523
0.00015741
0.000166218
0.000176011
0.000186858
0.000201139
0.000206327
0.000202535
0.000189967
0.000176337
0.000455443
0.000551463
0.000370911
)
;
    }
    sWall
    {
        type            compressible::alphatWallFunction;
        Prt             0.85;
        value           uniform 0.000327736;
    }
    nWall
    {
        type            compressible::alphatWallFunction;
        Prt             0.85;
        value           nonuniform List<scalar> 6(0.000140418 0.000146081 0.000158699 0.000192508 0.000194605 0.000175987);
    }
    sideWalls
    {
        type            empty;
    }
    glass1
    {
        type            compressible::alphatWallFunction;
        Prt             0.85;
        value           nonuniform List<scalar> 9(0.000117677 0.00017438 0.000224596 0.000276022 0.000328638 0.000382332 0.000438117 0.000454235 0.000448509);
    }
    glass2
    {
        type            compressible::alphatWallFunction;
        Prt             0.85;
        value           nonuniform List<scalar> 2(0.000250846 0.000232762);
    }
    sun
    {
        type            compressible::alphatWallFunction;
        Prt             0.85;
        value           nonuniform List<scalar> 
14
(
0.000121176
0.000126926
0.000126069
0.000129922
0.000133055
0.000135589
0.000137671
0.000139441
0.000141029
0.000142548
0.000143561
0.000143933
0.000143682
0.000143146
)
;
    }
    heatsource1
    {
        type            compressible::alphatWallFunction;
        Prt             0.85;
        value           nonuniform List<scalar> 3(0.000106369 0.000126965 0.000140798);
    }
    heatsource2
    {
        type            compressible::alphatWallFunction;
        Prt             0.85;
        value           nonuniform List<scalar> 4(0.000145849 0.000136808 0.000136807 0.000156876);
    }
    Table_master
    {
        type            compressible::alphatWallFunction;
        Prt             0.85;
        value           nonuniform List<scalar> 9(9.45634e-05 8.49637e-05 7.74886e-05 7.15934e-05 6.68611e-05 6.2999e-05 5.9831e-05 5.73048e-05 5.55636e-05);
    }
    Table_slave
    {
        type            compressible::alphatWallFunction;
        Prt             0.85;
        value           nonuniform List<scalar> 9(0.000100887 9.63939e-05 9.44296e-05 9.31737e-05 9.15131e-05 8.87686e-05 8.56689e-05 8.21411e-05 7.75983e-05);
    }
    inlet
    {
        type            fixedValue;
        value           uniform 1.94e-05;
    }
    outlet
    {
        type            zeroGradient;
    }
}


// ************************************************************************* //
