/*--------------------------------*- C++ -*----------------------------------*\
  =========                 |
  \\      /  F ield         | OpenFOAM: The Open Source CFD Toolbox
   \\    /   O peration     | Website:  https://openfoam.org
    \\  /    A nd           | Version:  6
     \\/     M anipulation  |
\*---------------------------------------------------------------------------*/
FoamFile
{
    version     2.0;
    format      ascii;
    class       volScalarField;
    location    "500";
    object      nut;
}
// * * * * * * * * * * * * * * * * * * * * * * * * * * * * * * * * * * * * * //

dimensions      [0 2 -1 0 0 0 0];

internalField   nonuniform List<scalar> 
459
(
0.00073223
0.000766115
0.000760939
0.000784147
0.000803081
0.000818431
0.000831072
0.000841827
0.000851494
0.000860751
0.000866925
0.000869183
0.000867636
0.000864339
0.000860701
0.000643982
0.000600769
0.000568207
0.00054436
0.000525199
0.000507807
0.000490491
0.000474353
0.0004592
0.000444844
0.000431182
0.000418124
0.000405549
0.000393259
0.000380901
0.000367928
0.000353284
0.000340934
0.000313551
0.00108719
0.00169678
0.00144883
0.0016518
0.0017595
0.00187563
0.00199153
0.00209648
0.00217544
0.00221405
0.00222122
0.00217333
0.00203792
0.0017722
0.00133757
0.000879819
0.000824709
0.000744164
0.00102635
0.00120543
0.00134189
0.00142756
0.00143882
0.00129561
0.00119403
0.00110834
0.0010334
0.000965809
0.000903177
0.000842565
0.000779544
0.000710289
0.000647178
0.000594948
0.000696076
0.000388611
0.00141268
0.00246497
0.00158278
0.00225415
0.00240501
0.00251646
0.00260121
0.00266519
0.00271315
0.00274076
0.00275528
0.00273519
0.00265425
0.00248427
0.00219102
0.00171991
0.000947557
0.000825738
0.00156565
0.00189769
0.00208324
0.00215456
0.00195216
0.000573563
0.0005181
0.000475407
0.000442068
0.000415531
0.000394029
0.000376502
0.000362599
0.000353056
0.000404827
0.000483428
0.000794053
0.000446948
0.00175444
0.00368285
0.00149341
0.00250579
0.00271967
0.00279252
0.00282093
0.00282977
0.00283759
0.00285075
0.00286988
0.00287703
0.00284995
0.00276882
0.00261233
0.00233855
0.00182544
0.000940007
0.00194088
0.00234455
0.00245471
0.00251021
0.00251406
0.00222012
0.000610506
0.000584258
0.000572825
0.000565526
0.000555894
0.000540024
0.00052217
0.000501941
0.000476041
0.000457187
0.000483663
0.000923256
0.000494811
0.00211144
0.00538205
0.00171727
0.00240299
0.00283353
0.00289281
0.00288213
0.00285077
0.00283203
0.00284371
0.00287776
0.00291725
0.00292903
0.00288425
0.00276012
0.00257658
0.0024725
0.00261375
0.0026847
0.00266931
0.00259777
0.00257114
0.00258029
0.00255771
0.00234087
0.00231169
0.00231379
0.00230228
0.00225764
0.00216724
0.00197176
0.00170014
0.00138292
0.00104472
0.000786143
0.000885244
0.000611859
0.000642745
0.000765508
0.000849302
0.0024822
0.00726422
0.00285144
0.00203936
0.00271736
0.00288777
0.00290211
0.0028583
0.00280236
0.00279076
0.00285046
0.00292858
0.00297843
0.00296417
0.00283749
0.0025723
0.00230483
0.00248365
0.00277838
0.00271929
0.0025762
0.00250286
0.00251447
0.00256832
0.00262085
0.00268136
0.00272358
0.00273704
0.00271711
0.00266238
0.00253808
0.00231146
0.00198314
0.00157361
0.00119476
0.000932677
0.000764394
0.000714425
0.00108287
0.000883833
0.00287326
0.00883542
0.00541981
0.00256328
0.00204906
0.00229818
0.00259503
0.0027911
0.00288453
0.0027597
0.00284783
0.00294198
0.0030082
0.00301643
0.00290628
0.00260133
0.00218487
0.00234075
0.00281512
0.00273745
0.00255079
0.00245656
0.00246178
0.00251914
0.00259289
0.00266287
0.00271346
0.00274082
0.0027484
0.00274227
0.00272322
0.00257573
0.00228434
0.00189696
0.00153543
0.00121063
0.00101381
0.000984136
0.00107076
0.000961413
0.0029883
0.00911721
0.00715165
0.0051961
0.00360643
0.00274047
0.00249898
0.00260987
0.00279342
0.0028556
0.00291538
0.00297912
0.0030296
0.00303222
0.00291958
0.00259404
0.00209682
0.00221287
0.00284631
0.0027728
0.00255432
0.00244516
0.00242996
0.00245543
0.00249179
0.00252554
0.00255234
0.00257497
0.00260355
0.00265106
0.00272915
0.00279703
0.00255739
0.00222583
0.00195958
0.00186891
0.00202772
0.00264043
0.00365273
0.00155999
0.00294943
0.00362751
0.0040635
0.00413453
0.00388766
0.00350067
0.00318224
0.00301176
0.00294187
0.00292995
0.00296099
0.00300772
0.00303865
0.00301495
0.00286911
0.00249514
0.00192277
0.00206725
0.00290968
0.00283176
0.00257711
0.00244404
0.00239225
0.0023676
0.00234747
0.00232345
0.00229266
0.00225519
0.00221228
0.0021642
0.00210989
0.00204848
0.00199068
0.00196417
0.00199821
0.00208185
0.00214295
0.00210718
0.00198207
0.00144215
0.00220477
0.00346375
0.0037461
0.00367213
0.00352127
0.0033923
0.00330592
0.00323864
0.00318328
0.00312251
0.00303638
0.00290007
0.00265788
0.00221256
0.00160884
0.00187303
0.00302823
0.00291137
0.00261456
0.00246707
0.00238659
0.0023203
0.0022575
0.00219659
0.0021372
0.0020805
0.00203002
0.00199209
0.00197526
0.00198533
0.00201212
0.00205581
0.00211096
0.00214869
0.00212006
0.00199888
0.0017899
0.00117394
0.00231794
0.00398106
0.00415832
0.00400336
0.0038345
0.0036615
0.0034935
0.00332776
0.00310243
0.00284699
0.0025775
0.00229891
0.00199398
0.00161787
0.00117924
0.00156008
0.00253052
0.00242835
0.00221584
0.00210401
0.00202897
0.00196625
0.00191984
0.00189525
0.00189418
0.00191453
0.00195081
0.00199417
0.00203782
0.00209904
0.00217576
0.00226345
0.00235084
0.00242508
0.00244562
0.00250339
0.00226577
0.00118719
0.00204527
0.00214303
0.00222878
0.00236431
0.0022216
0.00201615
0.00187432
0.00174299
0.00161927
0.00150186
0.00140206
0.00131047
0.00122202
0.00113368
0.00104309
0.000945601
0.000768319
0.000677081
0.000694866
0.000689931
0.000685427
0.000688042
0.000695591
0.000707248
0.000722888
0.000742365
0.000765553
0.000792509
0.00082367
0.00086013
0.000903308
0.000951884
0.00100647
0.00106757
0.00113572
0.00122618
0.00125926
0.00123513
0.00115546
0.00106987
)
;

boundaryField
{
    floor
    {
        type            nutkWallFunction;
        Cmu             0.09;
        kappa           0.41;
        E               9.8;
        value           nonuniform List<scalar> 
29
(
0.00010419
7.78253e-05
7.24486e-05
6.83661e-05
6.53583e-05
6.29297e-05
6.0716e-05
5.85026e-05
5.6431e-05
5.44777e-05
5.26196e-05
5.08445e-05
4.9141e-05
4.74943e-05
4.58786e-05
4.42474e-05
4.25278e-05
4.05773e-05
3.89243e-05
3.52304e-05
3.52303e-05
4.52656e-05
5.28918e-05
5.90548e-05
0.00010419
7.78252e-05
9.01279e-05
9.99999e-05
0.000113635
)
;
    }
    ceiling
    {
        type            nutkWallFunction;
        Cmu             0.09;
        kappa           0.41;
        E               9.8;
        value           nonuniform List<scalar> 
43
(
0.000238195
0.000248781
0.000258027
0.00027265
0.000257362
0.000235141
0.00021965
0.00020519
0.000191458
0.00017832
0.000167064
0.000156655
0.000146526
0.000136327
0.000125774
0.0001143
9.30744e-05
8.1913e-05
8.41006e-05
8.34956e-05
8.29416e-05
8.32627e-05
8.41896e-05
8.56189e-05
8.7532e-05
8.99079e-05
9.27269e-05
9.59914e-05
9.97492e-05
0.000104125
0.000109279
0.000115044
0.000121481
0.00012864
0.00013657
0.000147013
0.00015081
0.000148042
0.000138856
0.000128908
0.000334798
0.000404975
0.000267532
)
;
    }
    sWall
    {
        type            nutkWallFunction;
        Cmu             0.09;
        kappa           0.41;
        E               9.8;
        value           uniform 0.000238259;
    }
    nWall
    {
        type            nutkWallFunction;
        Cmu             0.09;
        kappa           0.41;
        E               9.8;
        value           nonuniform List<scalar> 6(0.000102829 0.00010696 0.000116174 0.000141004 0.000142534 0.000128917);
    }
    sideWalls
    {
        type            empty;
    }
    glass1
    {
        type            nutkWallFunction;
        Cmu             0.09;
        kappa           0.41;
        E               9.8;
        value           nonuniform List<scalar> 9(8.86436e-05 0.000131039 0.000168493 0.000206787 0.000245919 0.000285813 0.000327213 0.000339286 0.00033523);
    }
    glass2
    {
        type            nutkWallFunction;
        Cmu             0.09;
        kappa           0.41;
        E               9.8;
        value           nonuniform List<scalar> 2(0.000184945 0.00017169);
    }
    sun
    {
        type            nutkWallFunction;
        Cmu             0.09;
        kappa           0.41;
        E               9.8;
        value           nonuniform List<scalar> 
14
(
8.8668e-05
9.27914e-05
9.21628e-05
9.49764e-05
9.72646e-05
9.91149e-05
0.000100636
0.000101927
0.000103087
0.000104196
0.000104934
0.000105204
0.000105019
0.000104625
)
;
    }
    heatsource1
    {
        type            nutkWallFunction;
        Cmu             0.09;
        kappa           0.41;
        E               9.8;
        value           nonuniform List<scalar> 3(7.76718e-05 9.27204e-05 0.000102826);
    }
    heatsource2
    {
        type            nutkWallFunction;
        Cmu             0.09;
        kappa           0.41;
        E               9.8;
        value           nonuniform List<scalar> 4(0.000106473 9.98707e-05 9.98707e-05 0.000114525);
    }
    Table_master
    {
        type            nutkWallFunction;
        Cmu             0.09;
        kappa           0.41;
        E               9.8;
        value           nonuniform List<scalar> 9(6.90443e-05 6.20334e-05 5.65741e-05 5.22686e-05 4.88124e-05 4.59917e-05 4.3678e-05 4.18329e-05 4.05612e-05);
    }
    Table_slave
    {
        type            nutkWallFunction;
        Cmu             0.09;
        kappa           0.41;
        E               9.8;
        value           nonuniform List<scalar> 9(7.36661e-05 7.03846e-05 6.89497e-05 6.80319e-05 6.68186e-05 6.48138e-05 6.25495e-05 5.99727e-05 5.66546e-05);
    }
    inlet
    {
        type            calculated;
        value           uniform 0.000100623;
    }
    outlet
    {
        type            calculated;
        value           nonuniform List<scalar> 2(0.00204527 0.00214303);
    }
}


// ************************************************************************* //
