/*--------------------------------*- C++ -*----------------------------------*\
  =========                 |
  \\      /  F ield         | OpenFOAM: The Open Source CFD Toolbox
   \\    /   O peration     | Website:  https://openfoam.org
    \\  /    A nd           | Version:  6
     \\/     M anipulation  |
\*---------------------------------------------------------------------------*/
FoamFile
{
    version     2.0;
    format      ascii;
    class       volScalarField;
    location    "400";
    object      nut;
}
// * * * * * * * * * * * * * * * * * * * * * * * * * * * * * * * * * * * * * //

dimensions      [0 2 -1 0 0 0 0];

internalField   nonuniform List<scalar> 
459
(
0.000712954
0.000722968
0.000582632
0.000579807
0.000598134
0.000618245
0.000639201
0.000661109
0.000684671
0.000708123
0.000729477
0.000747481
0.000760994
0.000768515
0.000764024
0.000331678
0.00037151
0.000388403
0.000335176
0.000269958
0.000228747
0.000214707
0.000226227
0.000248822
0.000275989
0.000302456
0.000323186
0.000329635
0.000330253
0.000332059
0.000338578
0.000361266
0.000348471
0.000317221
0.0013219
0.00258276
0.00145627
0.00226476
0.00254125
0.00267597
0.00280809
0.00293386
0.00303453
0.00310609
0.00313021
0.00307497
0.00288687
0.00247565
0.00174512
0.000842309
0.000573507
0.000492575
0.000917908
0.00105998
0.00103081
0.00079422
0.000483255
0.000369305
0.000468983
0.000651015
0.000850203
0.00102472
0.00114453
0.00117467
0.00116881
0.00117537
0.00125006
0.00100099
0.000821183
0.000372858
0.00185893
0.00476634
0.00190385
0.00268062
0.00375678
0.00407528
0.00424912
0.00438599
0.00448412
0.004541
0.00453345
0.00442203
0.00414481
0.00361725
0.00278739
0.00178609
0.000907764
0.000765903
0.00206979
0.00181509
0.00142433
0.000985135
0.000617851
0.000315578
0.000337303
0.000366944
0.000396679
0.00042688
0.000459236
0.000497509
0.000546842
0.000621206
0.00163777
0.0014643
0.00114922
0.000698885
0.00234441
0.00726802
0.00304923
0.00260663
0.00410494
0.00476954
0.00506936
0.00528525
0.00545602
0.00558525
0.00566693
0.00566159
0.00549981
0.00507541
0.00427117
0.00307283
0.00178279
0.00101152
0.00260118
0.00266873
0.00225827
0.00175593
0.00133423
0.000982617
0.000697765
0.000697286
0.00069935
0.000704708
0.000715832
0.000735743
0.000768202
0.000818755
0.000899274
0.0026478
0.0028239
0.00251683
0.000970176
0.00277451
0.00974178
0.00501824
0.00315523
0.00386423
0.00470226
0.00521448
0.00558897
0.00589971
0.00618001
0.00645946
0.00671927
0.00692332
0.00702055
0.00695292
0.00667965
0.00622508
0.00572076
0.00558211
0.00519451
0.00483179
0.00456508
0.00435438
0.00414367
0.00394789
0.00380454
0.00365457
0.00350246
0.00336532
0.00326626
0.00322626
0.00325579
0.00335419
0.0035276
0.00353906
0.00343266
0.00295337
0.00124981
0.00107721
0.00092974
0.00316174
0.0118108
0.00786406
0.00506787
0.00411376
0.00420928
0.00468617
0.0051815
0.00560412
0.00603984
0.00651602
0.00701567
0.0075017
0.00792559
0.00823253
0.00836675
0.00828726
0.00800878
0.00763122
0.00722441
0.0068662
0.00657812
0.00634361
0.00613704
0.00593397
0.00571656
0.00547077
0.00519068
0.0048825
0.0045712
0.00429693
0.00409352
0.00396302
0.0038738
0.0037753
0.00361192
0.00329574
0.0027811
0.00200448
0.000972999
0.00348026
0.0129138
0.0107398
0.00790307
0.00588137
0.00473901
0.00449795
0.00468567
0.00496333
0.00535608
0.00587952
0.00652098
0.00722035
0.0078949
0.00846562
0.00886233
0.00902863
0.00896166
0.00872977
0.00842417
0.00811632
0.00784147
0.00760699
0.00740575
0.00722205
0.00704005
0.00684377
0.00661122
0.00631603
0.00594076
0.00550066
0.00505355
0.00465943
0.00433373
0.00404331
0.00372459
0.00330121
0.00275903
0.00213038
0.000985347
0.00348218
0.011349
0.0102482
0.00953118
0.00795802
0.00647749
0.00553614
0.00505171
0.00486391
0.00489112
0.00513189
0.00560562
0.00628205
0.00706712
0.00783361
0.00846796
0.00887734
0.00904261
0.00901583
0.00886834
0.00866552
0.00845255
0.00825444
0.00808153
0.00793475
0.00781266
0.00771233
0.00762352
0.0075213
0.00736097
0.00708824
0.00668159
0.00617128
0.00561537
0.00506614
0.0045458
0.0039804
0.00343933
0.00301477
0.00151422
0.00330901
0.00380011
0.00936596
0.00996615
0.00869116
0.00731031
0.00622704
0.00548796
0.00503832
0.00481478
0.00480723
0.00501965
0.00543913
0.00602888
0.00671072
0.00737601
0.00791905
0.00828145
0.00846499
0.00850701
0.00845537
0.00835268
0.00823052
0.00810948
0.00800196
0.00791756
0.00786565
0.00785499
0.00788924
0.00795727
0.00801834
0.00799904
0.00789291
0.0077387
0.00760109
0.0073524
0.00689206
0.00602225
0.00589822
0.00167475
0.0202071
0.0182489
0.0104738
0.00811104
0.00690049
0.00612501
0.0056317
0.00535046
0.00523731
0.00525935
0.00539666
0.00563286
0.00595132
0.00632522
0.00671147
0.0070601
0.00733319
0.00751554
0.00761267
0.00764214
0.00762529
0.00758189
0.00752774
0.00747547
0.00743778
0.00742838
0.00745999
0.00753882
0.00765173
0.0077675
0.00785985
0.00788465
0.00776558
0.00741569
0.00682582
0.00599168
0.0050747
0.0016408
0.00692116
0.0141855
0.00997335
0.00773461
0.00652535
0.00581496
0.00540822
0.00521095
0.00516577
0.00523056
0.00536923
0.00555202
0.00575797
0.00597329
0.00618599
0.00638238
0.00654886
0.00667624
0.00676217
0.00681056
0.00682903
0.00682597
0.00680789
0.00677489
0.00673611
0.00670026
0.00667318
0.00665154
0.00663227
0.00661666
0.00659842
0.0065451
0.00637828
0.00607806
0.0056226
0.00496876
0.00465004
0.00153917
0.00162212
0.00231833
0.00487838
0.00440941
0.00365432
0.00305122
0.00260859
0.00228356
0.00204152
0.00186005
0.0017252
0.00162787
0.00156136
0.00151941
0.00149598
0.00148558
0.00148345
0.00148566
0.00148907
0.00149139
0.00149128
0.00148825
0.00148243
0.00147435
0.00146471
0.00145471
0.00144432
0.00143364
0.00142282
0.00141251
0.00140291
0.00139284
0.00137955
0.00136103
0.00134007
0.00131458
0.00128187
0.00124013
0.00124798
0.00111886
)
;

boundaryField
{
    floor
    {
        type            nutkWallFunction;
        Cmu             0.09;
        kappa           0.41;
        E               9.8;
        value           nonuniform List<scalar> 
29
(
9.25414e-05
3.76774e-05
4.30002e-05
4.52351e-05
3.81453e-05
2.92518e-05
2.34923e-05
2.15e-05
2.31391e-05
2.63198e-05
3.00931e-05
3.37218e-05
3.65351e-05
3.74061e-05
3.749e-05
3.77339e-05
3.86104e-05
4.16437e-05
3.99368e-05
3.57302e-05
3.57301e-05
4.31839e-05
8.45894e-05
0.000117224
9.25414e-05
3.76774e-05
5.87605e-05
9.27685e-05
0.000122086
)
;
    }
    ceiling
    {
        type            nutkWallFunction;
        Cmu             0.09;
        kappa           0.41;
        E               9.8;
        value           nonuniform List<scalar> 
43
(
0.000192005
0.000268209
0.000531807
0.000484787
0.000408067
0.00034566
0.000299067
0.000264336
0.000238136
0.000218277
0.000203384
0.000192556
0.000185116
0.000180404
0.000177765
0.00017659
0.000176348
0.000176595
0.000176977
0.000177237
0.000177224
0.00017688
0.000176223
0.000175311
0.000174222
0.000173092
0.000171917
0.000170709
0.000169483
0.000168315
0.000167225
0.000166082
0.000164573
0.000162467
0.000160079
0.000157171
0.000153432
0.000148644
0.000149545
0.000134634
0.00037232
0.000422773
0.000731762
)
;
    }
    sWall
    {
        type            nutkWallFunction;
        Cmu             0.09;
        kappa           0.41;
        E               9.8;
        value           uniform 0.000192045;
    }
    nWall
    {
        type            nutkWallFunction;
        Cmu             0.09;
        kappa           0.41;
        E               9.8;
        value           nonuniform List<scalar> 6(0.00011244 0.000117562 0.000119019 0.000193954 0.000182589 0.000134642);
    }
    sideWalls
    {
        type            empty;
    }
    glass1
    {
        type            nutkWallFunction;
        Cmu             0.09;
        kappa           0.41;
        E               9.8;
        value           nonuniform List<scalar> 9(8.62775e-05 0.000158162 0.000218334 0.000271086 0.000316847 0.000357415 0.000390404 0.000390616 0.000372744);
    }
    glass2
    {
        type            nutkWallFunction;
        Cmu             0.09;
        kappa           0.41;
        E               9.8;
        value           nonuniform List<scalar> 2(0.000179834 0.000197781);
    }
    sun
    {
        type            nutkWallFunction;
        Cmu             0.09;
        kappa           0.41;
        E               9.8;
        value           nonuniform List<scalar> 
14
(
8.63082e-05
8.7534e-05
7.01657e-05
6.9813e-05
7.21096e-05
7.46197e-05
7.72248e-05
7.99373e-05
8.28425e-05
8.57224e-05
8.83346e-05
9.053e-05
9.21736e-05
9.30867e-05
)
;
    }
    heatsource1
    {
        type            nutkWallFunction;
        Cmu             0.09;
        kappa           0.41;
        E               9.8;
        value           nonuniform List<scalar> 3(0.000149768 0.000129794 0.000112437);
    }
    heatsource2
    {
        type            nutkWallFunction;
        Cmu             0.09;
        kappa           0.41;
        E               9.8;
        value           nonuniform List<scalar> 4(0.000101993 6.90247e-05 6.90247e-05 0.000109815);
    }
    Table_master
    {
        type            nutkWallFunction;
        Cmu             0.09;
        kappa           0.41;
        E               9.8;
        value           nonuniform List<scalar> 9(3.55115e-05 3.84414e-05 4.24e-05 4.63305e-05 5.02846e-05 5.44819e-05 5.93997e-05 6.56702e-05 7.49941e-05);
    }
    Table_slave
    {
        type            nutkWallFunction;
        Cmu             0.09;
        kappa           0.41;
        E               9.8;
        value           nonuniform List<scalar> 9(8.44455e-05 8.43866e-05 8.464e-05 8.52972e-05 8.66601e-05 8.90936e-05 9.3044e-05 9.91577e-05 0.000108805);
    }
    inlet
    {
        type            calculated;
        value           uniform 0.0202071;
    }
    outlet
    {
        type            calculated;
        value           nonuniform List<scalar> 2(0.00162212 0.00231833);
    }
}


// ************************************************************************* //
