/*--------------------------------*- C++ -*----------------------------------*\
  =========                 |
  \\      /  F ield         | OpenFOAM: The Open Source CFD Toolbox
   \\    /   O peration     | Website:  https://openfoam.org
    \\  /    A nd           | Version:  6
     \\/     M anipulation  |
\*---------------------------------------------------------------------------*/
FoamFile
{
    version     2.0;
    format      ascii;
    class       volScalarField;
    location    "100";
    object      nut;
}
// * * * * * * * * * * * * * * * * * * * * * * * * * * * * * * * * * * * * * //

dimensions      [0 2 -1 0 0 0 0];

internalField   nonuniform List<scalar> 
459
(
0.000723289
0.000748108
0.000729153
0.000753279
0.000774577
0.000792862
0.000808792
0.000823118
0.000836647
0.00085034
0.000861462
0.000869352
0.000874083
0.000877129
0.000878651
0.000725236
0.0006894
0.000654778
0.000636245
0.000624451
0.000607637
0.000578556
0.000549794
0.00052237
0.000496469
0.000472325
0.000450041
0.000429602
0.000410883
0.000393592
0.000377219
0.000361386
0.000361566
0.000340971
0.00113844
0.00171101
0.0013811
0.00163728
0.00174118
0.00185406
0.00196788
0.00207216
0.00215275
0.00219233
0.00220125
0.00215554
0.00202482
0.00176742
0.00135357
0.000921916
0.000853726
0.000872534
0.00170256
0.00225549
0.0026254
0.00274368
0.00256792
0.00199679
0.00167957
0.00144934
0.00127526
0.00113916
0.00103062
0.000942068
0.000866542
0.000797843
0.000739981
0.000690654
0.000900941
0.000469746
0.0015224
0.00267211
0.00145322
0.00229501
0.00245721
0.00256738
0.00265641
0.00272667
0.00277893
0.00280835
0.00281352
0.00276975
0.00264609
0.00240618
0.00203192
0.00157102
0.0010492
0.00102012
0.00306238
0.00375589
0.00389113
0.00375847
0.00307422
0.000759429
0.000650279
0.000575925
0.000522997
0.000483499
0.000452759
0.000428116
0.000408261
0.00039346
0.000454939
0.000546187
0.00107481
0.00056862
0.00191459
0.00411845
0.00143544
0.00257743
0.00287339
0.00296578
0.00302221
0.00306248
0.00309464
0.00311855
0.00313579
0.00313307
0.00308685
0.0029578
0.0026885
0.00223068
0.0016334
0.0011561
0.00346888
0.00390839
0.00411567
0.00412644
0.00394527
0.00324325
0.000781344
0.000736561
0.000722425
0.000716395
0.000708501
0.000692204
0.000663501
0.000633821
0.000598389
0.000584593
0.000615467
0.00137529
0.000630559
0.00230543
0.00596345
0.00177307
0.00246102
0.00305835
0.00315818
0.00319191
0.00320926
0.00322552
0.00324642
0.00327361
0.00331375
0.00335331
0.00337044
0.00334202
0.00326605
0.00319534
0.0032103
0.00346018
0.00376194
0.0039611
0.00397662
0.00390673
0.00372534
0.0032749
0.00322295
0.00322475
0.00320932
0.00314984
0.00303319
0.00284388
0.0024726
0.00201706
0.00156722
0.00117985
0.00124483
0.000910868
0.000746238
0.000876393
0.000987072
0.00269219
0.00785265
0.00289948
0.0021056
0.00296679
0.00319619
0.0032604
0.00327512
0.00326675
0.00326057
0.00327598
0.00333378
0.00340844
0.00347096
0.00347843
0.00337893
0.00315543
0.00292601
0.00295563
0.00342535
0.00379807
0.00383549
0.00380633
0.00378775
0.00377936
0.00381887
0.00384485
0.00382437
0.00375201
0.00363643
0.00349208
0.003254
0.00287681
0.00238366
0.00186468
0.00135227
0.00117189
0.00104713
0.0014746
0.00105098
0.00308443
0.00936093
0.00533313
0.00249563
0.00218651
0.00262865
0.00302339
0.00325872
0.0033543
0.00324976
0.00323858
0.00329263
0.00337527
0.00346511
0.00352197
0.00346771
0.00319964
0.00274993
0.00253624
0.00312572
0.00376133
0.00381462
0.00377907
0.00377949
0.00381548
0.00385731
0.00386708
0.00382169
0.0037332
0.00362953
0.00354156
0.00347652
0.00324871
0.00283283
0.00236462
0.00188597
0.0016337
0.00164472
0.00174642
0.00127377
0.00319446
0.00970283
0.0073845
0.00516211
0.00347281
0.00268158
0.00265658
0.00296973
0.00327947
0.00324099
0.00320901
0.0032269
0.00328543
0.00336737
0.00344904
0.00348182
0.00332839
0.00278757
0.00224116
0.00282253
0.00382169
0.00389859
0.00384721
0.00383762
0.00384815
0.00384145
0.00379073
0.00369188
0.00357219
0.00348214
0.00346766
0.00354815
0.00364649
0.00335476
0.00310407
0.0030854
0.00351202
0.00436989
0.0053085
0.00180257
0.0031389
0.00383657
0.00425723
0.00428579
0.00395231
0.00349645
0.00315216
0.00298311
0.00294259
0.00294655
0.00299193
0.00306357
0.00314713
0.0032312
0.00330971
0.00337262
0.00333964
0.00290832
0.00206712
0.00248861
0.00393807
0.00405454
0.00399566
0.00398725
0.00397172
0.00391238
0.0037893
0.00359926
0.00336889
0.00315118
0.00299273
0.00290247
0.00285955
0.00283893
0.00285843
0.00289568
0.00285903
0.00268026
0.00244644
0.00164265
0.00233349
0.00353276
0.00379774
0.0036786
0.0034857
0.00332755
0.00322529
0.00316246
0.00313645
0.00313239
0.00313617
0.00314092
0.0031524
0.00318776
0.00320296
0.00282883
0.00193521
0.00216482
0.00408131
0.00421841
0.00418224
0.00424031
0.00426039
0.00421938
0.00410922
0.00391877
0.00366019
0.00338193
0.00315489
0.00303238
0.00298828
0.00298527
0.00298897
0.00294665
0.00279408
0.00250443
0.00211369
0.00135802
0.00243449
0.00404079
0.00420091
0.00402819
0.00383224
0.00364437
0.0034771
0.00332997
0.0031647
0.00297963
0.00279636
0.00263341
0.00251058
0.00245048
0.00243305
0.00223867
0.00163377
0.00181348
0.00391906
0.00389695
0.00394151
0.00406059
0.00411523
0.00411719
0.00407853
0.00399679
0.00387324
0.00371544
0.00352955
0.00341242
0.00336743
0.00337247
0.00339013
0.00340416
0.00336885
0.0032858
0.00267492
0.0013838
0.00217115
0.00226195
0.00234511
0.00247608
0.00231136
0.0020978
0.00195156
0.00182243
0.00170632
0.00160141
0.00150944
0.00142835
0.001354
0.00128449
0.00121943
0.00115966
0.0011063
0.00105705
0.00100529
0.00103389
0.00113594
0.00110933
0.00111223
0.00111755
0.00111949
0.0011193
0.00111914
0.00112154
0.00112993
0.00114882
0.00118431
0.00123092
0.00129094
0.00136218
0.00144225
0.00154632
0.00157127
0.00153101
0.00142651
0.00131511
)
;

boundaryField
{
    floor
    {
        type            nutkWallFunction;
        Cmu             0.09;
        kappa           0.41;
        E               9.8;
        value           nonuniform List<scalar> 
29
(
0.000106331
8.78279e-05
8.34362e-05
7.91696e-05
7.68743e-05
7.54095e-05
7.33165e-05
6.96802e-05
6.60617e-05
6.25898e-05
5.92897e-05
5.61941e-05
5.33194e-05
5.0667e-05
4.82238e-05
4.59543e-05
4.37935e-05
4.16925e-05
4.17148e-05
3.8962e-05
3.89619e-05
5.58573e-05
6.84279e-05
7.61655e-05
0.000106331
8.78279e-05
0.00010561
0.000123076
0.000138902
)
;
    }
    ceiling
    {
        type            nutkWallFunction;
        Cmu             0.09;
        kappa           0.41;
        E               9.8;
        value           nonuniform List<scalar> 
43
(
0.000251797
0.000261569
0.000270485
0.000284535
0.000266966
0.000243964
0.000228062
0.000213913
0.000201098
0.000189435
0.000179144
0.000170012
0.000161588
0.000153667
0.000146209
0.000139319
0.000133132
0.000127392
0.000121324
0.000124705
0.000136586
0.000133492
0.000133826
0.000134442
0.000134667
0.000134645
0.000134626
0.000134904
0.000135878
0.000138065
0.000142166
0.000147531
0.000154405
0.000162519
0.000171582
0.000183282
0.000186073
0.000181567
0.000169807
0.000157165
0.000354473
0.000426216
0.000279969
)
;
    }
    sWall
    {
        type            nutkWallFunction;
        Cmu             0.09;
        kappa           0.41;
        E               9.8;
        value           uniform 0.000251865;
    }
    nWall
    {
        type            nutkWallFunction;
        Cmu             0.09;
        kappa           0.41;
        E               9.8;
        value           nonuniform List<scalar> 6(0.000119189 0.000126687 0.000152448 0.000162063 0.00016499 0.000157179);
    }
    sideWalls
    {
        type            empty;
    }
    glass1
    {
        type            nutkWallFunction;
        Cmu             0.09;
        kappa           0.41;
        E               9.8;
        value           nonuniform List<scalar> 9(8.75516e-05 0.00013701 0.000180876 0.000224414 0.000266842 0.000308076 0.000349264 0.000360728 0.000354968);
    }
    glass2
    {
        type            nutkWallFunction;
        Cmu             0.09;
        kappa           0.41;
        E               9.8;
        value           nonuniform List<scalar> 2(0.000211871 0.000194159);
    }
    sun
    {
        type            nutkWallFunction;
        Cmu             0.09;
        kappa           0.41;
        E               9.8;
        value           nonuniform List<scalar> 
14
(
8.75816e-05
9.06076e-05
8.82985e-05
9.12363e-05
9.38204e-05
9.60323e-05
9.79544e-05
9.96791e-05
0.000101305
0.000102947
0.000104278
0.000105221
0.000105786
0.000106149
)
;
    }
    heatsource1
    {
        type            nutkWallFunction;
        Cmu             0.09;
        kappa           0.41;
        E               9.8;
        value           nonuniform List<scalar> 3(9.03788e-05 0.000106059 0.000119179);
    }
    heatsource2
    {
        type            nutkWallFunction;
        Cmu             0.09;
        kappa           0.41;
        E               9.8;
        value           nonuniform List<scalar> 4(0.000111477 0.000103354 0.000103354 0.000126467);
    }
    Table_master
    {
        type            nutkWallFunction;
        Cmu             0.09;
        kappa           0.41;
        E               9.8;
        value           nonuniform List<scalar> 9(9.19891e-05 7.86211e-05 6.93611e-05 6.2681e-05 5.76419e-05 5.36848e-05 5.04884e-05 4.78963e-05 4.59538e-05);
    }
    Table_slave
    {
        type            nutkWallFunction;
        Cmu             0.09;
        kappa           0.41;
        E               9.8;
        value           nonuniform List<scalar> 9(9.46455e-05 8.92068e-05 8.74813e-05 8.67436e-05 8.57772e-05 8.37789e-05 8.02472e-05 7.65758e-05 7.21654e-05);
    }
    inlet
    {
        type            calculated;
        value           uniform 0.000100623;
    }
    outlet
    {
        type            calculated;
        value           nonuniform List<scalar> 2(0.00217115 0.00226195);
    }
}


// ************************************************************************* //
