/*--------------------------------*- C++ -*----------------------------------*\
  =========                 |
  \\      /  F ield         | OpenFOAM: The Open Source CFD Toolbox
   \\    /   O peration     | Website:  https://openfoam.org
    \\  /    A nd           | Version:  6
     \\/     M anipulation  |
\*---------------------------------------------------------------------------*/
FoamFile
{
    version     2.0;
    format      ascii;
    class       volScalarField;
    location    "700";
    object      epsilon;
}
// * * * * * * * * * * * * * * * * * * * * * * * * * * * * * * * * * * * * * //

dimensions      [0 2 -3 0 0 0 0];

internalField   nonuniform List<scalar> 
459
(
0.000241679
0.000295417
0.000303517
0.000341227
0.000376799
0.000410557
0.000443704
0.000478064
0.000511439
0.000535233
0.000541921
0.000524014
0.000479055
0.00041359
0.00034297
2.39425e-05
3.945e-05
5.0224e-05
4.62146e-05
4.05431e-05
3.49175e-05
2.96811e-05
2.52911e-05
2.17452e-05
1.8888e-05
1.65685e-05
1.46639e-05
1.30906e-05
1.17593e-05
1.05933e-05
9.5132e-06
8.42628e-06
7.89785e-06
6.3898e-06
0.000673421
0.00118401
0.000273384
0.00025547
0.00025669
0.000264496
0.000280407
0.000307571
0.000344581
0.000382005
0.000407427
0.000408365
0.00038
0.000329704
0.000288698
0.000344963
7.37034e-05
2.83467e-05
6.33453e-05
6.37268e-05
5.61351e-05
4.63712e-05
3.75353e-05
3.18211e-05
2.59716e-05
2.1133e-05
1.73048e-05
1.42971e-05
1.1924e-05
1.00752e-05
8.64638e-06
7.65532e-06
7.25454e-06
7.40145e-06
2.49506e-05
1.56904e-05
0.00131914
0.00329503
0.000348392
0.000237877
0.000234595
0.00024778
0.000272659
0.000310801
0.000360216
0.00040862
0.000437594
0.000435116
0.000403835
0.000356798
0.000316214
0.000298892
0.000233997
0.000182798
0.000131515
9.58731e-05
7.1222e-05
5.43913e-05
4.37065e-05
6.81523e-05
5.24423e-05
4.11384e-05
3.29428e-05
2.69112e-05
2.23973e-05
1.89606e-05
1.63179e-05
1.42815e-05
1.12595e-05
9.84782e-06
4.87093e-05
2.57132e-05
0.00229532
0.00735876
0.000594698
0.000232888
0.000219392
0.000238116
0.000271614
0.000324027
0.000395447
0.000459892
0.000487921
0.000471713
0.00042503
0.000367128
0.000315808
0.000287922
0.000291255
0.000434356
0.000265416
0.000155937
0.000100329
7.00267e-05
5.25264e-05
4.4075e-05
9.27663e-05
8.01335e-05
7.26246e-05
6.72961e-05
6.21595e-05
5.67483e-05
5.13673e-05
4.55326e-05
3.86836e-05
2.40634e-05
1.63851e-05
8.49051e-05
3.57838e-05
0.00373128
0.0137951
0.00128059
0.000254588
0.000202028
0.000221409
0.000266301
0.000349639
0.00047142
0.00056072
0.000581917
0.000542431
0.00047005
0.000387988
0.000311189
0.000237215
0.000177589
0.000148803
0.000114706
8.63151e-05
6.61244e-05
5.29116e-05
4.4909e-05
4.13305e-05
4.35038e-05
4.56078e-05
4.71358e-05
4.73426e-05
4.56975e-05
4.23554e-05
3.86487e-05
3.50065e-05
3.16083e-05
2.61105e-05
2.05364e-05
5.9499e-05
4.15292e-05
8.17249e-05
0.000140024
0.00019216
0.00580953
0.0210366
0.00318956
0.000437882
0.000223358
0.000215033
0.00026165
0.000421025
0.000627752
0.00072858
0.000722263
0.000644999
0.000537376
0.000431844
0.000330662
0.000227971
0.000143956
9.69673e-05
7.54411e-05
6.26948e-05
5.30516e-05
4.72162e-05
4.5224e-05
4.66893e-05
5.12592e-05
5.68924e-05
6.15929e-05
6.40732e-05
6.32404e-05
5.81829e-05
5.01423e-05
4.20084e-05
3.48175e-05
2.87745e-05
2.53617e-05
4.14704e-05
4.25313e-05
5.72496e-05
0.000262197
0.00021541
0.00864517
0.0253058
0.00776057
0.00179734
0.000750744
0.000473959
0.000454425
0.000758399
0.000951863
0.000991194
0.00091819
0.000778602
0.000621222
0.000483978
0.000359993
0.000233439
0.000131161
7.66408e-05
5.76616e-05
5.09086e-05
4.75494e-05
4.76154e-05
5.08876e-05
5.68378e-05
6.53204e-05
7.46444e-05
8.34165e-05
9.05557e-05
9.45986e-05
9.33681e-05
8.27451e-05
7.0121e-05
5.83041e-05
4.87475e-05
4.51319e-05
5.34024e-05
6.87766e-05
0.000118936
0.00030831
0.0002802
0.00955103
0.0311212
0.0156873
0.00867302
0.00471596
0.00271047
0.00192937
0.00174487
0.00159533
0.00141151
0.0011764
0.000921388
0.000692912
0.000524925
0.000383097
0.000229915
0.000110111
5.68258e-05
4.73046e-05
4.62121e-05
4.79525e-05
5.2267e-05
5.89626e-05
6.78493e-05
7.88017e-05
9.13785e-05
0.000105209
0.000120131
0.000135949
0.000152017
0.000166133
0.00016757
0.000170699
0.000183858
0.000214539
0.00032749
0.000638729
0.00136086
0.00440034
0.00120358
0.00910318
0.016459
0.013426
0.0100234
0.00724833
0.00520576
0.00393436
0.00303731
0.00239417
0.00187701
0.00139989
0.000996127
0.000699603
0.000527102
0.000378357
0.000185197
7.43824e-05
4.76308e-05
4.3778e-05
4.53819e-05
4.93745e-05
5.5296e-05
6.30612e-05
7.27242e-05
8.44197e-05
9.83367e-05
0.000114871
0.000134791
0.000159366
0.000190497
0.000230892
0.000284502
0.000359822
0.000478992
0.000657972
0.00090482
0.00118924
0.00143398
0.00160592
0.000973385
0.00582196
0.00742612
0.00619832
0.00493592
0.00395698
0.00317316
0.00249038
0.00185706
0.00126226
0.000830327
0.000555242
0.000459087
0.000295221
0.000123691
6.25228e-05
4.73467e-05
4.50132e-05
4.65587e-05
4.99994e-05
5.48931e-05
6.11649e-05
6.88819e-05
7.82104e-05
8.94366e-05
0.000103057
0.000119918
0.000141403
0.000169715
0.000208354
0.000262572
0.000338459
0.000444698
0.000585317
0.000746239
0.000881814
0.00092976
0.000846448
0.000533609
0.00415786
0.00691112
0.00571499
0.00432131
0.00324443
0.0024099
0.00178467
0.00125054
0.000767473
0.000464985
0.000233833
0.000131935
8.74631e-05
6.23393e-05
5.12813e-05
4.61597e-05
4.43974e-05
4.48065e-05
4.68141e-05
5.02154e-05
5.50108e-05
6.13376e-05
6.94601e-05
7.97952e-05
9.29659e-05
0.000109888
0.000131907
0.000161012
0.000199903
0.000252229
0.000323298
0.000418742
0.000539814
0.000678108
0.000784333
0.000896152
0.00074497
0.000553688
0.00278704
0.00323436
0.0036453
0.00431161
0.00350763
0.00267095
0.00193
0.00136643
0.000939479
0.000664264
0.000301163
9.21695e-05
6.70925e-05
6.24831e-05
5.55311e-05
4.88606e-05
4.64552e-05
4.74783e-05
5.01782e-05
5.41486e-05
5.92462e-05
6.54724e-05
7.29072e-05
8.16863e-05
9.20017e-05
0.000104116
0.000118399
0.000135395
0.000155963
0.000181562
0.00021335
0.000252622
0.000301586
0.000363359
0.00044181
0.000558074
0.000602885
0.000565844
0.000464657
0.000370399
)
;

boundaryField
{
    floor
    {
        Cmu             0.09;
        kappa           0.41;
        E               9.8;
        type            epsilonWallFunction;
        value           nonuniform List<scalar> 
29
(
0.00034297
2.39425e-05
3.945e-05
5.0224e-05
4.62146e-05
4.05431e-05
3.49175e-05
2.96811e-05
2.52911e-05
2.17452e-05
1.8888e-05
1.65685e-05
1.46639e-05
1.30906e-05
1.17593e-05
1.05933e-05
9.5132e-06
8.42628e-06
7.89785e-06
6.3898e-06
6.3898e-06
1.56904e-05
2.57132e-05
3.57838e-05
0.00034297
2.39425e-05
2.83467e-05
0.000182798
0.000434356
)
;
    }
    ceiling
    {
        Cmu             0.09;
        kappa           0.41;
        E               9.8;
        type            epsilonWallFunction;
        value           nonuniform List<scalar> 
43
(
0.00278704
0.00323436
0.0036453
0.00431161
0.00350763
0.00267095
0.00193
0.00136643
0.000939479
0.000664264
0.000301163
9.21695e-05
6.70925e-05
6.24831e-05
5.55311e-05
4.88606e-05
4.64552e-05
4.74783e-05
5.01782e-05
5.41486e-05
5.92462e-05
6.54724e-05
7.29072e-05
8.16863e-05
9.20017e-05
0.000104116
0.000118399
0.000135395
0.000155963
0.000181562
0.00021335
0.000252622
0.000301586
0.000363359
0.00044181
0.000558074
0.000602885
0.000565844
0.000464657
0.000370399
0.00910318
0.016459
0.00415786
)
;
    }
    sWall
    {
        Cmu             0.09;
        kappa           0.41;
        E               9.8;
        type            epsilonWallFunction;
        value           uniform 0.00278704;
    }
    nWall
    {
        Cmu             0.09;
        kappa           0.41;
        E               9.8;
        type            epsilonWallFunction;
        value           nonuniform List<scalar> 6(0.00019216 0.00021541 0.0002802 0.000533609 0.000553688 0.000370399);
    }
    sideWalls
    {
        type            empty;
    }
    glass1
    {
        Cmu             0.09;
        kappa           0.41;
        E               9.8;
        type            epsilonWallFunction;
        value           nonuniform List<scalar> 9(0.000241679 0.000673421 0.00131914 0.00229532 0.00373128 0.00580953 0.00864517 0.00955103 0.00910318);
    }
    glass2
    {
        Cmu             0.09;
        kappa           0.41;
        E               9.8;
        type            epsilonWallFunction;
        value           nonuniform List<scalar> 2(0.00120358 0.000973385);
    }
    sun
    {
        Cmu             0.09;
        kappa           0.41;
        E               9.8;
        type            epsilonWallFunction;
        value           nonuniform List<scalar> 
14
(
0.000241679
0.000295417
0.000303517
0.000341227
0.000376799
0.000410557
0.000443704
0.000478064
0.000511439
0.000535233
0.000541921
0.000524014
0.000479055
0.00041359
)
;
    }
    heatsource1
    {
        Cmu             0.09;
        kappa           0.41;
        E               9.8;
        type            epsilonWallFunction;
        value           nonuniform List<scalar> 3(8.17249e-05 0.000140024 0.00019216);
    }
    heatsource2
    {
        Cmu             0.09;
        kappa           0.41;
        E               9.8;
        type            epsilonWallFunction;
        value           nonuniform List<scalar> 4(0.000344963 7.37034e-05 7.37034e-05 0.000233997);
    }
    Table_master
    {
        Cmu             0.09;
        kappa           0.41;
        E               9.8;
        type            epsilonWallFunction;
        value           nonuniform List<scalar> 9(6.81523e-05 5.24423e-05 4.11384e-05 3.29428e-05 2.69112e-05 2.23973e-05 1.89606e-05 1.63179e-05 1.42815e-05);
    }
    Table_slave
    {
        Cmu             0.09;
        kappa           0.41;
        E               9.8;
        type            epsilonWallFunction;
        value           nonuniform List<scalar> 9(9.27663e-05 8.01335e-05 7.26246e-05 6.72961e-05 6.21595e-05 5.67483e-05 5.13673e-05 4.55326e-05 3.86836e-05);
    }
    inlet
    {
        type            turbulentMixingLengthDissipationRateInlet;
        mixingLength    0.01;
        phi             phi;
        k               k;
        value           uniform 0.000101881;
    }
    outlet
    {
        type            zeroGradient;
    }
}


// ************************************************************************* //
