/*--------------------------------*- C++ -*----------------------------------*\
  =========                 |
  \\      /  F ield         | OpenFOAM: The Open Source CFD Toolbox
   \\    /   O peration     | Website:  https://openfoam.org
    \\  /    A nd           | Version:  6
     \\/     M anipulation  |
\*---------------------------------------------------------------------------*/
FoamFile
{
    version     2.0;
    format      ascii;
    class       surfaceScalarField;
    location    "1300";
    object      phi;
}
// * * * * * * * * * * * * * * * * * * * * * * * * * * * * * * * * * * * * * //

dimensions      [1 0 -1 0 0 0 0];

internalField   nonuniform List<scalar> 
852
(
-0.00295973
0.00301701
-0.00400253
0.00104279
-0.00480368
0.00080115
-0.00542655
0.000622878
-0.00583769
0.000411132
-0.00600893
0.000171246
-0.00591213
-9.68038e-05
-0.00552572
-0.000386408
-0.00486659
-0.00065913
-0.00400089
-0.000865696
-0.0030295
-0.000971395
-0.00206456
-0.000964935
-0.00120892
-0.000855645
-0.000525855
-0.000683064
-0.000524196
-0.000780593
0.000783549
-0.000529224
-0.000251369
6.49691e-05
-0.000594193
0.000569371
-0.000504402
0.000921629
-0.000352258
0.00115268
-0.000231055
0.00128197
-0.000129285
0.00134461
-6.26404e-05
0.00137939
-3.47856e-05
0.00140095
-2.15595e-05
0.00141335
-1.23916e-05
0.00141813
-4.78372e-06
0.00141398
4.1499e-06
0.00139337
2.06101e-05
0.00133514
5.82333e-05
0.00120366
0.000131475
0.000986293
0.000217367
0.000717188
0.000269105
0.000721135
-0.00212028
0.00529164
-0.00314188
0.0020644
-0.0039712
0.00163047
-0.00459022
0.00124189
-0.00499982
0.00082074
-0.0051807
0.000352122
-0.00510141
-0.00017609
-0.00474482
-0.000743001
-0.00414049
-0.00126347
-0.00336505
-0.00164113
-0.00251736
-0.00181909
-0.00169204
-0.00179025
-0.000969631
-0.00157805
-0.000422932
-0.00122976
-0.000152759
-0.000794369
0.000126346
-0.000279156
0.000126294
0.00024482
0.000547348
0.00065138
-0.00065793
0.000922074
-0.000864886
0.00114906
-0.000731386
0.00133034
-0.000533537
0.00144822
-0.000348942
0.00146954
-0.000150598
0.00147472
-6.78271e-05
0.001481
-4.10598e-05
0.00148627
-2.68343e-05
0.00148977
-1.58896e-05
0.00149167
-6.68399e-06
0.00149135
4.47313e-06
0.00148558
2.6375e-05
0.00144669
9.71247e-05
0.00128002
0.000298143
0.000990007
0.000507385
0.00062564
0.000633473
0.00135685
-0.00148995
0.00701777
-0.00237302
0.00294746
-0.0031136
0.00237106
-0.00364886
0.00177715
-0.00401252
0.00118439
-0.00417993
0.000519538
-0.00409671
-0.000259313
-0.00373826
-0.00110145
-0.00316022
-0.00184151
-0.00245663
-0.00234472
-0.00172293
-0.00255279
-0.00103104
-0.00248215
-0.000432721
-0.00217637
3.85779e-05
-0.00170106
0.000347922
-0.00110371
0.000483745
-0.000414978
0.000610039
0.0014939
-0.000937096
0.00171483
-0.000878865
0.00167465
-0.000824703
0.00166473
-0.000721465
0.00169059
-0.000559397
0.00173525
-0.000393608
0.00158481
0.00151713
0.00147623
0.00144955
0.00143381
0.00142728
0.00143191
0.00145843
0.00155571
0.00128588
0.000567972
0.000954952
0.000838316
0.000536857
0.00105157
0.00190896
-0.00104297
0.00836659
-0.00174447
0.00364896
-0.00224201
0.0028686
-0.00260032
0.00213546
-0.00285038
0.00143446
-0.00295444
0.000623602
-0.00281585
-0.000397901
-0.00242059
-0.00149671
-0.00187132
-0.00239078
-0.00127013
-0.00294591
-0.000692621
-0.00313029
-0.000177328
-0.00299744
0.000260247
-0.00261394
0.000621742
-0.00206256
0.000943729
-0.0014257
0.00130766
-0.000778909
0.00216006
-0.000242356
0.00250885
-0.000340469
0.00216159
-0.000589831
0.00202496
-0.000742236
0.00189385
-0.000693591
0.001776
-0.000603616
0.0017002
-0.000483601
0.00163738
-0.000330787
0.00177966
-0.000142426
0.00186581
-8.63071e-05
0.00193441
-6.87516e-05
0.00198776
-5.34998e-05
0.00201199
-2.43842e-05
0.00198561
2.62268e-05
0.00188319
0.00010226
0.00167122
0.000211819
0.00129449
0.000376584
0.0011357
0.000726762
0.000826007
0.001148
0.000362925
0.00151465
0.00229179
-0.000728507
0.00946012
-0.00126094
0.00418139
-0.00138256
0.00299022
-0.00147507
0.00222797
-0.0015359
0.00149529
-0.00149193
0.000579633
-0.0012119
-0.000677932
-0.000768101
-0.00194051
-0.000291764
-0.00286712
0.000138835
-0.00337651
0.000490424
-0.00348188
0.000758934
-0.00326595
0.000967236
-0.00282224
0.00114464
-0.00223996
0.00132527
-0.00160633
0.00155724
-0.00101088
0.0018842
-0.00056932
0.00198918
-0.000445449
0.00190667
-0.000507321
0.0017295
-0.000565058
0.00156898
-0.000533072
0.00143085
-0.000465484
0.00132881
-0.000381569
0.00127902
-0.000280992
0.00132018
-0.000183591
0.00137279
-0.000138911
0.00142972
-0.000125686
0.00148789
-0.000111672
0.00153701
-7.34984e-05
0.0015569
6.33381e-06
0.0015261
0.000133063
0.00143237
0.000305551
0.0012764
0.000532554
0.00113143
0.000871724
0.000968926
0.00131051
0.00061831
0.00186526
0.000524932
0.00238516
-0.00098326
0.00150799
-0.00144819
0.000464727
-0.0013999
-0.000630572
0.0105056
-0.000995535
0.00454635
-0.000600578
0.00259526
-0.000305307
0.0019327
-8.84105e-05
0.00127839
0.000242232
0.00024899
0.000728014
-0.00116371
0.00116614
-0.00237864
0.00147691
-0.00317788
0.00164777
-0.00354737
0.00170578
-0.00353989
0.00168273
-0.0032429
0.00161205
-0.00275157
0.00153143
-0.00215934
0.00147409
-0.00154899
0.00146497
-0.00100176
0.00149683
-0.000601174
0.00146507
-0.000413692
0.00133982
-0.000382072
0.0011603
-0.000385539
0.000994682
-0.00036745
0.000861971
-0.000332773
0.000770607
-0.000290204
0.000731654
-0.00024204
0.000749183
-0.000201119
0.000798042
-0.00018777
0.000863836
-0.000191481
0.000940689
-0.000188525
0.00102275
-0.000155556
0.00109858
-6.94961e-05
0.00114988
8.17571e-05
0.00117097
0.000284463
0.0011705
0.000533022
0.00119277
0.000849459
0.00128404
0.00121924
0.00146073
0.00168858
0.00190084
0.00194505
0.00216136
0.00124747
0.00177127
0.00085481
0.000429389
-0.000715409
0.0116805
-0.000600121
0.00443106
0.000477984
0.00151716
0.00116081
0.00124988
0.00174498
0.000694219
0.00239543
-0.000401462
0.00294646
-0.00171475
0.00324831
-0.00268048
0.00329561
-0.00322519
0.0031347
-0.00338646
0.00283032
-0.00323552
0.00244662
-0.0028592
0.00203899
-0.00234394
0.0016559
-0.00177625
0.00132987
-0.00122295
0.00108102
-0.000752916
0.00090573
-0.000425887
0.000756219
-0.000264182
0.000596863
-0.000222715
0.000435507
-0.000224184
0.000295512
-0.000227456
0.000188536
-0.000225797
0.000119425
-0.000221093
9.29912e-05
-0.000215606
0.000108036
-0.000216164
0.000150874
-0.000230609
0.000210685
-0.000251291
0.000285352
-0.000263192
0.000378732
-0.000248936
0.000495809
-0.000186573
0.000625333
-4.77669e-05
0.000755658
0.000154138
0.000896282
0.000392398
0.00108487
0.000660874
0.00136786
0.000936247
0.00181084
0.0012456
0.00247988
0.00127602
0.00302358
0.000703757
0.00304206
0.000836338
0.00353388
0.00260502
0.00958886
0.00328418
0.0037519
0.00345274
0.0013486
0.00391292
0.0007897
0.00461201
-4.87197e-06
0.00530358
-0.00109304
0.00558113
-0.00199229
0.00545015
-0.0025495
0.00500013
-0.00277517
0.00433664
-0.00272297
0.0035624
-0.00246128
0.00276358
-0.00206037
0.00200148
-0.00158185
0.00133098
-0.00110575
0.000778429
-0.000670402
0.000366745
-0.000341231
9.35468e-05
-0.00015269
-8.81954e-05
-8.24394e-05
-0.000228297
-8.26138e-05
-0.000347412
-0.000105069
-0.000446302
-0.000128566
-0.000522288
-0.000149811
-0.000573998
-0.000169382
-0.000600666
-0.000188939
-0.000605161
-0.000211668
-0.000596359
-0.000239411
-0.000580503
-0.000267148
-0.000557271
-0.000286424
-0.000518723
-0.000287484
-0.00044634
-0.000258955
-0.000310102
-0.000184005
-0.000123318
-3.26465e-05
9.6509e-05
0.000172571
0.000369319
0.000388065
0.00070557
0.000599996
0.00114577
0.000805402
0.00162224
0.000799544
0.00181656
0.000509445
0.00107039
0.0015825
0.004862
0.0101523
0.013897
0.0122332
0.00301237
0.0113424
0.0016805
0.0106086
0.0007289
0.00971028
-0.000194684
0.00855549
-0.000837504
0.00725157
-0.00124558
0.00589291
-0.00141651
0.00454923
-0.00137928
0.00328404
-0.00119609
0.00214613
-0.000922462
0.00114888
-0.000584599
0.000333301
-0.000290171
-0.000265597
-7.15033e-05
-0.00063616
2.93314e-05
-0.000836154
4.73048e-05
-0.000950217
3.16238e-05
-0.00103532
2.48415e-06
-0.00111189
-2.8495e-05
-0.00118243
-5.80296e-05
-0.00124614
-8.60973e-05
-0.00130313
-0.000112388
-0.00135476
-0.000137314
-0.001405
-0.000161427
-0.00146118
-0.000183232
-0.00153087
-0.000197453
-0.00162156
-0.000195731
-0.00174239
-0.000166658
-0.00190492
-9.64268e-05
-0.00211652
2.75917e-05
-0.0023642
0.000215036
-0.00267263
0.000481006
-0.00312683
0.000842258
-0.00382217
0.00129534
-0.00482375
0.00180698
-0.00624595
0.00222175
-0.00795977
0.00222327
-0.00745603
0.00107876
-0.0023085
0.00509664
0.00454603
0.00408322
0.00269392
0.00447668
0.000335436
0.00451359
-0.000231598
0.00410156
-0.000425473
0.00341166
-0.000555675
0.00256029
-0.000565142
0.00164015
-0.000459145
0.000724103
-0.000280037
-0.000131873
-6.64861e-05
-0.000822487
0.000106015
-0.00127204
0.000159383
-0.00151328
0.000169735
-0.00163169
0.000147746
-0.00169767
0.000113284
-0.00174478
7.87337e-05
-0.00178916
4.68589e-05
-0.00183704
1.93828e-05
-0.0018918
-3.26633e-06
-0.00195376
-2.41396e-05
-0.00202234
-4.38049e-05
-0.00209857
-6.10804e-05
-0.00218408
-7.59224e-05
-0.0022809
-8.64096e-05
-0.00239019
-8.81644e-05
-0.00251086
-7.50561e-05
-0.00263847
-3.90569e-05
-0.0027645
2.96084e-05
-0.00287698
0.000140066
-0.0029735
0.000311561
-0.00306224
0.000569742
-0.00314981
0.00092983
-0.00323367
0.0013792
-0.00326762
0.00184093
-0.0031935
0.00214763
-0.00283168
0.00186145
-0.00156032
-0.000192604
-0.00379414
-0.000433919
0.00503672
0.000854667
0.00140534
0.000805506
0.000384598
0.000520287
5.36209e-05
0.000130564
-3.575e-05
-0.000398288
-2.68232e-05
-0.000986029
2.25991e-05
-0.00152975
8.45754e-05
-0.00195165
0.000141864
-0.00220316
0.000185024
-0.00230078
0.000203634
-0.00233157
0.000190176
-0.00232621
0.000164374
-0.00231382
0.000135353
-0.00230969
0.000109156
-0.00231779
8.68354e-05
-0.00233789
6.6957e-05
-0.00236733
4.88196e-05
-0.00240292
3.23266e-05
-0.00244493
1.7872e-05
-0.00249304
4.30374e-06
-0.00254662
-7.49916e-06
-0.00260535
-1.71943e-05
-0.00266779
-2.3968e-05
-0.00273017
-2.5785e-05
-0.00278575
-1.94725e-05
-0.00282389
-9.21185e-07
-0.00283302
3.87389e-05
-0.00280076
0.000107809
-0.00270398
0.000214779
-0.00250993
0.000375692
-0.00219123
0.000611129
-0.00173226
0.000920234
-0.00110895
0.00121762
-0.000142278
0.00118095
0.00115899
0.00056018
0.00157332
-0.000606935
-0.00213886
-0.00792477
-0.0107799
-0.00569904
-0.00427094
-0.00387243
-0.00380978
-0.00383958
-0.00386275
-0.00383819
-0.00375297
-0.00361156
-0.00342793
-0.00322653
-0.00303928
-0.00287842
-0.00274703
-0.0026422
-0.00255999
-0.00249786
-0.00245403
-0.00242678
-0.00241401
-0.00241481
-0.00242737
-0.00244956
-0.00247844
-0.00250902
-0.00253317
-0.00253863
-0.00250428
-0.00240069
-0.00218997
-0.00181818
-0.00121081
-0.000294221
0.000919804
0.00209708
0.00265339
0.00204231
)
;

boundaryField
{
    floor
    {
        type            calculated;
        value           nonuniform List<scalar> 
29
(
0
0
0
0
0
0
0
0
0
0
0
0
0
0
0
0
0
0
0
0
-3.94735e-06
-1.00704e-05
-1.52586e-05
-1.99008e-05
-1.65837e-06
-2.95566e-06
-8.61918e-06
-9.45236e-06
-8.32977e-06
)
;
    }
    ceiling
    {
        type            calculated;
        value           nonuniform List<scalar> 
43
(
-4.66483e-05
-4.53769e-05
-4.41091e-05
-2.27621e-05
-1.39116e-05
-9.03008e-06
-5.94498e-06
-3.65948e-06
-1.95393e-06
-6.44649e-07
4.50598e-07
1.39891e-06
2.22607e-06
2.93183e-06
3.50681e-06
3.96477e-06
4.32995e-06
4.61858e-06
4.83622e-06
4.98548e-06
5.07287e-06
5.10851e-06
5.10264e-06
5.06151e-06
4.99447e-06
4.90685e-06
4.80092e-06
4.67819e-06
4.53922e-06
4.3827e-06
4.22014e-06
4.05804e-06
3.90209e-06
3.76023e-06
3.64702e-06
3.59127e-06
3.67869e-06
3.87011e-06
4.14001e-06
5.20654e-06
1.02952e-05
7.24846e-06
-5.67758e-05
)
;
    }
    sWall
    {
        type            calculated;
        value           uniform -0.000271918;
    }
    nWall
    {
        type            calculated;
        value           nonuniform List<scalar> 6(-4.84921e-05 -5.80183e-05 -6.24351e-05 -7.46816e-05 -8.19541e-05 -0.000101754);
    }
    sideWalls
    {
        type            empty;
        value           nonuniform 0();
    }
    glass1
    {
        type            calculated;
        value           nonuniform List<scalar> 9(-5.72756e-05 -0.000154352 -0.000236177 -0.000305856 -0.000365022 -0.000414889 -0.000459476 -0.000513412 -0.000573769);
    }
    glass2
    {
        type            calculated;
        value           nonuniform List<scalar> 2(-0.00025773 -0.000285526);
    }
    sun
    {
        type            calculated;
        value           uniform 0;
    }
    heatsource1
    {
        type            calculated;
        value           nonuniform List<scalar> 3(2.04175e-07 2.04119e-07 2.04136e-07);
    }
    heatsource2
    {
        type            calculated;
        value           nonuniform List<scalar> 4(5.11914e-08 5.12738e-08 0 0);
    }
    Table_master
    {
        type            calculated;
        value           nonuniform List<scalar> 9(-1.53129e-07 -1.53221e-07 -1.53254e-07 -1.53275e-07 -1.53291e-07 -1.53301e-07 -1.53306e-07 -1.53301e-07 -1.53271e-07);
    }
    Table_slave
    {
        type            calculated;
        value           nonuniform List<scalar> 9(1.53007e-07 1.53026e-07 1.53005e-07 1.52987e-07 1.5298e-07 1.52983e-07 1.52998e-07 1.5304e-07 1.53121e-07);
    }
    inlet
    {
        type            calculated;
        value           uniform -0.00663029;
    }
    outlet
    {
        type            calculated;
        value           nonuniform List<scalar> 2(0.00824334 0.00290047);
    }
}


// ************************************************************************* //
