/*--------------------------------*- C++ -*----------------------------------*\
  =========                 |
  \\      /  F ield         | OpenFOAM: The Open Source CFD Toolbox
   \\    /   O peration     | Website:  https://openfoam.org
    \\  /    A nd           | Version:  6
     \\/     M anipulation  |
\*---------------------------------------------------------------------------*/
FoamFile
{
    version     2.0;
    format      ascii;
    class       volScalarField;
    location    "1100";
    object      nut;
}
// * * * * * * * * * * * * * * * * * * * * * * * * * * * * * * * * * * * * * //

dimensions      [0 2 -1 0 0 0 0];

internalField   nonuniform List<scalar> 
459
(
0.0010617
0.00115717
0.00117871
0.00123479
0.00128671
0.00133562
0.00138412
0.00143075
0.00146371
0.00147677
0.00146393
0.00142087
0.00134568
0.00124079
0.00111789
0.000462309
0.000552247
0.00062345
0.00062848
0.000610256
0.000584235
0.000548379
0.000511883
0.000478676
0.000449258
0.000423267
0.000400228
0.000379763
0.000361453
0.000344637
0.000328484
0.000311848
0.000301728
0.000276425
0.0014472
0.00342412
0.00323831
0.00375606
0.00426241
0.00477095
0.00521492
0.00555827
0.00587807
0.00614499
0.00632215
0.00637075
0.00624388
0.0058304
0.0046615
0.00113727
0.000698295
0.000483084
0.00101335
0.00141751
0.00172331
0.00190371
0.00191383
0.00151724
0.00130521
0.00115454
0.00103939
0.000948301
0.000874449
0.000811584
0.00075303
0.000696309
0.000645967
0.000601218
0.000714251
0.000369049
0.00176829
0.00464565
0.00394745
0.00492412
0.00537061
0.00569454
0.00594723
0.00616759
0.00642436
0.00670366
0.00697293
0.00718089
0.00728143
0.00720178
0.00671715
0.00516163
0.00116626
0.000911323
0.00132245
0.00171859
0.00210267
0.00238873
0.00236137
0.000779947
0.000690301
0.000617471
0.000558331
0.000509974
0.000470076
0.000436918
0.000409382
0.000386975
0.000417913
0.000481898
0.000806447
0.000431605
0.00207723
0.005949
0.00389443
0.00514439
0.00548432
0.00556419
0.00562822
0.00575018
0.00596399
0.00625315
0.00658857
0.00689682
0.00712854
0.00722151
0.00712144
0.00657273
0.00444219
0.00136608
0.00163809
0.00208824
0.00257945
0.00301687
0.0033199
0.00316528
0.000882879
0.000808502
0.000755645
0.000715514
0.0006812
0.000648932
0.000617822
0.000584933
0.000546508
0.000512912
0.000517689
0.00093756
0.000481039
0.00239244
0.00765094
0.00420989
0.00490103
0.00537125
0.00532145
0.00527027
0.00536022
0.00556157
0.00585617
0.00622747
0.00656766
0.0068072
0.00690068
0.00684777
0.00662562
0.00606524
0.00513281
0.00481514
0.00476283
0.00480911
0.00486598
0.00487608
0.00472858
0.00402838
0.00369026
0.0034943
0.00334131
0.00317807
0.00294441
0.00261899
0.00221823
0.00177026
0.00132335
0.000977216
0.000960178
0.000655141
0.000594686
0.000716968
0.000805288
0.00272724
0.00951804
0.00579682
0.00472657
0.00517958
0.00532587
0.00517968
0.00526882
0.00543738
0.00571161
0.00607065
0.00642507
0.00666426
0.00671961
0.00660293
0.0063978
0.00620071
0.00607378
0.00608183
0.00611196
0.00609039
0.00600669
0.00586319
0.00564801
0.00532231
0.00502911
0.00476906
0.00452062
0.00427008
0.00400379
0.00366513
0.00323691
0.00271758
0.00213817
0.00161491
0.00118532
0.000909608
0.000777259
0.00110544
0.00084239
0.00304196
0.0108691
0.00832691
0.00600034
0.00558708
0.00563035
0.00549951
0.0054242
0.00550313
0.00576127
0.00613837
0.00651018
0.00673894
0.00674522
0.00655905
0.0063309
0.00626471
0.00643246
0.00665248
0.00672992
0.00663204
0.00640581
0.00609514
0.00573331
0.00535509
0.00501304
0.00470932
0.00443313
0.00418129
0.00395772
0.00376129
0.00348956
0.0030942
0.00260175
0.00211811
0.00166665
0.00134873
0.00125831
0.00128844
0.000967264
0.00311026
0.00987414
0.00855929
0.00757262
0.00696104
0.00632014
0.00576801
0.00552722
0.00561928
0.00596469
0.00641955
0.0068115
0.00698701
0.00688964
0.00660681
0.0063787
0.00644645
0.00673794
0.00686826
0.00673102
0.00640062
0.00595435
0.00546188
0.00498899
0.00458403
0.00425907
0.00399649
0.00378216
0.00361377
0.00349627
0.00343677
0.00341372
0.00322429
0.00291516
0.00263761
0.00250127
0.00262045
0.00303268
0.0036958
0.00149997
0.00303559
0.00362562
0.00409662
0.00424748
0.0042638
0.00435242
0.00462235
0.00510183
0.00575163
0.0064457
0.00702011
0.00732933
0.00727398
0.00690789
0.0064943
0.00640734
0.00646746
0.006468
0.00626142
0.0058493
0.00531249
0.00474348
0.00422583
0.00380844
0.00349519
0.00326107
0.00307785
0.00292705
0.00279734
0.00267976
0.00256638
0.00245667
0.00236832
0.00230292
0.0022786
0.00228731
0.00226833
0.00216834
0.0020202
0.00140239
0.00183564
0.00326821
0.0044942
0.00551274
0.00634071
0.00708716
0.00768414
0.00799828
0.00797828
0.00763618
0.00702669
0.00631143
0.00586103
0.00569826
0.00552487
0.00520404
0.00474244
0.00421185
0.00368829
0.00324072
0.00290272
0.00266447
0.00249935
0.00238248
0.0022976
0.00223589
0.00219305
0.00216752
0.00216211
0.00217905
0.002205
0.00223667
0.00226582
0.00226679
0.00219907
0.00205096
0.00183726
0.00114933
0.00212949
0.00455391
0.00619987
0.00698488
0.00750953
0.00786964
0.00788766
0.00741238
0.00665362
0.00582469
0.00512392
0.00461424
0.00427488
0.00397453
0.00361021
0.00320069
0.00280247
0.00246593
0.00221508
0.00204287
0.00192786
0.00185365
0.0018142
0.00180098
0.00180894
0.0018349
0.0018759
0.0019278
0.00199646
0.00207916
0.00217326
0.00227209
0.00235992
0.00241817
0.00239888
0.00241091
0.00237693
0.00116855
0.00197144
0.00196868
0.00200526
0.00207775
0.00188018
0.00172161
0.00164402
0.0015702
0.00146297
0.00133185
0.00117994
0.00102817
0.000893247
0.000786288
0.000709195
0.000655288
0.000617145
0.000590539
0.000573705
0.000565687
0.000565338
0.000571317
0.000582585
0.000598534
0.000618046
0.000641048
0.000667663
0.000698208
0.000733299
0.000774073
0.000819923
0.00087101
0.000927964
0.000991372
0.00106106
0.00114512
0.00117148
0.00114146
0.00106883
0.000991471
)
;

boundaryField
{
    floor
    {
        type            nutkWallFunction;
        Cmu             0.09;
        kappa           0.41;
        E               9.8;
        value           nonuniform List<scalar> 
29
(
0.000134505
5.48693e-05
6.63469e-05
7.52694e-05
7.5895e-05
7.3626e-05
7.03717e-05
6.58583e-05
6.1227e-05
5.69774e-05
5.31819e-05
4.98025e-05
4.6785e-05
4.40859e-05
4.16553e-05
3.94091e-05
3.72379e-05
3.49871e-05
3.36103e-05
3.01404e-05
3.01403e-05
4.2665e-05
5.08888e-05
5.72803e-05
0.000134505
5.48693e-05
5.75434e-05
0.000110234
0.000163006
)
;
    }
    ceiling
    {
        type            nutkWallFunction;
        Cmu             0.09;
        kappa           0.41;
        E               9.8;
        value           nonuniform List<scalar> 
43
(
0.000230237
0.000229853
0.000233832
0.000241795
0.000220292
0.000202838
0.000194235
0.000186004
0.000173968
0.000159112
0.000141693
0.000124033
0.000108082
9.52376e-05
8.58527e-05
7.92185e-05
7.44848e-05
7.11621e-05
6.90503e-05
6.80418e-05
6.79979e-05
6.87501e-05
7.01651e-05
7.21622e-05
7.45968e-05
7.74551e-05
8.07468e-05
8.45055e-05
8.87994e-05
9.37582e-05
9.92977e-05
0.000105427
0.000112212
0.000119709
0.000127886
0.000137667
0.000140719
0.000137243
0.000128794
0.000119721
0.000343834
0.000404824
0.000247199
)
;
    }
    sWall
    {
        type            nutkWallFunction;
        Cmu             0.09;
        kappa           0.41;
        E               9.8;
        value           uniform 0.000230297;
    }
    nWall
    {
        type            nutkWallFunction;
        Cmu             0.09;
        kappa           0.41;
        E               9.8;
        value           nonuniform List<scalar> 6(9.75343e-05 0.000102 0.000116869 0.000138166 0.00014039 0.000119727);
    }
    sideWalls
    {
        type            empty;
    }
    glass1
    {
        type            nutkWallFunction;
        Cmu             0.09;
        kappa           0.41;
        E               9.8;
        value           nonuniform List<scalar> 9(0.000128058 0.000172408 0.000208323 0.000242207 0.000276223 0.000311838 0.000344901 0.000352038 0.000344262);
    }
    glass2
    {
        type            nutkWallFunction;
        Cmu             0.09;
        kappa           0.41;
        E               9.8;
        value           nonuniform List<scalar> 2(0.000178213 0.000167195);
    }
    sun
    {
        type            nutkWallFunction;
        Cmu             0.09;
        kappa           0.41;
        E               9.8;
        value           nonuniform List<scalar> 
14
(
0.000127962
0.000139061
0.000141551
0.00014801
0.000153961
0.000159542
0.000165054
0.000170334
0.000174053
0.000175525
0.000174077
0.000169215
0.000160686
0.000148698
)
;
    }
    heatsource1
    {
        type            nutkWallFunction;
        Cmu             0.09;
        kappa           0.41;
        E               9.8;
        value           nonuniform List<scalar> 3(7.16826e-05 8.68045e-05 9.75334e-05);
    }
    heatsource2
    {
        type            nutkWallFunction;
        Cmu             0.09;
        kappa           0.41;
        E               9.8;
        value           nonuniform List<scalar> 4(0.000136751 8.45177e-05 8.45176e-05 0.000140107);
    }
    Table_master
    {
        type            nutkWallFunction;
        Cmu             0.09;
        kappa           0.41;
        E               9.8;
        value           nonuniform List<scalar> 9(9.44699e-05 8.35357e-05 7.45276e-05 6.71182e-05 6.09885e-05 5.58771e-05 5.15878e-05 4.79947e-05 4.50483e-05);
    }
    Table_slave
    {
        type            nutkWallFunction;
        Cmu             0.09;
        kappa           0.41;
        E               9.8;
        value           nonuniform List<scalar> 9(0.000106844 9.79209e-05 9.15212e-05 8.6627e-05 8.24163e-05 7.84333e-05 7.45708e-05 7.04617e-05 6.5625e-05);
    }
    inlet
    {
        type            calculated;
        value           uniform 0.000100623;
    }
    outlet
    {
        type            calculated;
        value           nonuniform List<scalar> 2(0.00197144 0.00196868);
    }
}


// ************************************************************************* //
