/*--------------------------------*- C++ -*----------------------------------*\
  =========                 |
  \\      /  F ield         | OpenFOAM: The Open Source CFD Toolbox
   \\    /   O peration     | Website:  https://openfoam.org
    \\  /    A nd           | Version:  6
     \\/     M anipulation  |
\*---------------------------------------------------------------------------*/
FoamFile
{
    version     2.0;
    format      ascii;
    class       volScalarField;
    location    "700";
    object      nut;
}
// * * * * * * * * * * * * * * * * * * * * * * * * * * * * * * * * * * * * * //

dimensions      [0 2 -1 0 0 0 0];

internalField   nonuniform List<scalar> 
459
(
0.00108779
0.00118806
0.00121231
0.001271
0.00132573
0.00137787
0.00143048
0.00147776
0.00150886
0.0015171
0.00149664
0.00144352
0.00135433
0.00122805
0.00107601
0.000471866
0.000560497
0.000636528
0.000651171
0.000635621
0.000610384
0.000571951
0.000532238
0.000496166
0.000464357
0.000436388
0.000411719
0.000389853
0.000370399
0.00035263
0.000335671
0.000318384
0.000307639
0.000281707
0.0014746
0.00354779
0.0033757
0.00391722
0.00445286
0.00498241
0.00542285
0.00578274
0.00611002
0.00637363
0.00653889
0.00657528
0.00644627
0.00606264
0.00505391
0.00112572
0.000746327
0.000485545
0.00106193
0.00151669
0.00187159
0.00208916
0.00209701
0.00161389
0.00137112
0.00120245
0.0010754
0.000975999
0.000896066
0.000829503
0.000767719
0.000707536
0.000653518
0.00060684
0.000724065
0.000371433
0.00179507
0.00481068
0.00413431
0.0050991
0.00554813
0.00587793
0.00613759
0.00638446
0.00666563
0.00696442
0.00724242
0.00745508
0.00755984
0.0074557
0.00693791
0.00526181
0.00118588
0.000882297
0.00133622
0.00179803
0.00226338
0.00261478
0.00257876
0.000812477
0.00071413
0.000634689
0.000570598
0.000518518
0.000475797
0.000440474
0.000411339
0.000387898
0.000420289
0.000487387
0.00082655
0.000434021
0.00210171
0.00611775
0.00410199
0.00531271
0.00562323
0.00570701
0.00579954
0.0059595
0.00620711
0.00653167
0.00688374
0.00720295
0.00743994
0.00750519
0.00737829
0.00674262
0.00428333
0.00137568
0.001653
0.0021437
0.00271299
0.00324007
0.00360714
0.00342416
0.000922767
0.000839467
0.000779606
0.000733774
0.000694747
0.000658935
0.000624483
0.000588357
0.0005467
0.000511879
0.000522183
0.000972923
0.000483231
0.00241377
0.00781414
0.00442959
0.00510439
0.00550987
0.00546609
0.00545639
0.00558758
0.00581407
0.00615327
0.00653912
0.00688338
0.00711084
0.00718722
0.00712593
0.00689525
0.0063002
0.00538414
0.00509263
0.00508504
0.00518121
0.00527506
0.00529403
0.00510622
0.00427934
0.00386733
0.00362241
0.00343433
0.00324295
0.00297922
0.00262951
0.00220935
0.00174856
0.00130148
0.000967645
0.000977358
0.000665014
0.000598398
0.000719952
0.000809622
0.00274526
0.00967855
0.00603698
0.00500989
0.00542117
0.00553114
0.00542301
0.00551261
0.00569618
0.00600592
0.00639543
0.00675383
0.00697097
0.00699946
0.00688175
0.00671905
0.00659707
0.0065488
0.00661251
0.00667468
0.00666444
0.00657141
0.00639784
0.00612864
0.00571823
0.00534566
0.00501816
0.00471042
0.00440478
0.00408331
0.0036976
0.00323434
0.00269516
0.00211399
0.001608
0.00119554
0.000933459
0.000799888
0.00112987
0.00084856
0.00305425
0.0110124
0.00855807
0.00634188
0.00600118
0.00593708
0.0057272
0.00563689
0.00575237
0.00606602
0.00648418
0.00685973
0.00705829
0.00703179
0.00685699
0.00672046
0.00681282
0.00711017
0.00737423
0.00744892
0.00733226
0.00707926
0.00673291
0.00631703
0.00585527
0.0054133
0.00500792
0.00463587
0.00429843
0.00400248
0.00375036
0.00346185
0.00307018
0.0025888
0.00213075
0.00170873
0.00141429
0.00131199
0.0013013
0.000971943
0.00311964
0.00991855
0.00865215
0.00773533
0.0070826
0.00635188
0.00583156
0.00567871
0.00587471
0.00630775
0.0068087
0.00719157
0.00732196
0.00719338
0.00696236
0.00690091
0.00718037
0.00755218
0.00766489
0.00751769
0.00717887
0.00671043
0.00616362
0.00559088
0.00504989
0.00458112
0.00418835
0.00386689
0.00361731
0.00344237
0.0033429
0.00330012
0.00318914
0.00291602
0.00268109
0.00257434
0.00267272
0.00296229
0.00365415
0.00146455
0.00304346
0.00362789
0.00408822
0.00421117
0.00424385
0.00440486
0.00478395
0.00539327
0.0061545
0.00690781
0.0074781
0.00771922
0.00758094
0.00721203
0.00702739
0.00709985
0.0072445
0.00725725
0.00705014
0.00665077
0.00610799
0.00547817
0.00483555
0.00425162
0.00377194
0.00340048
0.00311717
0.00290122
0.00273606
0.00260692
0.00250041
0.00240697
0.00233764
0.00228901
0.00227055
0.00227568
0.00225385
0.00216195
0.00201311
0.0013569
0.00178435
0.00321104
0.0046429
0.00585494
0.00684379
0.00768283
0.00825349
0.00847287
0.00834308
0.0078968
0.00723701
0.00667542
0.00645355
0.00639365
0.00625354
0.00594712
0.00548459
0.00491715
0.00431456
0.0037483
0.00326706
0.00289226
0.00262097
0.00243122
0.00230093
0.00221454
0.00216166
0.00213558
0.00213422
0.00215819
0.0021938
0.00223717
0.00228291
0.00231375
0.00230217
0.00223597
0.00196883
0.00108226
0.00210863
0.00466636
0.00659442
0.0074414
0.0080513
0.00831933
0.00806384
0.00744993
0.00667966
0.00594803
0.00538627
0.00501359
0.00476924
0.00451148
0.00417901
0.00378103
0.00335233
0.00294129
0.00259211
0.00232585
0.00213897
0.00201587
0.00193578
0.00188606
0.00186201
0.00186277
0.00188412
0.00192196
0.00197926
0.0020529
0.0021398
0.00223356
0.00231981
0.00237792
0.00238966
0.00233134
0.00168716
0.00110637
0.0018192
0.00191549
0.00198609
0.00205952
0.00187896
0.00174279
0.00168559
0.00160365
0.00148808
0.00134705
0.00119822
0.00105702
0.000936133
0.000842296
0.000773405
0.000721661
0.000680621
0.000646992
0.000620052
0.000600297
0.000588062
0.000582973
0.000584245
0.000591185
0.000603346
0.000620708
0.000643123
0.000670277
0.000702685
0.000741226
0.000785351
0.000835101
0.000890816
0.000952705
0.00102001
0.00109226
0.0011014
0.000985053
0.000933905
0.00110571
)
;

boundaryField
{
    floor
    {
        type            nutkWallFunction;
        Cmu             0.09;
        kappa           0.41;
        E               9.8;
        value           nonuniform List<scalar> 
29
(
0.000129626
5.61023e-05
6.73886e-05
7.68954e-05
7.87103e-05
7.67833e-05
7.36434e-05
6.88309e-05
6.38162e-05
5.92213e-05
5.5135e-05
5.15128e-05
4.82937e-05
4.54199e-05
4.28458e-05
4.04793e-05
3.82064e-05
3.58741e-05
3.44159e-05
3.08687e-05
3.08687e-05
4.2982e-05
5.12035e-05
5.7562e-05
0.000129626
5.61023e-05
5.78597e-05
0.000106775
0.000164095
)
;
    }
    ceiling
    {
        type            nutkWallFunction;
        Cmu             0.09;
        kappa           0.41;
        E               9.8;
        value           nonuniform List<scalar> 
43
(
0.000213487
0.000224042
0.000231745
0.000239821
0.000220163
0.000205186
0.000198859
0.000189745
0.000176798
0.000160845
0.000143804
0.000127414
0.000113183
0.00010199
9.368e-05
8.7381e-05
8.23467e-05
7.81944e-05
7.48491e-05
7.23846e-05
7.08532e-05
7.02149e-05
7.03741e-05
7.12433e-05
7.27638e-05
7.49283e-05
7.77121e-05
8.10692e-05
8.50544e-05
8.97657e-05
9.51241e-05
0.000101123
0.000107793
0.000115144
0.000123077
0.000131526
0.000132591
0.000118965
0.000112917
0.000133094
0.000344651
0.000405051
0.000244935
)
;
    }
    sWall
    {
        type            nutkWallFunction;
        Cmu             0.09;
        kappa           0.41;
        E               9.8;
        value           uniform 0.000213546;
    }
    nWall
    {
        type            nutkWallFunction;
        Cmu             0.09;
        kappa           0.41;
        E               9.8;
        value           nonuniform List<scalar> 6(9.80572e-05 0.000102741 0.000117422 0.00013037 0.000133178 0.000133102);
    }
    sideWalls
    {
        type            empty;
    }
    glass1
    {
        type            nutkWallFunction;
        Cmu             0.09;
        kappa           0.41;
        E               9.8;
        value           nonuniform List<scalar> 9(0.000131113 0.000175504 0.000211284 0.000244866 0.000278505 0.000313739 0.000346183 0.000353013 0.000345082);
    }
    glass2
    {
        type            nutkWallFunction;
        Cmu             0.09;
        kappa           0.41;
        E               9.8;
        value           nonuniform List<scalar> 2(0.000174224 0.00016203);
    }
    sun
    {
        type            nutkWallFunction;
        Cmu             0.09;
        kappa           0.41;
        E               9.8;
        value           nonuniform List<scalar> 
14
(
0.000131008
0.00014263
0.000145425
0.000152164
0.000158416
0.000164346
0.000170303
0.000175637
0.000179134
0.00018006
0.00017776
0.000171774
0.000161669
0.000147233
)
;
    }
    heatsource1
    {
        type            nutkWallFunction;
        Cmu             0.09;
        kappa           0.41;
        E               9.8;
        value           nonuniform List<scalar> 3(7.21468e-05 8.71694e-05 9.80562e-05);
    }
    heatsource2
    {
        type            nutkWallFunction;
        Cmu             0.09;
        kappa           0.41;
        E               9.8;
        value           nonuniform List<scalar> 4(0.000135411 9.03899e-05 9.03899e-05 0.000142374);
    }
    Table_master
    {
        type            nutkWallFunction;
        Cmu             0.09;
        kappa           0.41;
        E               9.8;
        value           nonuniform List<scalar> 9(9.84017e-05 8.64591e-05 7.66695e-05 6.86637e-05 6.20776e-05 5.66139e-05 5.20505e-05 4.82518e-05 4.51708e-05);
    }
    Table_slave
    {
        type            nutkWallFunction;
        Cmu             0.09;
        kappa           0.41;
        E               9.8;
        value           nonuniform List<scalar> 9(0.000111595 0.000101649 9.443e-05 8.8859e-05 8.40825e-05 7.96713e-05 7.54005e-05 7.08913e-05 6.56497e-05);
    }
    inlet
    {
        type            calculated;
        value           uniform 0.000100623;
    }
    outlet
    {
        type            calculated;
        value           nonuniform List<scalar> 2(0.0018192 0.00191549);
    }
}


// ************************************************************************* //
