// -*- C++ -*-
// File generated by PyFoam - sorry for the ugliness

FoamFile
{
 version 2.0;
 format ascii;
 class volVectorField;
 location "400";
 object U;
}

dimensions [ 0 1 -1 0 0 0 0 ];

internalField nonuniform List<vector> 459
(
  (0.10418 0.0607728 0)
  (-0.127476 -0.00338866 0)
  (-0.0943487 -0.00243492 0)
  (-0.0942831 -3.68644e-05 0)
  (-0.0961035 0.000718245 0)
  (-0.0986487 0.000589069 0)
  (-0.100888 -7.77916e-05 0)
  (-0.102166 -0.00117574 0)
  (-0.101914 -0.00270393 0)
  (-0.0995028 -0.00475891 0)
  (-0.093962 -0.00746349 0)
  (-0.0837875 -0.0110655 0)
  (-0.0680254 -0.0162754 0)
  (-0.0509738 -0.0242242 0)
  (-0.0502664 -0.0336695 0)
  (0.030386 0.0108906 0)
  (-0.0299285 -0.00771506 0)
  (-0.0165491 -0.00892752 0)
  (-0.0117958 -0.00620363 0)
  (-0.00469539 -0.00527337 0)
  (0.00236742 -0.00560251 0)
  (0.00853974 -0.00724244 0)
  (0.0143844 -0.0062345 0)
  (0.0192584 -0.00503959 0)
  (0.0229356 -0.00406155 0)
  (0.0258576 -0.00342665 0)
  (0.0281427 -0.00308657 0)
  (0.0299587 -0.00251054 0)
  (0.0302992 -0.00158694 0)
  (0.0291156 -0.000439553 0)
  (0.0288628 -0.000612994 0)
  (0.0294148 -0.0052635 0)
  (0.0386156 -0.00671641 0)
  (-0.0129929 0.0132544 0)
  (0.294629 0.134141 0)
  (-0.152298 0.00652841 0)
  (-0.0871959 -0.00177179 0)
  (-0.0925222 0.00216517 0)
  (-0.0957013 0.00393364 0)
  (-0.0985851 0.00406413 0)
  (-0.10091 0.00311849 0)
  (-0.102369 0.00129538 0)
  (-0.102554 -0.00140573 0)
  (-0.101034 -0.00508362 0)
  (-0.097197 -0.0098592 0)
  (-0.0901607 -0.0159472 0)
  (-0.079316 -0.0240147 0)
  (-0.0655724 -0.0350552 0)
  (-0.0516858 -0.047657 0)
  (-0.0387082 -0.053923 0)
  (0.0276362 0.00766322 0)
  (0.105056 0.00842276 0)
  (0.0421749 0.0056548 0)
  (0.0157105 0.00218039 0)
  (0.004298 0.000433884 0)
  (-0.000600067 -0.00154066 0)
  (-0.00467076 -0.00407358 0)
  (-0.00785102 -0.00885156 0)
  (-0.00579474 -0.00666023 0)
  (-0.00427923 -0.00482539 0)
  (-0.00469969 -0.00349459 0)
  (-0.00572839 -0.00215033 0)
  (-0.00728381 -0.000270475 0)
  (-0.0105989 0.00239565 0)
  (-0.0135288 0.00434204 0)
  (-0.0159585 0.00472115 0)
  (-0.0165314 0.0030843 0)
  (-0.0132915 0.00155916 0)
  (-0.029985 0.0118148 0)
  (-0.111151 0.0290152 0)
  (0.446715 0.204074 0)
  (-0.191554 0.0285929 0)
  (-0.0727632 0.00577771 0)
  (-0.0855233 0.00607226 0)
  (-0.0907113 0.0068709 0)
  (-0.0939262 0.00627184 0)
  (-0.0963445 0.00453227 0)
  (-0.0980909 0.00167991 0)
  (-0.0990581 -0.00232961 0)
  (-0.099018 -0.00762172 0)
  (-0.097812 -0.0144025 0)
  (-0.0951676 -0.0228621 0)
  (-0.0910359 -0.0332188 0)
  (-0.0858244 -0.0451525 0)
  (-0.0804123 -0.0562024 0)
  (-0.0776576 -0.0613814 0)
  (-0.0860691 -0.0583153 0)
  (0.0383334 0.00568237 0)
  (-0.0392184 0.00847047 0)
  (-0.0368652 0.00938094 0)
  (-0.0354311 0.00554673 0)
  (-0.0339266 0.000855985 0)
  (-0.0331706 -0.00436498 0)
  (-0.0290526 -0.00717845 0)
  (-0.0399294 -0.00638906 0)
  (-0.0447694 -0.00482378 0)
  (-0.0480157 -0.00369709 0)
  (-0.0500505 -0.00278014 0)
  (-0.0506549 -0.00192886 0)
  (-0.0493978 -0.0010965 0)
  (-0.0471118 -0.000698946 0)
  (-0.0425907 -0.00111886 0)
  (-0.0337281 -0.000984088 0)
  (-0.0236868 0.00130072 0)
  (-0.030251 -0.000100469 0)
  (-0.103028 -0.00382518 0)
  (0.56479 0.26052 0)
  (-0.225887 0.0550002 0)
  (-0.0564782 0.0172382 0)
  (-0.0750233 0.0123083 0)
  (-0.0829743 0.0108294 0)
  (-0.0859789 0.00905355 0)
  (-0.0877913 0.00665254 0)
  (-0.0890694 0.00331141 0)
  (-0.090094 -0.00117619 0)
  (-0.0909161 -0.00694866 0)
  (-0.0918644 -0.0141367 0)
  (-0.0932253 -0.0228192 0)
  (-0.0954859 -0.0328155 0)
  (-0.0993999 -0.0431382 0)
  (-0.106411 -0.0512117 0)
  (-0.119681 -0.0522225 0)
  (-0.138652 -0.0370619 0)
  (-0.136753 0.00660931 0)
  (-0.105605 0.0088661 0)
  (-0.101116 0.00824121 0)
  (-0.0932852 0.00544989 0)
  (-0.0911899 0.0020054 0)
  (-0.0912513 -0.00216195 0)
  (-0.09206 -0.00611904 0)
  (-0.0906356 -0.00592628 0)
  (-0.0851935 -0.00581292 0)
  (-0.0794472 -0.00619834 0)
  (-0.0733813 -0.00638888 0)
  (-0.0672103 -0.00644119 0)
  (-0.0610447 -0.0064442 0)
  (-0.054713 -0.00653465 0)
  (-0.0476729 -0.00687202 0)
  (-0.039308 -0.00742494 0)
  (-0.0313723 -0.008114 0)
  (-0.0187679 -0.006895 0)
  (-0.00152294 -0.00824157 0)
  (-0.0415945 -0.0118761 0)
  (0.653824 0.305691 0)
  (-0.251376 0.0837084 0)
  (-0.0415758 0.0300827 0)
  (-0.0595141 0.0200695 0)
  (-0.0711027 0.0149034 0)
  (-0.0741091 0.0110313 0)
  (-0.0746923 0.00763978 0)
  (-0.0744657 0.00398147 0)
  (-0.0741018 -0.000390707 0)
  (-0.0741549 -0.00569499 0)
  (-0.0751635 -0.011979 0)
  (-0.0775891 -0.0192976 0)
  (-0.0818715 -0.0274368 0)
  (-0.0883971 -0.0356412 0)
  (-0.0975577 -0.0424707 0)
  (-0.109208 -0.045547 0)
  (-0.11977 -0.0404302 0)
  (-0.12323 -0.0229939 0)
  (-0.118321 -0.00841303 0)
  (-0.110711 -0.000935472 0)
  (-0.103473 0.000574918 0)
  (-0.0984369 -0.000374349 0)
  (-0.0950447 -0.00284371 0)
  (-0.0928682 -0.00533348 0)
  (-0.0905374 -0.00627609 0)
  (-0.0873617 -0.00729052 0)
  (-0.0839027 -0.00797969 0)
  (-0.0802731 -0.00837399 0)
  (-0.0765197 -0.00857768 0)
  (-0.0726645 -0.00880376 0)
  (-0.0686051 -0.00942629 0)
  (-0.0640231 -0.0109959 0)
  (-0.0583496 -0.0140958 0)
  (-0.0504498 -0.0188301 0)
  (-0.0383314 -0.0242688 0)
  (-0.0194231 -0.0316303 0)
  (0.00561492 -0.0399998 0)
  (0.0450748 -0.0503107 0)
  (0.0948526 -0.024075 0)
  (-0.0474539 0.0319512 0)
  (0.706893 0.345097 0)
  (-0.270583 0.107677 0)
  (-0.0297136 0.0342654 0)
  (-0.0326153 0.0274537 0)
  (-0.047555 0.0212811 0)
  (-0.0539528 0.0129515 0)
  (-0.0545263 0.00715227 0)
  (-0.0530279 0.00280399 0)
  (-0.0507972 -0.00127778 0)
  (-0.0494301 -0.00558048 0)
  (-0.0494582 -0.0103332 0)
  (-0.0514205 -0.0156872 0)
  (-0.0556678 -0.021554 0)
  (-0.062321 -0.027383 0)
  (-0.0712312 -0.0319851 0)
  (-0.0814722 -0.0334003 0)
  (-0.0903045 -0.0294134 0)
  (-0.0947109 -0.0206925 0)
  (-0.0942973 -0.0123572 0)
  (-0.0909541 -0.00694406 0)
  (-0.0869028 -0.00467121 0)
  (-0.083427 -0.00456282 0)
  (-0.0809131 -0.00590236 0)
  (-0.0793391 -0.00759466 0)
  (-0.0781758 -0.00877462 0)
  (-0.0770639 -0.00975846 0)
  (-0.0760434 -0.0104728 0)
  (-0.0751728 -0.0108729 0)
  (-0.0745302 -0.0110335 0)
  (-0.074212 -0.0112087 0)
  (-0.0742703 -0.0119149 0)
  (-0.0746154 -0.0139587 0)
  (-0.0748703 -0.0182786 0)
  (-0.0740053 -0.0256109 0)
  (-0.0701841 -0.036419 0)
  (-0.0614509 -0.051698 0)
  (-0.0476492 -0.0696578 0)
  (-0.0315539 -0.0800112 0)
  (0.0507396 -0.0226794 0)
  (-0.0998535 0.0874534 0)
  (0.722897 0.381599 0)
  (-0.275446 0.100002 0)
  (-0.00756438 -0.000418809 0)
  (0.0204319 0.0263431 0)
  (0.00364008 0.0340082 0)
  (-0.0128306 0.0179657 0)
  (-0.0179417 0.00576843 0)
  (-0.0183937 -0.000282312 0)
  (-0.0167807 -0.0040507 0)
  (-0.0155578 -0.00696056 0)
  (-0.0153779 -0.00978805 0)
  (-0.01697 -0.0128706 0)
  (-0.0207706 -0.0164041 0)
  (-0.026859 -0.0201701 0)
  (-0.034891 -0.0233617 0)
  (-0.0438559 -0.0245641 0)
  (-0.0518269 -0.0224877 0)
  (-0.0569229 -0.0178219 0)
  (-0.0587894 -0.0128858 0)
  (-0.0584159 -0.00920598 0)
  (-0.0570729 -0.00722807 0)
  (-0.0556902 -0.00671265 0)
  (-0.0547744 -0.00726446 0)
  (-0.0544823 -0.00825191 0)
  (-0.0546517 -0.00916798 0)
  (-0.0551263 -0.00990392 0)
  (-0.0559026 -0.0103209 0)
  (-0.0570547 -0.010311 0)
  (-0.0587692 -0.00986946 0)
  (-0.0613924 -0.0092088 0)
  (-0.0654182 -0.00892041 0)
  (-0.0713032 -0.0100548 0)
  (-0.0792389 -0.0138606 0)
  (-0.0888588 -0.021395 0)
  (-0.0994947 -0.0336765 0)
  (-0.109978 -0.0513212 0)
  (-0.117539 -0.0711507 0)
  (-0.11609 -0.0782764 0)
  (-0.109289 -0.0335044 0)
  (-0.165733 0.153715 0)
  (0.817877 0.398055 0)
  (-0.0854809 0.0671724 0)
  (0.080741 -0.0666653 0)
  (0.128366 -0.00195957 0)
  (0.0939144 0.0306713 0)
  (0.0606212 0.0217985 0)
  (0.0468239 0.00717598 0)
  (0.0402668 -0.00132473 0)
  (0.0341215 -0.00589208 0)
  (0.030569 -0.00832362 0)
  (0.0280324 -0.00974171 0)
  (0.0251448 -0.0107514 0)
  (0.0210859 -0.0119931 0)
  (0.0154894 -0.0136963 0)
  (0.00843583 -0.0155327 0)
  (0.00047247 -0.016655 0)
  (-0.00698773 -0.016078 0)
  (-0.012507 -0.0139349 0)
  (-0.0158426 -0.0113125 0)
  (-0.0174712 -0.00907757 0)
  (-0.0181477 -0.00764115 0)
  (-0.0185289 -0.00704742 0)
  (-0.0190592 -0.00714817 0)
  (-0.0199486 -0.00762214 0)
  (-0.0211862 -0.00815613 0)
  (-0.0227004 -0.00855431 0)
  (-0.0244461 -0.00861755 0)
  (-0.0263979 -0.00814101 0)
  (-0.0286107 -0.00695122 0)
  (-0.0313345 -0.0050001 0)
  (-0.0351307 -0.0025286 0)
  (-0.0407634 -0.000252063 0)
  (-0.0503062 0.000198361 0)
  (-0.0662229 -0.0038743 0)
  (-0.0900792 -0.0152022 0)
  (-0.119891 -0.0339323 0)
  (-0.155318 -0.0585716 0)
  (-0.191934 -0.0849247 0)
  (-0.247938 -0.105728 0)
  (-0.489795 -0.110398 0)
  (0.952295 0.373052 0)
  (0.448983 0.206463 0)
  (0.292403 0.120737 0)
  (0.30957 0.12357 0)
  (0.215127 0.108128 0)
  (0.147906 0.0739543 0)
  (0.121523 0.0434752 0)
  (0.108632 0.0233005 0)
  (0.098003 0.0108456 0)
  (0.0881473 0.00288023 0)
  (0.0799942 -0.00192978 0)
  (0.0735302 -0.00441882 0)
  (0.0677208 -0.00568751 0)
  (0.0618556 -0.00655259 0)
  (0.055588 -0.0073629 0)
  (0.0489678 -0.00802854 0)
  (0.0425261 -0.00818295 0)
  (0.036993 -0.00762662 0)
  (0.0327385 -0.00661308 0)
  (0.0296619 -0.00554031 0)
  (0.0273996 -0.00470617 0)
  (0.0255543 -0.00424387 0)
  (0.0238044 -0.00415055 0)
  (0.0219501 -0.0043074 0)
  (0.0199256 -0.00455253 0)
  (0.0177317 -0.00472919 0)
  (0.0154215 -0.00467739 0)
  (0.0131176 -0.00420189 0)
  (0.0109924 -0.0030798 0)
  (0.00920893 -0.00111647 0)
  (0.00795388 0.0017322 0)
  (0.0073549 0.00534373 0)
  (0.00708033 0.00908457 0)
  (0.00689671 0.0113401 0)
  (0.0069796 0.00987436 0)
  (0.0053145 0.00289671 0)
  (0.00346061 -0.00701966 0)
  (0.0100179 -0.0205027 0)
  (0.0750102 -0.0814837 0)
  (-0.372635 -0.197301 0)
  (-1.39552 0.0841166 0)
  (0.0996784 0.144041 0)
  (0.0625471 0.100003 0)
  (0.070979 0.0660409 0)
  (0.0944648 0.0416386 0)
  (0.109825 0.0262544 0)
  (0.114908 0.0178133 0)
  (0.115225 0.0138452 0)
  (0.114014 0.0125342 0)
  (0.111855 0.0124789 0)
  (0.109199 0.0126416 0)
  (0.106029 0.0125558 0)
  (0.102262 0.0119751 0)
  (0.0978979 0.0109015 0)
  (0.0931216 0.00960037 0)
  (0.0883068 0.00838764 0)
  (0.0838258 0.0073972 0)
  (0.0798751 0.00659474 0)
  (0.0764592 0.00588307 0)
  (0.0734645 0.00517911 0)
  (0.0707342 0.00444668 0)
  (0.0681254 0.00370769 0)
  (0.0655469 0.00302499 0)
  (0.0629433 0.0024952 0)
  (0.0603271 0.00219313 0)
  (0.0578015 0.00223594 0)
  (0.0555603 0.00277687 0)
  (0.0538629 0.00396764 0)
  (0.0530908 0.0057419 0)
  (0.0533744 0.00770681 0)
  (0.0551442 0.00924681 0)
  (0.0583497 0.00864455 0)
  (0.0628577 0.00348611 0)
  (0.0665065 -0.00771945 0)
  (0.0685053 -0.0237483 0)
  (0.0706973 -0.0442478 0)
  (0.109663 -0.0805283 0)
  (-0.0923327 -0.142345 0)
  (-0.614204 0.0995498 0)
  (0.215503 0.0610418 0)
  (0.0878592 0.0197649 0)
  (0.0825893 0.00349838 0)
  (0.109971 -0.0127923 0)
  (0.131558 -0.0288151 0)
  (0.142305 -0.0430745 0)
  (0.146766 -0.0555268 0)
  (0.148268 -0.0659327 0)
  (0.148053 -0.0738939 0)
  (0.146487 -0.079058 0)
  (0.143948 -0.0816819 0)
  (0.140783 -0.0822295 0)
  (0.137221 -0.0812108 0)
  (0.133426 -0.0791353 0)
  (0.129593 -0.0764839 0)
  (0.125926 -0.0736808 0)
  (0.122561 -0.071045 0)
  (0.119529 -0.0687627 0)
  (0.116773 -0.0668979 0)
  (0.114192 -0.0654253 0)
  (0.111683 -0.0642617 0)
  (0.109178 -0.0632864 0)
  (0.106692 -0.0622481 0)
  (0.104245 -0.0611645 0)
  (0.101915 -0.0600117 0)
  (0.0998431 -0.0587291 0)
  (0.0983005 -0.0570988 0)
  (0.0975861 -0.0549274 0)
  (0.0977847 -0.0523925 0)
  (0.0990364 -0.050597 0)
  (0.101188 -0.0508004 0)
  (0.103308 -0.0526702 0)
  (0.102977 -0.0562883 0)
  (0.0980923 -0.0617231 0)
  (0.0861241 -0.0687286 0)
  (0.105145 -0.0801468 0)
  (-0.152464 -0.0920373 0)
  (0.575402 0.185564 0)
  (0.2156 -0.203372 0)
  (-0.234175 0.167841 0)
  (0.1914 0.106546 0)
  (0.181999 0.105166 0)
  (0.154306 0.120222 0)
  (0.157964 0.136993 0)
  (0.16705 0.155833 0)
  (0.170596 0.175783 0)
  (0.170137 0.195146 0)
  (0.168669 0.21237 0)
  (0.16744 0.226201 0)
  (0.166668 0.23571 0)
  (0.166358 0.240802 0)
  (0.166437 0.241961 0)
  (0.166769 0.239975 0)
  (0.1672 0.235744 0)
  (0.167597 0.230149 0)
  (0.167862 0.223966 0)
  (0.167919 0.217813 0)
  (0.167706 0.212103 0)
  (0.167183 0.207056 0)
  (0.166331 0.202728 0)
  (0.165164 0.199063 0)
  (0.163727 0.195927 0)
  (0.162067 0.192958 0)
  (0.160308 0.190154 0)
  (0.158553 0.187477 0)
  (0.156913 0.184846 0)
  (0.155494 0.181925 0)
  (0.154426 0.178389 0)
  (0.153792 0.174227 0)
  (0.153428 0.170036 0)
  (0.15257 0.166288 0)
  (0.149613 0.161572 0)
  (0.142823 0.155677 0)
  (0.130045 0.148716 0)
  (0.108785 0.141482 0)
  (0.122698 0.127812 0)
  (-0.210643 0.133619 0)
)
;

boundaryField
{
  floor
  {
    type noSlip;
  }
  ceiling
  {
    type noSlip;
  }
  sWall
  {
    type noSlip;
  }
  nWall
  {
    type noSlip;
  }
  sideWalls
  {
    type empty;
  }
  glass1
  {
    type noSlip;
  }
  glass2
  {
    type noSlip;
  }
  sun
  {
    type noSlip;
  }
  heatsource1
  {
    type noSlip;
  }
  heatsource2
  {
    type noSlip;
  }
  Table_master
  {
    type noSlip;
  }
  Table_slave
  {
    type noSlip;
  }
  inlet
  {
    type fixedValue;
    value uniform (0.3 0 0);
  }
  outlet
  {
    type zeroGradient;
  }
} 	// ************************************************************************* //

