// -*- C++ -*-
// File generated by PyFoam - sorry for the ugliness

FoamFile
{
 version 2.0;
 format ascii;
 class volScalarField;
 location "700";
 object T;
}

dimensions [ 0 0 0 1 0 0 0 ];

internalField nonuniform List<scalar> 459
(
  303.358
  303.094
  303.081
  303.078
  303.074
  303.07
  303.066
  303.06
  303.052
  303.04
  303.028
  303.017
  303.011
  303.009
  303.015
  303.098
  303.079
  303.071
  303.074
  303.077
  303.081
  303.085
  303.088
  303.092
  303.095
  303.099
  303.102
  303.106
  303.109
  303.112
  303.116
  303.12
  303.125
  303.144
  303.537
  303.136
  303.113
  303.116
  303.12
  303.121
  303.119
  303.112
  303.095
  303.071
  303.043
  303.02
  303.004
  302.996
  302.995
  302.991
  302.985
  303.1
  303.064
  303.058
  303.06
  303.065
  303.069
  303.071
  303.072
  303.073
  303.073
  303.074
  303.075
  303.075
  303.076
  303.078
  303.082
  303.087
  303.095
  303.127
  303.724
  303.186
  303.149
  303.161
  303.176
  303.188
  303.193
  303.186
  303.16
  303.116
  303.068
  303.028
  303.003
  302.992
  302.99
  302.991
  302.99
  303.054
  303.048
  303.051
  303.06
  303.069
  303.077
  303.076
  303.076
  303.075
  303.075
  303.074
  303.074
  303.073
  303.073
  303.073
  303.076
  303.079
  303.086
  303.12
  303.913
  303.248
  303.186
  303.205
  303.236
  303.265
  303.284
  303.279
  303.238
  303.167
  303.092
  303.034
  302.999
  302.987
  302.988
  302.992
  302.996
  303.006
  303.018
  303.035
  303.054
  303.072
  303.088
  303.101
  303.112
  303.12
  303.129
  303.136
  303.142
  303.146
  303.15
  303.152
  303.153
  303.129
  303.107
  303.096
  303.12
  304.097
  303.326
  303.225
  303.241
  303.284
  303.333
  303.374
  303.37
  303.306
  303.206
  303.103
  303.031
  302.992
  302.98
  302.985
  302.997
  303.009
  303.024
  303.042
  303.063
  303.086
  303.107
  303.126
  303.142
  303.156
  303.167
  303.177
  303.184
  303.19
  303.191
  303.19
  303.187
  303.179
  303.16
  303.133
  303.11
  303.118
  303.194
  303.239
  303.246
  304.263
  303.426
  303.29
  303.282
  303.322
  303.384
  303.448
  303.427
  303.335
  303.213
  303.097
  303.016
  302.975
  302.968
  302.983
  303.006
  303.03
  303.054
  303.079
  303.105
  303.13
  303.153
  303.172
  303.188
  303.201
  303.212
  303.22
  303.226
  303.229
  303.228
  303.223
  303.214
  303.202
  303.184
  303.157
  303.13
  303.123
  303.153
  303.17
  303.206
  304.412
  303.587
  303.443
  303.407
  303.425
  303.482
  303.511
  303.448
  303.318
  303.17
  303.047
  302.97
  302.944
  302.955
  302.989
  303.029
  303.067
  303.101
  303.131
  303.159
  303.183
  303.204
  303.221
  303.234
  303.245
  303.253
  303.258
  303.261
  303.262
  303.258
  303.25
  303.238
  303.223
  303.204
  303.18
  303.154
  303.14
  303.147
  303.157
  303.187
  304.63
  304.012
  303.847
  303.744
  303.695
  303.679
  303.581
  303.408
  303.21
  303.041
  302.932
  302.89
  302.905
  302.953
  303.015
  303.077
  303.126
  303.165
  303.194
  303.217
  303.237
  303.253
  303.265
  303.274
  303.281
  303.286
  303.288
  303.288
  303.286
  303.281
  303.274
  303.261
  303.246
  303.23
  303.212
  303.193
  303.186
  303.199
  303.218
  303.345
  304.941
  304.653
  304.387
  304.157
  303.969
  303.748
  303.416
  303.099
  302.872
  302.76
  302.746
  302.802
  302.896
  302.994
  303.089
  303.16
  303.203
  303.231
  303.252
  303.268
  303.282
  303.293
  303.301
  303.306
  303.31
  303.311
  303.311
  303.31
  303.307
  303.304
  303.302
  303.302
  303.304
  303.31
  303.325
  303.348
  303.38
  303.413
  303.435
  303.49
  297.032
  299.153
  300.264
  300.716
  301.155
  301.592
  301.997
  302.341
  302.618
  302.842
  303.033
  303.139
  303.204
  303.243
  303.268
  303.285
  303.299
  303.309
  303.317
  303.324
  303.328
  303.33
  303.332
  303.333
  303.334
  303.334
  303.335
  303.335
  303.337
  303.339
  303.344
  303.352
  303.365
  303.385
  303.409
  303.432
  303.451
  303.472
  297.47
  299.336
  300.275
  300.971
  301.564
  302.091
  302.496
  302.779
  302.975
  303.108
  303.194
  303.245
  303.278
  303.299
  303.313
  303.324
  303.332
  303.338
  303.342
  303.345
  303.347
  303.349
  303.35
  303.351
  303.352
  303.353
  303.354
  303.355
  303.357
  303.359
  303.363
  303.369
  303.378
  303.391
  303.407
  303.426
  303.424
  303.454
  299.522
  299.452
  299.448
  301.216
  302.078
  302.52
  302.771
  302.947
  303.074
  303.162
  303.224
  303.266
  303.294
  303.312
  303.324
  303.332
  303.338
  303.342
  303.346
  303.348
  303.35
  303.352
  303.353
  303.355
  303.356
  303.358
  303.359
  303.361
  303.362
  303.364
  303.365
  303.367
  303.37
  303.373
  303.378
  303.388
  303.398
  303.404
  303.406
  303.445
)
;

boundaryField
{
  floor
  {
    type wallHeatTransfer;
    Tinf uniform 305.2;
    alphaWall uniform 0.24;
    value nonuniform List<scalar> 29
(
  303.241
  303.502
  303.441
  303.406
  303.406
  303.416
  303.429
  303.448
  303.468
  303.488
  303.508
  303.527
  303.545
  303.563
  303.579
  303.596
  303.613
  303.631
  303.645
  303.686
  303.686
  303.587
  303.537
  303.509
  303.241
  303.502
  303.493
  303.313
  303.2
)
;
  }
  ceiling
  {
    type wallHeatTransfer;
    Tinf uniform 303.2;
    alphaWall uniform 0.24;
    value nonuniform List<scalar> 43
(
  299.776
  299.701
  299.689
  301.341
  302.154
  302.57
  302.804
  302.967
  303.085
  303.165
  303.221
  303.259
  303.282
  303.297
  303.306
  303.312
  303.316
  303.319
  303.321
  303.323
  303.325
  303.326
  303.328
  303.33
  303.332
  303.333
  303.335
  303.337
  303.339
  303.341
  303.344
  303.346
  303.35
  303.354
  303.359
  303.369
  303.378
  303.383
  303.384
  303.417
  304.861
  304.595
  297.819
)
;
  }
  sWall
  {
    type wallHeatTransfer;
    Tinf uniform 315.2;
    alphaWall uniform 0.36;
    value uniform 301.099;
  }
  nWall
  {
    type wallHeatTransfer;
    Tinf uniform 307.2;
    alphaWall uniform 0.36;
    value nonuniform List<scalar> 6
(
  303.975
  303.92
  303.838
  304.008
  303.986
  304.044
)
;
  }
  sideWalls
  {
    type empty;
  }
  glass1
  {
    type wallHeatTransfer;
    Tinf uniform 315.2;
    alphaWall uniform 4.3;
    value nonuniform List<scalar> 9
(
  311.488
  310.85
  310.446
  310.138
  309.881
  309.648
  309.466
  309.532
  309.754
)
;
  }
  glass2
  {
    type wallHeatTransfer;
    Tinf uniform 307.2;
    alphaWall uniform 4.3;
    value nonuniform List<scalar> 2
(
  305.72
  305.827
)
;
  }
  sun
  {
    type wallHeatTransfer;
    Tinf uniform 305.2;
    alphaWall uniform 0.24;
    value nonuniform List<scalar> 14
(
  303.555
  303.304
  303.29
  303.28
  303.27
  303.261
  303.252
  303.242
  303.231
  303.219
  303.209
  303.204
  303.206
  303.218
)
;
  }
  heatsource1
  {
    type fixedGradient;
    gradient uniform 0;
  }
  heatsource2
  {
    type fixedGradient;
    gradient uniform 0;
  }
  Table_master
  {
    type zeroGradient;
  }
  Table_slave
  {
    type zeroGradient;
  }
  inlet
  {
    type fixedValue;
    value uniform 293.15;
  }
  outlet
  {
    type zeroGradient;
  }
} 	// ************************************************************************* //

