/*--------------------------------*- C++ -*----------------------------------*\
  =========                 |
  \\      /  F ield         | OpenFOAM: The Open Source CFD Toolbox
   \\    /   O peration     | Website:  https://openfoam.org
    \\  /    A nd           | Version:  6
     \\/     M anipulation  |
\*---------------------------------------------------------------------------*/
FoamFile
{
    version     2.0;
    format      ascii;
    class       volScalarField;
    location    "1100";
    object      epsilon;
}
// * * * * * * * * * * * * * * * * * * * * * * * * * * * * * * * * * * * * * //

dimensions      [0 2 -3 0 0 0 0];

internalField   nonuniform List<scalar> 
459
(
0.000427617
0.000553955
0.000586001
0.000673907
0.000762836
0.000853579
0.000950588
0.00104976
0.00112326
0.0011522
0.00112041
0.0010221
0.000865515
0.00067516
0.000490306
3.46325e-05
5.85036e-05
8.42433e-05
8.67644e-05
7.93355e-05
6.95113e-05
5.72805e-05
4.63991e-05
3.7797e-05
3.11408e-05
2.5964e-05
2.18934e-05
1.86567e-05
1.60535e-05
1.38937e-05
1.20168e-05
1.02795e-05
9.35824e-06
7.24615e-06
0.00107958
0.00157935
0.000520563
0.000504052
0.000526784
0.000566465
0.000627451
0.000708358
0.000785601
0.000833522
0.000831808
0.000774821
0.000671137
0.000543235
0.00043781
0.000516951
0.000123841
3.92019e-05
9.20019e-05
0.000103142
9.68194e-05
8.45321e-05
7.21137e-05
6.58935e-05
5.31295e-05
4.17941e-05
3.28844e-05
2.60733e-05
2.0888e-05
1.69281e-05
1.39192e-05
1.17055e-05
1.03182e-05
9.70843e-06
2.58694e-05
1.73686e-05
0.0019663
0.0038833
0.000639281
0.000477661
0.000498741
0.000559513
0.000652051
0.000769632
0.000877779
0.000942074
0.000944976
0.000887707
0.000781967
0.000653581
0.00053425
0.000475249
0.000565098
0.00025794
0.000204433
0.000163525
0.000131596
0.000106558
9.11787e-05
0.000165942
0.000114506
8.15823e-05
6.0059e-05
4.55856e-05
3.55704e-05
2.84624e-05
2.33355e-05
1.96441e-05
1.49615e-05
1.25733e-05
4.99635e-05
2.80464e-05
0.00318393
0.00808078
0.00100753
0.00047964
0.000483773
0.000569071
0.000708709
0.000884417
0.00102187
0.00108804
0.00107923
0.00100653
0.000880772
0.000733495
0.000603663
0.000519018
0.00049954
0.000903247
0.000522442
0.000321386
0.000219229
0.000160621
0.000123935
0.000106436
0.000241407
0.000183868
0.00014883
0.000125387
0.000107551
9.25859e-05
7.95845e-05
6.72858e-05
5.46823e-05
3.26016e-05
2.13418e-05
8.49666e-05
3.90423e-05
0.00486065
0.014456
0.00199151
0.000559648
0.000485937
0.000599366
0.000851155
0.00111458
0.00126081
0.00130336
0.00126184
0.00115437
0.0009954
0.000811198
0.000633566
0.000488502
0.000389673
0.000348107
0.000285908
0.000229682
0.000184464
0.000148884
0.000121129
0.000101592
9.72631e-05
9.02387e-05
8.3567e-05
7.71125e-05
7.03604e-05
6.31014e-05
5.58196e-05
4.88859e-05
4.25479e-05
3.41529e-05
2.65708e-05
5.97936e-05
4.62682e-05
7.48982e-05
0.000130685
0.000185212
0.00719648
0.0215319
0.00449738
0.00104354
0.000681837
0.000797423
0.00130461
0.00157041
0.00164771
0.00162061
0.00152396
0.00136568
0.00115322
0.000911561
0.00067735
0.000485313
0.000353915
0.00028038
0.000235977
0.000200494
0.000168028
0.000139524
0.000116182
9.92513e-05
9.02328e-05
8.60651e-05
8.36688e-05
8.11331e-05
7.73409e-05
7.13769e-05
6.27795e-05
5.35873e-05
4.51258e-05
3.76693e-05
3.32762e-05
4.4883e-05
4.80259e-05
5.79218e-05
0.000241711
0.000211965
0.00997957
0.0257896
0.00939255
0.00345268
0.00221693
0.00219862
0.00240709
0.00238225
0.00225159
0.00208328
0.00188464
0.00164065
0.00134722
0.00102947
0.000729693
0.000491887
0.000336955
0.000253636
0.000209303
0.000177516
0.000149346
0.000125409
0.000107227
9.57282e-05
9.11085e-05
9.13518e-05
9.36544e-05
9.64019e-05
9.85663e-05
9.8677e-05
9.38355e-05
8.37605e-05
7.34101e-05
6.47675e-05
6.2081e-05
6.97884e-05
8.70079e-05
0.000131287
0.000320049
0.000308449
0.0106638
0.0287427
0.015626
0.00995956
0.00707694
0.00547492
0.00434094
0.00357855
0.0030607
0.0026757
0.00233016
0.00196108
0.00154973
0.0011293
0.000748139
0.000463905
0.000295502
0.00021288
0.000172687
0.000145518
0.000123592
0.000107226
9.69437e-05
9.26687e-05
9.37734e-05
9.89556e-05
0.000107011
0.000117614
0.000130962
0.000147156
0.00016554
0.000180786
0.000191593
0.000213332
0.000257351
0.000377049
0.000651379
0.00119395
0.00405528
0.00108564
0.00991288
0.0168773
0.0135418
0.0102295
0.00780724
0.0061567
0.00504217
0.00428135
0.00373306
0.00326812
0.00278745
0.00224472
0.00165193
0.00109579
0.000620094
0.000332109
0.000211756
0.000158193
0.000129847
0.000110851
9.72554e-05
8.88082e-05
8.53153e-05
8.63544e-05
9.13972e-05
0.000100004
0.000112191
0.000128686
0.000150905
0.000180949
0.000221656
0.000276703
0.000352962
0.000463663
0.000627666
0.000853688
0.00112273
0.00137851
0.00157838
0.000871747
0.00494128
0.00664465
0.00669599
0.00620561
0.00553162
0.00488722
0.00424394
0.00353748
0.00275619
0.00192167
0.00105416
0.000560313
0.000300192
0.000179701
0.000126741
0.000100425
8.51865e-05
7.55149e-05
6.97293e-05
6.71634e-05
6.74513e-05
7.03082e-05
7.55602e-05
8.32908e-05
9.39242e-05
0.000108289
0.000127696
0.000154116
0.000190567
0.000242012
0.000313908
0.000413966
0.000549441
0.000717525
0.000895203
0.00104097
0.000981786
0.000443925
0.00341431
0.00673285
0.00665772
0.00536051
0.00452955
0.00385114
0.00299653
0.00209329
0.0013302
0.000778752
0.000429758
0.00024258
0.000148422
0.000103988
8.27125e-05
7.15588e-05
6.53234e-05
6.20336e-05
6.09186e-05
6.15915e-05
6.38251e-05
6.75196e-05
7.27946e-05
7.99628e-05
8.94848e-05
0.000102075
0.000118856
0.00014156
0.000172708
0.000215557
0.000274603
0.000354726
0.000457821
0.000576612
0.000691821
0.000840814
0.000463947
0.000474706
0.00217244
0.00253693
0.00283142
0.00313725
0.00234222
0.00181755
0.00159737
0.00139117
0.00112383
0.000844344
0.000587539
0.000390601
0.00025826
0.000177686
0.000131228
0.000103803
8.65463e-05
7.52545e-05
6.807e-05
6.40733e-05
6.26436e-05
6.33161e-05
6.58062e-05
7.00268e-05
7.61189e-05
8.41537e-05
9.43971e-05
0.000107384
0.000123931
0.000145362
0.000172502
0.000206651
0.00024973
0.000304078
0.000371717
0.000454477
0.000472626
0.000337283
0.000288228
0.000477541
)
;

boundaryField
{
    floor
    {
        Cmu             0.09;
        kappa           0.41;
        E               9.8;
        type            epsilonWallFunction;
        value           nonuniform List<scalar> 
29
(
0.000490306
3.46325e-05
5.85036e-05
8.42433e-05
8.67644e-05
7.93355e-05
6.95113e-05
5.72805e-05
4.63991e-05
3.7797e-05
3.11408e-05
2.5964e-05
2.18934e-05
1.86567e-05
1.60535e-05
1.38937e-05
1.20168e-05
1.02795e-05
9.35824e-06
7.24615e-06
7.24615e-06
1.73686e-05
2.80464e-05
3.90423e-05
0.000490306
3.46325e-05
3.92019e-05
0.00025794
0.000903247
)
;
    }
    ceiling
    {
        Cmu             0.09;
        kappa           0.41;
        E               9.8;
        type            epsilonWallFunction;
        value           nonuniform List<scalar> 
43
(
0.00217244
0.00253693
0.00283142
0.00313725
0.00234222
0.00181755
0.00159737
0.00139117
0.00112383
0.000844344
0.000587539
0.000390601
0.00025826
0.000177686
0.000131228
0.000103803
8.65463e-05
7.52545e-05
6.807e-05
6.40733e-05
6.26436e-05
6.33161e-05
6.58062e-05
7.00268e-05
7.61189e-05
8.41537e-05
9.43971e-05
0.000107384
0.000123931
0.000145362
0.000172502
0.000206651
0.00024973
0.000304078
0.000371717
0.000454477
0.000472626
0.000337283
0.000288228
0.000477541
0.00991288
0.0168773
0.00341431
)
;
    }
    sWall
    {
        Cmu             0.09;
        kappa           0.41;
        E               9.8;
        type            epsilonWallFunction;
        value           uniform 0.00217244;
    }
    nWall
    {
        Cmu             0.09;
        kappa           0.41;
        E               9.8;
        type            epsilonWallFunction;
        value           nonuniform List<scalar> 6(0.000185212 0.000211965 0.000308449 0.000443925 0.000474706 0.000477541);
    }
    sideWalls
    {
        type            empty;
    }
    glass1
    {
        Cmu             0.09;
        kappa           0.41;
        E               9.8;
        type            epsilonWallFunction;
        value           nonuniform List<scalar> 9(0.000427617 0.00107958 0.0019663 0.00318393 0.00486065 0.00719648 0.00997957 0.0106638 0.00991288);
    }
    glass2
    {
        Cmu             0.09;
        kappa           0.41;
        E               9.8;
        type            epsilonWallFunction;
        value           nonuniform List<scalar> 2(0.00108564 0.000871747);
    }
    sun
    {
        Cmu             0.09;
        kappa           0.41;
        E               9.8;
        type            epsilonWallFunction;
        value           nonuniform List<scalar> 
14
(
0.000427617
0.000553955
0.000586001
0.000673907
0.000762836
0.000853579
0.000950588
0.00104976
0.00112326
0.0011522
0.00112041
0.0010221
0.000865515
0.00067516
)
;
    }
    heatsource1
    {
        Cmu             0.09;
        kappa           0.41;
        E               9.8;
        type            epsilonWallFunction;
        value           nonuniform List<scalar> 3(7.48982e-05 0.000130685 0.000185212);
    }
    heatsource2
    {
        Cmu             0.09;
        kappa           0.41;
        E               9.8;
        type            epsilonWallFunction;
        value           nonuniform List<scalar> 4(0.000516951 0.000123841 0.000123841 0.000565098);
    }
    Table_master
    {
        Cmu             0.09;
        kappa           0.41;
        E               9.8;
        type            epsilonWallFunction;
        value           nonuniform List<scalar> 9(0.000165942 0.000114506 8.15823e-05 6.0059e-05 4.55856e-05 3.55704e-05 2.84624e-05 2.33355e-05 1.96441e-05);
    }
    Table_slave
    {
        Cmu             0.09;
        kappa           0.41;
        E               9.8;
        type            epsilonWallFunction;
        value           nonuniform List<scalar> 9(0.000241407 0.000183868 0.00014883 0.000125387 0.000107551 9.25859e-05 7.95845e-05 6.72858e-05 5.46823e-05);
    }
    inlet
    {
        type            turbulentMixingLengthDissipationRateInlet;
        mixingLength    0.01;
        phi             phi;
        k               k;
        value           uniform 0.000101881;
    }
    outlet
    {
        type            zeroGradient;
    }
}


// ************************************************************************* //
