/*--------------------------------*- C++ -*----------------------------------*\
  =========                 |
  \\      /  F ield         | OpenFOAM: The Open Source CFD Toolbox
   \\    /   O peration     | Website:  https://openfoam.org
    \\  /    A nd           | Version:  6
     \\/     M anipulation  |
\*---------------------------------------------------------------------------*/
FoamFile
{
    version     2.0;
    format      ascii;
    class       surfaceScalarField;
    location    "400";
    object      phi;
}
// * * * * * * * * * * * * * * * * * * * * * * * * * * * * * * * * * * * * * //

dimensions      [1 0 -1 0 0 0 0];

internalField   nonuniform List<scalar> 
852
(
-0.0015039
0.00152842
-0.00189543
0.000391985
-0.00158402
-0.000310948
-0.00106652
-0.000517092
-0.000832699
-0.000233452
-0.000692816
-0.000139523
-0.000567359
-0.000125076
-0.000441272
-0.000125682
-0.000316493
-0.000124362
-0.000197966
-0.000118109
-8.79843e-05
-0.00010957
1.60218e-05
-0.000103594
0.000101302
-8.4892e-05
0.000179113
-7.74212e-05
0.000173147
0.00011784
-0.000120474
-0.000115813
0.000234128
-0.000211528
9.61649e-05
-0.000230804
1.97277e-05
-0.000180477
-4.98466e-05
-6.53854e-05
-0.000114585
8.97656e-05
-0.000154611
0.000282695
-0.000192485
0.000397772
-0.000114637
0.000484291
-8.6073e-05
0.000554741
-7.00003e-05
0.000625572
-7.03771e-05
0.000718405
-9.23713e-05
0.000830276
-0.000111398
0.000840328
-9.57957e-06
0.000634887
0.00020592
0.000354549
0.000280824
-6.65419e-05
0.000421595
-6.89985e-05
0.00194029
-0.000357
0.00110024
0.001233
7.65574e-05
0.000713599
-0.000485224
4.51107e-05
-0.000561467
-0.00015681
-0.00048575
-0.000214801
-0.000382565
-0.000227778
-0.000282918
-0.000224812
-0.000196072
-0.000210671
-0.00012679
-0.000186847
-7.56982e-05
-0.000160118
-3.76116e-05
-0.000141144
-3.35626e-06
-0.000118623
6.79688e-05
-0.000148238
0.000370364
-0.000128759
0.000357001
1.37553e-05
0.000357359
-6.25835e-05
-6.7154e-05
0.000129948
4.21838e-05
8.77181e-05
0.000138986
-3.91956e-05
0.000147232
-0.000210639
0.000122169
-0.000550414
0.000225766
-0.000387059
-0.000317369
1.66682e-05
-0.00059561
0.000174347
-0.00027174
0.000247188
-0.000158349
0.000282937
-0.000105185
0.000279895
-6.67729e-05
0.000217116
-2.90336e-05
9.08164e-05
1.54583e-05
-3.20053e-05
0.000113826
-0.00010154
0.000276069
-0.000101051
0.000280952
-5.80615e-06
0.000326972
-8.42727e-05
0.000207186
-0.000568514
-0.000444448
0.00188493
-0.000645966
0.000915678
-0.000764345
0.000163979
-0.000707707
-0.000212924
-0.000589034
-0.000332914
-0.000492119
-0.000324098
-0.000437912
-0.000278399
-0.000426901
-0.000221042
-0.000457147
-0.000155948
-0.00053566
-8.09524e-05
-0.000663538
-1.2618e-05
-0.000814926
3.34227e-05
-0.000992227
2.97198e-05
-0.00111686
-3.47208e-06
-0.000964429
-0.000137994
-0.000606373
-0.000534829
0.000448645
-0.000497665
5.79743e-06
-0.000367078
9.16382e-06
-0.00023257
1.34808e-05
-0.000110224
5.78894e-07
0.000181063
-6.4773e-05
-0.000135629
-0.000730424
-0.00100134
-0.00115886
-0.00126319
-0.00132908
-0.00135721
-0.00134081
-0.00122599
-0.000648092
-0.000300902
-0.00019535
-0.000170885
5.94093e-05
7.30824e-05
-4.38316e-05
0.000122051
-0.000742051
-0.00027949
0.00228699
-0.000872811
0.00150964
-0.00107113
0.000362982
-0.00100498
-0.000278369
-0.000892147
-0.000445036
-0.000854977
-0.000360549
-0.000906451
-0.000226186
-0.00103658
-9.01475e-05
-0.00122903
3.73097e-05
-0.00145488
0.000145739
-0.00168731
0.000220673
-0.00190493
0.00025192
-0.00210314
0.000228846
-0.00224592
0.000140259
-0.00234019
-4.27516e-05
-0.00259222
-0.00035335
-0.0025061
-0.000116987
-0.0021347
7.8256e-05
-0.00218529
5.74424e-05
-0.00228818
0.000113147
-0.00241569
0.000142117
-0.00255442
0.000140467
-0.00272307
0.000105075
-0.00279006
6.8057e-05
-0.00279337
4.39388e-06
-0.00274788
-4.44041e-05
-0.00266415
-8.26379e-05
-0.00254604
-0.000117019
-0.00239225
-0.000152685
-0.00219681
-0.00019434
-0.00194582
-0.000249884
-0.00160175
-0.000342974
-0.00137888
-0.00052256
-0.000881899
-0.000666637
7.71147e-05
-0.0008847
-5.3743e-07
0.000423607
-0.00127603
0.000801614
0.00190972
0.000123147
0.00218894
-0.000853164
0.00134015
-0.00122177
9.10911e-05
-0.00123385
-0.000432106
-0.00134562
-0.000247935
-0.00154024
-3.06866e-05
-0.00176172
0.000132241
-0.0019697
0.000246217
-0.00214706
0.00032406
-0.00229705
0.000371653
-0.00242612
0.000382023
-0.00254223
0.000346011
-0.00265279
0.000251915
-0.00278777
9.33636e-05
-0.00306593
-7.40538e-05
-0.00310786
-7.39066e-05
-0.00304563
1.71937e-05
-0.0030386
5.16042e-05
-0.00301886
9.46286e-05
-0.00299137
0.000115867
-0.0029583
0.000108645
-0.00292535
7.33987e-05
-0.00287482
1.88202e-05
-0.0028227
-4.64387e-05
-0.00276017
-0.000105629
-0.00268528
-0.000156228
-0.00259925
-0.000201729
-0.00250484
-0.000245777
-0.00240606
-0.000291798
-0.00230937
-0.000345238
-0.0022367
-0.000414298
-0.00226975
-0.000488161
-0.0024034
-0.000531625
-0.00281794
-0.000468771
-0.00254761
-0.000269446
-0.00232571
-0.000220623
-0.00210955
-0.000214867
-0.00215778
0.000707918
-0.00215731
0.00205821
0.000560472
0.00189438
0.00235383
0.000425777
0.00280986
-0.000871889
0.00138973
-0.00140367
0.000100655
-0.00179417
0.000143561
-0.00210535
0.0002815
-0.00233855
0.00036646
-0.0025043
0.000413008
-0.00261556
0.00043639
-0.00268444
0.000441639
-0.00272674
0.000425453
-0.00275923
0.000379667
-0.00280019
0.000294057
-0.00287605
0.000170442
-0.00300059
5.17205e-05
-0.00306992
-3.32728e-06
-0.00305267
1.20515e-06
-0.00300874
8.94604e-06
-0.00293634
2.35284e-05
-0.00284825
2.90824e-05
-0.00275507
1.67818e-05
-0.00266472
-1.56245e-05
-0.0025813
-6.3255e-05
-0.00250748
-0.000118914
-0.00243785
-0.000173915
-0.00236742
-0.000225295
-0.00229429
-0.000273499
-0.00221886
-0.000319838
-0.0021435
-0.000365787
-0.00207381
-0.000413544
-0.00202273
-0.000463983
-0.00200397
-0.000505524
-0.00202398
-0.000510199
-0.00204213
-0.000449199
-0.00189334
-0.000416787
-0.00155694
-0.000555571
-0.00109849
-0.000671832
-0.0033054
0.00089812
-0.00328324
0.00321503
-0.00175502
0.00321746
0.00235271
0.0013852
0.00464335
-0.000328193
0.00310414
-0.00148824
0.00126174
-0.00213147
0.000787844
-0.0024896
0.000640714
-0.00268285
0.000560814
-0.0027659
0.0004972
-0.00277234
0.000444004
-0.00272696
0.000397454
-0.00265216
0.000351875
-0.00256984
0.0002986
-0.00250185
0.000227338
-0.00246694
0.000136824
-0.00246168
4.77771e-05
-0.00244987
-1.38006e-05
-0.00240397
-4.33614e-05
-0.00233735
-5.63138e-05
-0.00225204
-6.04189e-05
-0.00215561
-6.59786e-05
-0.00205762
-7.98251e-05
-0.00196674
-0.000105122
-0.00188726
-0.000141349
-0.00181958
-0.000185206
-0.00176003
-0.000232061
-0.00170424
-0.000279688
-0.00164855
-0.000327786
-0.00159002
-0.000376961
-0.00152603
-0.000428357
-0.00145436
-0.000483798
-0.00137235
-0.000544563
-0.00126978
-0.000606655
-0.00112172
-0.000656824
-0.000884413
-0.000685054
-0.000575693
-0.000724053
-0.000289094
-0.000840706
7.96818e-05
-0.00103912
-0.00327665
9.93702e-05
-0.00363829
0.00271016
-0.00436414
0.00263404
0.00243035
0.000108216
0.00717046
-0.0011925
0.00440584
-0.0020507
0.00212105
-0.00248255
0.00122083
-0.00265847
0.000817805
-0.00267171
0.000575258
-0.00258018
0.000406903
-0.00242475
0.000289822
-0.00223179
0.000205777
-0.00202231
0.000143703
-0.00181584
9.34611e-05
-0.00163038
4.32373e-05
-0.00147945
-1.27272e-05
-0.00136634
-6.39317e-05
-0.00127969
-9.90368e-05
-0.00120192
-0.000119711
-0.00112582
-0.000130989
-0.00104809
-0.000136712
-0.000970323
-0.000142312
-0.000896451
-0.000152259
-0.000830764
-0.000169371
-0.000776245
-0.000194427
-0.000733567
-0.000226443
-0.000700661
-0.000263524
-0.000674291
-0.000304614
-0.000650888
-0.000349743
-0.000626554
-0.000399846
-0.000596644
-0.000456816
-0.000555127
-0.000523859
-0.000492562
-0.000605668
-0.000389599
-0.000708154
-0.000204328
-0.000840626
0.000138703
-0.00102661
0.000722322
-0.00130619
0.00153815
-0.00165505
0.00219827
-0.00169775
-0.00149079
-0.00395789
-0.00836517
-0.00417211
-0.00176094
-0.00339449
0.00639413
-0.00299678
0.00400927
-0.00278598
0.00191146
-0.00250173
0.000937821
-0.00218822
0.000505547
-0.00185222
0.000240551
-0.00149612
5.21108e-05
-0.00113765
-6.73094e-05
-0.000798543
-0.00013197
-0.000489724
-0.000163726
-0.000215535
-0.000179311
1.67943e-05
-0.000187652
0.000196882
-0.000191353
0.000327334
-0.000192906
0.000423064
-0.000193279
0.000495923
-0.000191076
0.000553678
-0.000187246
0.000601632
-0.000183166
0.000641995
-0.000181174
0.00067476
-0.000183525
0.000698731
-0.000191844
0.000712629
-0.00020683
0.000715991
-0.000228312
0.000709645
-0.000255687
0.00069525
-0.000288729
0.000674953
-0.000327957
0.000651405
-0.00037481
0.000627997
-0.00043192
0.000609291
-0.000503664
0.00060216
-0.000597046
0.000618695
-0.000723195
0.000680341
-0.000900776
0.000818488
-0.00116326
0.00108212
-0.00156832
0.00160311
-0.00217455
0.0025394
-0.00263253
0.000571423
-0.010518
0.00401306
-0.00674783
0.00262553
-0.00376081
0.00102358
-0.00184333
-4.69865e-06
-0.000633968
-0.000270204
0.00018493
-0.000311995
0.0007893
-0.000362423
0.00123767
-0.000394837
0.00157303
-0.000401223
0.00183513
-0.0003926
0.00204656
-0.000373673
0.00221741
-0.000348655
0.00235152
-0.000320245
0.00245189
-0.000290192
0.00252135
-0.000260814
0.0025635
-0.000233869
0.00258386
-0.000209878
0.00258779
-0.000189606
0.00257996
-0.000173766
0.00256352
-0.00016317
0.00253999
-0.000158436
0.00250955
-0.000159843
0.00247159
-0.000167317
0.00242537
-0.000180538
0.00237044
-0.000199215
0.00230671
-0.000223459
0.00223432
-0.00025403
0.00215353
-0.00029249
0.00206456
-0.000341415
0.00196715
-0.00040473
0.00185985
-0.000488223
0.00173848
-0.000600302
0.00159263
-0.000753396
0.00139782
-0.000966936
0.00109837
-0.00126736
0.000571116
-0.00164578
-0.000628582
-0.00143133
-0.000147139
-4.07485e-05
0.00399585
0.00326047
-0.000673905
0.00434178
-5.60802e-05
0.00464589
-0.00030718
0.00492864
-0.000551348
0.00520161
-0.000583376
0.00537475
-0.000533971
0.00546292
-0.000481426
0.00549661
-0.000433324
0.00549099
-0.000385391
0.00545565
-0.00033674
0.00539708
-0.000288477
0.00532038
-0.000241933
0.00523032
-0.0001985
0.00513096
-0.000159827
0.00502606
-0.000127326
0.00491949
-0.000101667
0.00481434
-8.28165e-05
0.00471242
-7.02015e-05
0.00461388
-6.29925e-05
0.00451739
-6.03168e-05
0.00442057
-6.14062e-05
0.00432057
-6.56916e-05
0.0042145
-7.28615e-05
0.0040998
-8.29158e-05
0.00397416
-9.62239e-05
0.00383526
-0.00011355
0.0036804
-0.000136053
0.00350586
-0.000165294
0.00330593
-0.000203237
0.00307155
-0.000252284
0.00278818
-0.000315377
0.0024324
-0.000396062
0.00196543
-0.000498431
0.00133583
-0.000636215
0.000592288
-0.000900719
-2.2424e-06
-0.000835295
-0.000260167
-0.000375441
0.0120028
0.0159006
0.0151287
0.0149713
0.0145584
0.0138964
0.013197
0.0125417
0.0119336
0.0113684
0.0108465
0.010369
0.00993638
0.0095477
0.00920087
0.00889209
0.00861604
0.00836655
0.00813721
0.00792199
0.0077155
0.00751312
0.00731095
0.00710564
0.00689417
0.00667354
0.00644042
0.00619072
0.00591921
0.00561911
0.00528168
0.00489577
0.00444733
0.00391884
0.0032888
0.00252241
0.00149489
0.000531225
)
;

boundaryField
{
    floor
    {
        type            calculated;
        value           nonuniform List<scalar> 
29
(
0
0
0
0
0
0
0
0
0
0
0
0
0
0
0
0
0
0
0
0
2.98795e-06
1.0123e-05
1.98349e-05
3.49809e-05
6.2755e-06
3.12687e-06
9.85979e-06
1.98101e-05
3.18689e-05
)
;
    }
    ceiling
    {
        type            calculated;
        value           nonuniform List<scalar> 
43
(
0.000187956
0.000159709
9.99326e-05
9.98504e-05
0.000103242
0.000107569
0.000112505
0.000117782
0.000123168
0.000128487
0.00013359
0.000138315
0.000142487
0.000145929
0.000148487
0.000150071
0.000150688
0.000150451
0.00014956
0.000148252
0.000146748
0.00014522
0.000143777
0.000142472
0.000141316
0.000140296
0.000139387
0.000138564
0.000137805
0.000137099
0.000136438
0.000135819
0.000135235
0.000134659
0.000134024
0.000133182
0.000131737
0.000128351
0.000129888
0.000136446
6.00442e-05
4.48957e-05
6.06364e-05
)
;
    }
    sWall
    {
        type            calculated;
        value           uniform 0.000108785;
    }
    nWall
    {
        type            calculated;
        value           nonuniform List<scalar> 6(4.95415e-05 5.06515e-05 5.24653e-05 9.15136e-05 0.000112267 0.000136109);
    }
    sideWalls
    {
        type            empty;
        value           nonuniform 0();
    }
    glass1
    {
        type            calculated;
        value           nonuniform List<scalar> 9(-2.4034e-05 -5.36569e-05 5.00196e-06 5.21938e-05 0.000111491 0.000174808 0.000229501 0.000257477 0.000261347);
    }
    glass2
    {
        type            calculated;
        value           nonuniform List<scalar> 2(0.000413973 0.000478754);
    }
    sun
    {
        type            calculated;
        value           uniform 0;
    }
    heatsource1
    {
        type            calculated;
        value           nonuniform List<scalar> 3(1.86913e-07 1.86794e-07 1.8686e-07);
    }
    heatsource2
    {
        type            calculated;
        value           nonuniform List<scalar> 4(4.88638e-08 4.89042e-08 0 0);
    }
    Table_master
    {
        type            calculated;
        value           nonuniform List<scalar> 9(-1.48093e-07 -1.48226e-07 -1.47879e-07 -1.47593e-07 -1.47335e-07 -1.47084e-07 -1.46826e-07 -1.46542e-07 -1.46167e-07);
    }
    Table_slave
    {
        type            calculated;
        value           nonuniform List<scalar> 9(1.42284e-07 1.42226e-07 1.42174e-07 1.42148e-07 1.42144e-07 1.42162e-07 1.42206e-07 1.42287e-07 1.42393e-07);
    }
    inlet
    {
        type            calculated;
        value           uniform 0.00474695;
    }
    outlet
    {
        type            calculated;
        value           nonuniform List<scalar> 2(8.02723e-05 -0.0125363);
    }
}


// ************************************************************************* //
