// -*- C++ -*-
// File generated by PyFoam - sorry for the ugliness

FoamFile
{
 version 2.0;
 format ascii;
 class volScalarField;
 location "200";
 object T;
}

dimensions [ 0 0 0 1 0 0 0 ];

internalField nonuniform List<scalar> 459
(
  305.609
  305.363
  305.361
  305.366
  305.376
  305.388
  305.402
  305.417
  305.434
  305.451
  305.469
  305.486
  305.501
  305.512
  305.514
  304.121
  304.166
  304.194
  304.176
  304.163
  304.165
  304.17
  304.17
  304.167
  304.165
  304.166
  304.168
  304.165
  304.161
  304.158
  304.159
  304.151
  304.136
  304.124
  305.84
  305.558
  305.531
  305.533
  305.546
  305.561
  305.576
  305.592
  305.608
  305.625
  305.641
  305.654
  305.661
  305.66
  305.645
  305.611
  305.347
  304.522
  304.475
  304.443
  304.409
  304.382
  304.365
  304.395
  304.393
  304.391
  304.394
  304.401
  304.416
  304.453
  304.484
  304.516
  304.554
  304.522
  304.467
  304.459
  306.048
  305.742
  305.702
  305.692
  305.7
  305.715
  305.733
  305.751
  305.769
  305.786
  305.802
  305.813
  305.815
  305.802
  305.769
  305.716
  305.651
  304.926
  304.917
  304.901
  304.906
  304.903
  304.858
  304.636
  304.686
  304.743
  304.8
  304.858
  304.92
  304.989
  305.084
  305.209
  305.376
  305.371
  305.427
  305.494
  306.248
  305.953
  305.93
  305.896
  305.879
  305.882
  305.898
  305.918
  305.939
  305.959
  305.978
  305.991
  305.993
  305.978
  305.938
  305.866
  305.761
  305.652
  305.577
  305.668
  305.772
  305.878
  305.968
  306.039
  306.099
  306.121
  306.142
  306.162
  306.182
  306.201
  306.218
  306.231
  306.236
  306.222
  306.264
  306.318
  306.389
  306.448
  306.197
  306.232
  306.204
  306.134
  306.087
  306.084
  306.101
  306.124
  306.149
  306.173
  306.195
  306.21
  306.214
  306.202
  306.174
  306.134
  306.094
  306.071
  306.088
  306.131
  306.179
  306.22
  306.253
  306.278
  306.299
  306.32
  306.343
  306.367
  306.393
  306.421
  306.45
  306.48
  306.509
  306.547
  306.584
  306.62
  306.655
  306.702
  306.75
  306.651
  306.48
  306.648
  306.63
  306.522
  306.402
  306.33
  306.317
  306.336
  306.364
  306.393
  306.421
  306.445
  306.46
  306.462
  306.45
  306.425
  306.398
  306.38
  306.378
  306.387
  306.404
  306.423
  306.439
  306.454
  306.469
  306.484
  306.501
  306.52
  306.541
  306.565
  306.592
  306.622
  306.653
  306.686
  306.718
  306.752
  306.791
  306.84
  306.892
  306.859
  306.798
  307.215
  307.2
  307.039
  306.85
  306.7
  306.625
  306.615
  306.638
  306.67
  306.702
  306.728
  306.748
  306.758
  306.755
  306.74
  306.717
  306.695
  306.68
  306.672
  306.67
  306.671
  306.673
  306.676
  306.68
  306.684
  306.69
  306.698
  306.708
  306.722
  306.738
  306.757
  306.778
  306.8
  306.823
  306.848
  306.879
  306.922
  306.968
  307.08
  307.166
  307.794
  307.877
  307.662
  307.375
  307.163
  307.055
  307.024
  307.033
  307.057
  307.084
  307.109
  307.129
  307.136
  307.132
  307.119
  307.097
  307.071
  307.045
  307.023
  307.004
  306.989
  306.975
  306.964
  306.953
  306.943
  306.934
  306.926
  306.922
  306.919
  306.921
  306.925
  306.932
  306.94
  306.949
  306.959
  306.971
  306.993
  307.02
  307.366
  307.542
  309.078
  308.995
  308.421
  307.939
  307.683
  307.595
  307.589
  307.61
  307.632
  307.648
  307.656
  307.657
  307.651
  307.636
  307.61
  307.575
  307.536
  307.497
  307.458
  307.421
  307.386
  307.354
  307.323
  307.294
  307.265
  307.238
  307.213
  307.189
  307.168
  307.151
  307.137
  307.125
  307.116
  307.107
  307.097
  307.085
  307.076
  307.065
  314.738
  310.424
  309.153
  308.585
  308.405
  308.381
  308.401
  308.426
  308.438
  308.432
  308.408
  308.373
  308.328
  308.278
  308.223
  308.163
  308.101
  308.037
  307.973
  307.91
  307.852
  307.795
  307.741
  307.689
  307.638
  307.589
  307.543
  307.498
  307.456
  307.417
  307.381
  307.348
  307.316
  307.285
  307.251
  307.213
  307.169
  307.113
  313.587
  311.294
  310.508
  310.036
  309.826
  309.728
  309.654
  309.576
  309.489
  309.396
  309.297
  309.193
  309.088
  308.984
  308.883
  308.785
  308.689
  308.595
  308.504
  308.416
  308.33
  308.246
  308.166
  308.089
  308.015
  307.944
  307.875
  307.809
  307.746
  307.684
  307.626
  307.569
  307.513
  307.457
  307.398
  307.332
  307.254
  307.156
  312.039
  312.085
  312.886
  312.557
  312.203
  311.908
  311.666
  311.45
  311.245
  311.046
  310.847
  310.641
  310.436
  310.24
  310.054
  309.88
  309.717
  309.564
  309.42
  309.284
  309.155
  309.032
  308.914
  308.8
  308.691
  308.585
  308.482
  308.382
  308.285
  308.19
  308.098
  308.007
  307.918
  307.83
  307.742
  307.651
  307.556
  307.449
  307.316
  307.139
)
;

boundaryField
{
  floor
  {
    type wallHeatTransfer;
    Tinf uniform 305.2;
    alphaWall uniform 0.24;
    value nonuniform List<scalar> 29
(
  305.462
  304.41
  304.43
  304.447
  304.445
  304.452
  304.464
  304.476
  304.469
  304.455
  304.441
  304.43
  304.425
  304.424
  304.425
  304.429
  304.436
  304.441
  304.442
  304.449
  304.449
  304.653
  305.435
  306.203
  305.462
  304.41
  304.656
  304.969
  305.594
)
;
  }
  ceiling
  {
    type wallHeatTransfer;
    Tinf uniform 303.2;
    alphaWall uniform 0.24;
    value nonuniform List<scalar> 43
(
  311.198
  311.416
  312.587
  312.248
  311.868
  311.54
  311.264
  311.016
  310.785
  310.567
  310.36
  310.156
  309.96
  309.775
  309.601
  309.439
  309.286
  309.142
  309.006
  308.877
  308.755
  308.638
  308.526
  308.418
  308.314
  308.214
  308.116
  308.021
  307.928
  307.837
  307.749
  307.662
  307.576
  307.491
  307.406
  307.318
  307.224
  307.118
  306.985
  306.781
  307.177
  307.376
  313.377
)
;
  }
  sWall
  {
    type wallHeatTransfer;
    Tinf uniform 315.2;
    alphaWall uniform 0.36;
    value uniform 312.471;
  }
  nWall
  {
    type wallHeatTransfer;
    Tinf uniform 307.2;
    alphaWall uniform 0.36;
    value nonuniform List<scalar> 6
(
  306.833
  306.943
  307.002
  307.123
  307.16
  307.147
)
;
  }
  sideWalls
  {
    type empty;
  }
  glass1
  {
    type wallHeatTransfer;
    Tinf uniform 315.2;
    alphaWall uniform 4.3;
    value nonuniform List<scalar> 9
(
  312.689
  311.75
  311.214
  310.884
  310.694
  310.589
  310.56
  310.732
  310.993
)
;
  }
  glass2
  {
    type wallHeatTransfer;
    Tinf uniform 307.2;
    alphaWall uniform 4.3;
    value nonuniform List<scalar> 2
(
  307.138
  307.151
)
;
  }
  sun
  {
    type wallHeatTransfer;
    Tinf uniform 305.2;
    alphaWall uniform 0.24;
    value nonuniform List<scalar> 14
(
  305.554
  305.342
  305.335
  305.336
  305.345
  305.354
  305.366
  305.379
  305.393
  305.408
  305.424
  305.438
  305.451
  305.461
)
;
  }
  heatsource1
  {
    type fixedGradient;
    gradient uniform 0;
  }
  heatsource2
  {
    type fixedGradient;
    gradient uniform 0;
  }
  Table_master
  {
    type zeroGradient;
  }
  Table_slave
  {
    type zeroGradient;
  }
  inlet
  {
    type fixedValue;
    value uniform 293.15;
  }
  outlet
  {
    type zeroGradient;
  }
} 	// ************************************************************************* //

