// -*- C++ -*-
// File generated by PyFoam - sorry for the ugliness

FoamFile
{
 version 2.0;
 format ascii;
 class volVectorField;
 location "400";
 object U;
}

dimensions [ 0 1 -1 0 0 0 0 ];

internalField nonuniform List<vector> 459
(
  (0.0195911 0.0898217 0)
  (-0.177611 0.0281342 0)
  (-0.208449 0.0152067 0)
  (-0.23695 0.0052614 0)
  (-0.249726 -0.00541671 0)
  (-0.243999 -0.0167327 0)
  (-0.219593 -0.0286758 0)
  (-0.178908 -0.0392517 0)
  (-0.127571 -0.0462136 0)
  (-0.0731627 -0.0483841 0)
  (-0.021969 -0.0445806 0)
  (0.0253349 -0.0282769 0)
  (0.046057 -0.0134443 0)
  (0.0515912 0.00398435 0)
  (0.0376009 0.0334266 0)
  (-0.0221752 0.0142271 0)
  (-0.0438161 -0.0127049 0)
  (-0.0215784 -0.0270166 0)
  (0.0034236 -0.028245 0)
  (0.0281934 -0.0220554 0)
  (0.0478893 -0.0156692 0)
  (0.0615714 -0.00909539 0)
  (0.0695348 -0.0054942 0)
  (0.0733422 -0.00409186 0)
  (0.0752435 -0.00350576 0)
  (0.0765192 -0.00312497 0)
  (0.0774522 -0.0028044 0)
  (0.0779643 -0.00245344 0)
  (0.0777653 -0.00185263 0)
  (0.0761637 -0.000563797 0)
  (0.0717172 0.00203835 0)
  (0.062757 0.00535775 0)
  (0.0497032 0.00984723 0)
  (0.0066397 0.0247191 0)
  (0.187165 0.184927 0)
  (-0.160252 0.0782049 0)
  (-0.167308 0.0545553 0)
  (-0.197356 0.0336321 0)
  (-0.211044 0.00947763 0)
  (-0.206583 -0.0177874 0)
  (-0.184177 -0.0454751 0)
  (-0.14759 -0.0678921 0)
  (-0.103129 -0.0803037 0)
  (-0.0576073 -0.0815692 0)
  (-0.0165311 -0.0715857 0)
  (0.019149 -0.0483305 0)
  (0.0413135 -0.0226587 0)
  (0.0566256 0.00530539 0)
  (0.0642076 0.0351823 0)
  (0.0670341 0.0376929 0)
  (0.0458318 0.0416628 0)
  (0.0351388 0.0449987 0)
  (0.00652353 -0.0163979 0)
  (0.026081 -0.0388101 0)
  (0.0400953 -0.039323 0)
  (0.0534724 -0.0325529 0)
  (0.0647955 -0.0233558 0)
  (0.0704484 -0.0107675 0)
  (0.0719669 -0.00319055 0)
  (0.0720505 -0.00026147 0)
  (0.0722528 0.000846284 0)
  (0.0726149 0.00144433 0)
  (0.0728946 0.001889 0)
  (0.073039 0.0024662 0)
  (0.0729743 0.00360939 0)
  (0.0721202 0.00629085 0)
  (0.0678906 0.0132397 0)
  (0.0574503 0.0201532 0)
  (0.0460705 0.0276995 0)
  (-0.026155 0.0515292 0)
  (0.341329 0.276183 0)
  (-0.169316 0.122208 0)
  (-0.126335 0.087219 0)
  (-0.156004 0.0517998 0)
  (-0.168871 0.0118684 0)
  (-0.16304 -0.0323241 0)
  (-0.139774 -0.0756633 0)
  (-0.105435 -0.108182 0)
  (-0.0673134 -0.123225 0)
  (-0.0305115 -0.120997 0)
  (0.00152846 -0.102986 0)
  (0.0272187 -0.0733971 0)
  (0.0464618 -0.040527 0)
  (0.0606375 -0.00713047 0)
  (0.0694077 0.0240917 0)
  (0.0690177 0.0434484 0)
  (0.0590317 0.0781778 0)
  (0.0983279 -0.000425821 0)
  (0.072885 -0.0335042 0)
  (0.0716213 -0.0470399 0)
  (0.0747239 -0.047306 0)
  (0.0779617 -0.04065 0)
  (0.0818419 -0.0330655 0)
  (0.081435 -0.0251469 0)
  (0.0728114 -0.0164726 0)
  (0.0661512 -0.0117745 0)
  (0.0631168 -0.00913439 0)
  (0.061723 -0.00744271 0)
  (0.0607795 -0.00628227 0)
  (0.0601664 -0.0053453 0)
  (0.0605377 -0.00404877 0)
  (0.0633848 -7.6531e-05 0)
  (0.0615319 0.0184324 0)
  (0.0489784 0.0321924 0)
  (0.0449713 0.0446509 0)
  (-0.0586427 0.0781843 0)
  (0.482314 0.349391 0)
  (-0.196454 0.16027 0)
  (-0.0836774 0.116229 0)
  (-0.111986 0.0689043 0)
  (-0.120819 0.0146314 0)
  (-0.10784 -0.0471122 0)
  (-0.0814118 -0.105265 0)
  (-0.0500689 -0.144724 0)
  (-0.0205481 -0.159322 0)
  (0.00618862 -0.152078 0)
  (0.0270611 -0.1281 0)
  (0.0438822 -0.0939502 0)
  (0.0574633 -0.0560675 0)
  (0.0685717 -0.0187041 0)
  (0.0788803 0.0156498 0)
  (0.0908223 0.0437457 0)
  (0.108677 0.0770051 0)
  (0.139207 0.0682109 0)
  (0.130957 0.00988613 0)
  (0.115943 -0.0237936 0)
  (0.105035 -0.0388959 0)
  (0.0960714 -0.041892 0)
  (0.0882726 -0.037461 0)
  (0.081584 -0.0286878 0)
  (0.08075 -0.0166021 0)
  (0.087144 -0.0104143 0)
  (0.0912095 -0.00694723 0)
  (0.091513 -0.00469302 0)
  (0.0894787 -0.00281806 0)
  (0.0857496 -0.000967928 0)
  (0.0798633 0.00117751 0)
  (0.0706558 0.00410036 0)
  (0.0546201 0.00861137 0)
  (0.042651 0.0293986 0)
  (0.0334132 0.0461644 0)
  (0.0450722 0.0615475 0)
  (-0.0919192 0.0999038 0)
  (0.606812 0.405452 0)
  (-0.233463 0.190035 0)
  (-0.0415044 0.134104 0)
  (-0.0656864 0.0797251 0)
  (-0.0656556 0.0135955 0)
  (-0.0359302 -0.0671278 0)
  (-0.00739748 -0.134205 0)
  (0.0174822 -0.173642 0)
  (0.0348383 -0.182601 0)
  (0.0476271 -0.170357 0)
  (0.0564295 -0.142592 0)
  (0.0626484 -0.10544 0)
  (0.067452 -0.0653647 0)
  (0.0721881 -0.0273162 0)
  (0.07895 0.00567881 0)
  (0.0887048 0.0301423 0)
  (0.104524 0.0415725 0)
  (0.116567 0.0148576 0)
  (0.115278 -0.0115944 0)
  (0.107651 -0.0254916 0)
  (0.0970768 -0.0316722 0)
  (0.085818 -0.032389 0)
  (0.0753729 -0.0285658 0)
  (0.0668855 -0.0208684 0)
  (0.0625698 -0.00926733 0)
  (0.0620585 -0.00230499 0)
  (0.0615292 0.00106978 0)
  (0.0600769 0.00312934 0)
  (0.058373 0.00508569 0)
  (0.0563902 0.00754016 0)
  (0.0536696 0.0109858 0)
  (0.0496755 0.0159876 0)
  (0.0433399 0.0233219 0)
  (0.0369323 0.037795 0)
  (0.0297801 0.0548008 0)
  (0.0528864 0.0746773 0)
  (-0.0185584 0.108528 0)
  (0.0455144 0.0354458 0)
  (-0.0590243 -0.0331753 0)
  (-0.264524 -0.054974 0)
  (0.70167 0.450718 0)
  (-0.272582 0.208104 0)
  (-0.00631487 0.13124 0)
  (-0.0139255 0.0787379 0)
  (0.0164239 -0.0081562 0)
  (0.0534165 -0.0970779 0)
  (0.0775604 -0.157783 0)
  (0.0903216 -0.188014 0)
  (0.0938281 -0.191387 0)
  (0.0911287 -0.174407 0)
  (0.0847833 -0.143596 0)
  (0.0770812 -0.105007 0)
  (0.07003 -0.0649299 0)
  (0.065289 -0.0285557 0)
  (0.0643156 0.000718969 0)
  (0.0678428 0.0200946 0)
  (0.0768337 0.0258159 0)
  (0.0835527 0.0128489 0)
  (0.0830648 -0.0018565 0)
  (0.0767033 -0.0129366 0)
  (0.0671057 -0.0192736 0)
  (0.0566877 -0.0209752 0)
  (0.0468303 -0.0187137 0)
  (0.0386275 -0.01333 0)
  (0.033301 -0.00606938 0)
  (0.0308765 -0.00119084 0)
  (0.0297151 0.00131373 0)
  (0.0294143 0.00286206 0)
  (0.0297286 0.00458531 0)
  (0.0305079 0.00723416 0)
  (0.0315184 0.0113949 0)
  (0.0326018 0.0176038 0)
  (0.0334486 0.0262927 0)
  (0.0351368 0.0386825 0)
  (0.0360561 0.0542053 0)
  (0.0610531 0.0753554 0)
  (0.0452494 0.096425 0)
  (0.0878579 0.0662835 0)
  (0.111902 0.0432335 0)
  (-0.12704 -0.00645349 0)
  (0.768989 0.491188 0)
  (-0.292281 0.189694 0)
  (0.0316142 0.0727001 0)
  (0.0627958 0.0293395 0)
  (0.120981 -0.0557995 0)
  (0.155072 -0.128348 0)
  (0.16907 -0.173162 0)
  (0.166341 -0.190069 0)
  (0.151143 -0.183811 0)
  (0.128486 -0.160968 0)
  (0.103206 -0.127993 0)
  (0.0787747 -0.0898472 0)
  (0.0580586 -0.0520869 0)
  (0.0427823 -0.0195688 0)
  (0.0335509 0.0043436 0)
  (0.0328155 0.0175955 0)
  (0.0375509 0.0203383 0)
  (0.0412733 0.0126609 0)
  (0.0403228 0.00237007 0)
  (0.0358049 -0.0059424 0)
  (0.0282586 -0.0106706 0)
  (0.019648 -0.011929 0)
  (0.0113007 -0.0103775 0)
  (0.00433657 -0.00685496 0)
  (-0.000223012 -0.00256548 0)
  (-0.00221606 0.000248653 0)
  (-0.00227136 0.00140132 0)
  (-0.0010693 0.00190132 0)
  (0.00124803 0.00278503 0)
  (0.00462348 0.00478404 0)
  (0.00908458 0.00841395 0)
  (0.0146892 0.0140503 0)
  (0.0214385 0.0219283 0)
  (0.030214 0.0321071 0)
  (0.0394812 0.044027 0)
  (0.0629719 0.0606517 0)
  (0.0776092 0.0700238 0)
  (0.111303 0.0481738 0)
  (0.151775 0.0405567 0)
  (-0.0365672 0.0887478 0)
  (0.878785 0.485024 0)
  (-0.0384791 0.164796 0)
  (0.125869 -0.0175736 0)
  (0.230524 -0.0871898 0)
  (0.273264 -0.127045 0)
  (0.280576 -0.157063 0)
  (0.266057 -0.172184 0)
  (0.234685 -0.170219 0)
  (0.191895 -0.153297 0)
  (0.144052 -0.125924 0)
  (0.0975394 -0.0933203 0)
  (0.0560355 -0.0586666 0)
  (0.0235264 -0.0266565 0)
  (0.000936943 -0.00184233 0)
  (-0.00900306 0.0117167 0)
  (-0.0094172 0.0171498 0)
  (-0.00619418 0.0170676 0)
  (-0.00370819 0.0117548 0)
  (-0.0045107 0.00483 0)
  (-0.0080422 -0.000708595 0)
  (-0.0135963 -0.00375709 0)
  (-0.0201429 -0.0045418 0)
  (-0.0263574 -0.00369955 0)
  (-0.0313193 -0.00196307 0)
  (-0.03443 -0.000255757 0)
  (-0.0355185 0.000438628 0)
  (-0.0351231 0.000121902 0)
  (-0.0339055 -0.000683222 0)
  (-0.0316906 -0.00138998 0)
  (-0.0281206 -0.00140503 0)
  (-0.0226787 -0.000211719 0)
  (-0.0155961 0.00237783 0)
  (-0.00699492 0.00623108 0)
  (0.00524893 0.0111922 0)
  (0.0176242 0.0158145 0)
  (0.0371655 0.0223164 0)
  (0.055797 0.0178686 0)
  (0.0747877 -0.00626484 0)
  (0.133142 0.0395912 0)
  (-0.409783 0.19856 0)
  (1.0326 0.427433 0)
  (0.495691 0.280864 0)
  (0.507733 0.168091 0)
  (0.526121 0.0637285 0)
  (0.479106 -0.0178404 0)
  (0.408168 -0.073199 0)
  (0.332571 -0.100611 0)
  (0.255493 -0.104411 0)
  (0.179341 -0.0911629 0)
  (0.107721 -0.0678348 0)
  (0.0460464 -0.0407725 0)
  (-0.00613812 -0.0130197 0)
  (-0.0370003 0.00432194 0)
  (-0.0495836 0.0118159 0)
  (-0.0528688 0.0149166 0)
  (-0.051843 0.0157011 0)
  (-0.0492568 0.0144962 0)
  (-0.0475504 0.0111999 0)
  (-0.0481067 0.00715108 0)
  (-0.0507647 0.00374641 0)
  (-0.0546436 0.00163626 0)
  (-0.0589394 0.000703656 0)
  (-0.0630159 0.000531696 0)
  (-0.066308 0.000624721 0)
  (-0.068552 0.000482071 0)
  (-0.070166 -0.000213426 0)
  (-0.0717663 -0.0013009 0)
  (-0.0737973 -0.00234338 0)
  (-0.0768467 -0.00279731 0)
  (-0.0813404 -0.00200843 0)
  (-0.0875467 0.000669995 0)
  (-0.0954505 0.00571624 0)
  (-0.106091 0.0135323 0)
  (-0.121582 0.0246275 0)
  (-0.144853 0.0390826 0)
  (-0.177911 0.0557894 0)
  (-0.224008 0.0708736 0)
  (-0.277668 0.0809621 0)
  (-0.342873 0.0858633 0)
  (-0.592078 0.0859712 0)
  (-0.0745931 0.0427506 0)
  (0.103882 -0.0278938 0)
  (0.171225 -0.0785248 0)
  (0.143917 -0.0787649 0)
  (0.104185 -0.0629554 0)
  (0.0587144 -0.0430352 0)
  (0.00820834 -0.0198686 0)
  (-0.0418232 0.000939749 0)
  (-0.072586 0.011683 0)
  (-0.0887125 0.0161945 0)
  (-0.0941846 0.0167259 0)
  (-0.0950571 0.0163428 0)
  (-0.0935879 0.0160077 0)
  (-0.0910662 0.015669 0)
  (-0.0885059 0.0149932 0)
  (-0.0869672 0.0137433 0)
  (-0.0870273 0.0123476 0)
  (-0.0885228 0.0113951 0)
  (-0.090865 0.0112301 0)
  (-0.0934312 0.0118135 0)
  (-0.0957763 0.0128599 0)
  (-0.0976978 0.0140275 0)
  (-0.0992523 0.015013 0)
  (-0.100719 0.015601 0)
  (-0.102396 0.0157305 0)
  (-0.104458 0.0155003 0)
  (-0.106961 0.0152108 0)
  (-0.109852 0.0154252 0)
  (-0.113009 0.0169956 0)
  (-0.116237 0.0209898 0)
  (-0.119357 0.0285077 0)
  (-0.122303 0.0403066 0)
  (-0.125214 0.0560104 0)
  (-0.128015 0.072816 0)
  (-0.127822 0.0825312 0)
  (-0.107733 0.0664773 0)
  (-0.0485051 -0.0141902 0)
  (-0.25551 -0.193515 0)
  (0.0712525 0.188844 0)
  (0.0350629 0.0354605 0)
  (0.000419293 -0.0256757 0)
  (-0.0459606 -0.0255244 0)
  (-0.0859541 -0.014282 0)
  (-0.116484 -0.00592673 0)
  (-0.135396 -0.000405455 0)
  (-0.142258 0.00106764 0)
  (-0.143464 -0.000389916 0)
  (-0.141083 -0.00259991 0)
  (-0.136918 -0.00529877 0)
  (-0.132373 -0.00784074 0)
  (-0.127825 -0.00995217 0)
  (-0.123436 -0.0119184 0)
  (-0.119467 -0.014298 0)
  (-0.116322 -0.0175493 0)
  (-0.114262 -0.0216876 0)
  (-0.113238 -0.0264058 0)
  (-0.112963 -0.0312741 0)
  (-0.113088 -0.0359206 0)
  (-0.113345 -0.0401022 0)
  (-0.113595 -0.0436635 0)
  (-0.113826 -0.0464557 0)
  (-0.114083 -0.0482494 0)
  (-0.114388 -0.0486667 0)
  (-0.114671 -0.0472355 0)
  (-0.114726 -0.0435342 0)
  (-0.114181 -0.0372994 0)
  (-0.112434 -0.0284338 0)
  (-0.108589 -0.0168766 0)
  (-0.101505 -0.00243595 0)
  (-0.0900948 0.0150546 0)
  (-0.0737154 0.0346056 0)
  (-0.0525713 0.0517118 0)
  (-0.0305397 0.0603583 0)
  (0.0131297 0.0384239 0)
  (0.141835 -0.0257437 0)
  (-0.189954 -0.0980068 0)
  (-0.0750898 -0.332829 0)
  (-0.425395 -0.12278 0)
  (-0.304236 0.0767377 0)
  (-0.275837 0.0103559 0)
  (-0.239167 0.0165806 0)
  (-0.235274 0.0286201 0)
  (-0.233251 0.0375051 0)
  (-0.228053 0.0454036 0)
  (-0.219248 0.0527161 0)
  (-0.208064 0.058732 0)
  (-0.19658 0.0635453 0)
  (-0.185897 0.0677862 0)
  (-0.176503 0.0718031 0)
  (-0.168284 0.0759616 0)
  (-0.160773 0.0805352 0)
  (-0.153565 0.0857735 0)
  (-0.146507 0.091888 0)
  (-0.139699 0.0989511 0)
  (-0.133331 0.106808 0)
  (-0.127529 0.115068 0)
  (-0.122307 0.123208 0)
  (-0.1176 0.130742 0)
  (-0.113311 0.13733 0)
  (-0.109352 0.142757 0)
  (-0.10567 0.146832 0)
  (-0.102246 0.149286 0)
  (-0.0990605 0.149752 0)
  (-0.0960347 0.147877 0)
  (-0.0929704 0.143505 0)
  (-0.0894434 0.136853 0)
  (-0.0845944 0.128611 0)
  (-0.0768787 0.119939 0)
  (-0.0642341 0.112383 0)
  (-0.0453712 0.107719 0)
  (-0.0216096 0.107233 0)
  (0.0203947 0.107757 0)
  (0.0531619 0.106013 0)
  (0.0864422 0.0998228 0)
  (0.157205 0.0823481 0)
  (-0.272512 0.052311 0)
)
;

boundaryField
{
  floor
  {
    type noSlip;
  }
  ceiling
  {
    type noSlip;
  }
  sWall
  {
    type noSlip;
  }
  nWall
  {
    type noSlip;
  }
  sideWalls
  {
    type empty;
  }
  glass1
  {
    type noSlip;
  }
  glass2
  {
    type noSlip;
  }
  sun
  {
    type noSlip;
  }
  heatsource1
  {
    type noSlip;
  }
  heatsource2
  {
    type noSlip;
  }
  Table_master
  {
    type noSlip;
  }
  Table_slave
  {
    type noSlip;
  }
  inlet
  {
    type fixedValue;
    value uniform (0.3 0 0);
  }
  outlet
  {
    type zeroGradient;
  }
} 	// ************************************************************************* //

