/*--------------------------------*- C++ -*----------------------------------*\
  =========                 |
  \\      /  F ield         | OpenFOAM: The Open Source CFD Toolbox
   \\    /   O peration     | Website:  https://openfoam.org
    \\  /    A nd           | Version:  6
     \\/     M anipulation  |
\*---------------------------------------------------------------------------*/
FoamFile
{
    version     2.0;
    format      ascii;
    class       volScalarField;
    location    "400";
    object      epsilon;
}
// * * * * * * * * * * * * * * * * * * * * * * * * * * * * * * * * * * * * * //

dimensions      [0 2 -3 0 0 0 0];

internalField   nonuniform List<scalar> 
459
(
0.000224323
0.000268004
0.000266257
0.000295354
0.000322096
0.000346403
0.000368991
0.000390878
0.000413602
0.000429666
0.000435046
0.000425341
0.000398637
0.000359419
0.000317952
1.58616e-05
2.41146e-05
2.22653e-05
1.48279e-05
9.97534e-06
7.38607e-06
5.86613e-06
4.799e-06
4.12851e-06
3.99843e-06
4.22428e-06
4.69255e-06
5.317e-06
5.87774e-06
6.34076e-06
7.02469e-06
1.12549e-05
4.47328e-05
2.65448e-05
0.000670227
0.00121001
0.000247761
0.00022359
0.000220407
0.000221881
0.000228328
0.000241746
0.00026371
0.000287397
0.000306143
0.0003118
0.000298411
0.000269464
0.000253906
0.000314237
0.000125097
5.16749e-05
4.83283e-05
3.37627e-05
2.36912e-05
1.76563e-05
1.42739e-05
1.27875e-05
1.16327e-05
1.11961e-05
1.13932e-05
1.19766e-05
1.26773e-05
1.33316e-05
1.39216e-05
1.46412e-05
1.4782e-05
1.91679e-05
0.000120632
5.44662e-05
0.00135697
0.00346104
0.000340213
0.000215863
0.000207166
0.000212751
0.000226275
0.000248389
0.000278458
0.000310543
0.000334429
0.000340916
0.000326809
0.000297614
0.000270709
0.000263542
0.000350909
0.000153335
7.98255e-05
4.35468e-05
2.76066e-05
2.03378e-05
1.80449e-05
3.46214e-05
2.64063e-05
2.15806e-05
1.85203e-05
1.64703e-05
1.50592e-05
1.40647e-05
1.33574e-05
1.31022e-05
1.33576e-05
2.03086e-05
0.000206181
9.61414e-05
0.00240074
0.0077149
0.000610482
0.000221969
0.000202198
0.00021292
0.000233052
0.000263767
0.000306056
0.000350433
0.000377862
0.000378229
0.00035395
0.000316201
0.000280209
0.000250005
0.000256895
0.000283482
0.000168888
6.77242e-05
3.54702e-05
2.40268e-05
1.96299e-05
1.98147e-05
5.09554e-05
4.834e-05
5.28363e-05
6.10435e-05
7.02992e-05
7.74581e-05
7.89128e-05
7.33648e-05
6.63666e-05
4.64605e-05
4.48477e-05
0.000373102
0.000115581
0.00391895
0.0142905
0.00131768
0.00025515
0.000196164
0.000208286
0.000236677
0.000284363
0.000356582
0.000426963
0.00045999
0.000448938
0.000404597
0.000346527
0.000295533
0.000243208
0.000181682
0.000144776
7.89564e-05
4.52924e-05
2.86027e-05
2.20062e-05
2.01626e-05
2.13149e-05
2.6706e-05
3.30892e-05
4.15148e-05
5.14878e-05
6.15826e-05
6.92525e-05
7.13009e-05
6.59465e-05
6.00723e-05
5.31555e-05
5.14611e-05
0.00017019
0.000213807
0.000158668
0.000175157
0.000271031
0.00607425
0.0215242
0.00319202
0.000440535
0.000224764
0.000212432
0.00023813
0.000306978
0.000451509
0.000556947
0.00058783
0.000555196
0.000480045
0.000391748
0.000322798
0.000259887
0.000180387
0.000103521
5.75469e-05
3.54883e-05
2.58708e-05
2.29978e-05
2.36381e-05
2.73986e-05
3.47288e-05
4.53619e-05
5.90457e-05
7.52165e-05
9.25922e-05
0.000108222
0.000117163
0.000113242
9.49599e-05
7.77603e-05
6.80795e-05
0.000103464
0.00013761
0.000133863
0.0003365
0.000342638
0.0089682
0.0257277
0.00768125
0.00169596
0.000687933
0.000425177
0.000371879
0.000455155
0.000686307
0.000779487
0.00077129
0.000694566
0.000574097
0.000447306
0.000354981
0.000283795
0.000193589
0.000101492
5.0337e-05
3.23227e-05
2.77109e-05
2.73984e-05
3.03567e-05
3.73022e-05
4.80369e-05
6.27256e-05
8.17615e-05
0.000105216
0.00013282
0.000162526
0.000189719
0.000206093
0.000190097
0.000162418
0.000149502
0.000174543
0.000234379
0.000318429
0.000591476
0.000609762
0.00988045
0.0317654
0.0158635
0.00857508
0.00446998
0.00242375
0.00157127
0.00135656
0.00127779
0.00117487
0.00103702
0.000868012
0.000673541
0.000492894
0.000376662
0.000303822
0.000204857
9.72126e-05
4.7239e-05
3.59291e-05
3.47878e-05
3.60436e-05
4.15172e-05
5.15869e-05
6.50517e-05
8.25417e-05
0.000105815
0.000136433
0.000175503
0.000223749
0.000281369
0.000347636
0.000420636
0.000460934
0.000566271
0.00088601
0.00154368
0.00228152
0.00538466
0.00159229
0.00937928
0.0168764
0.0137037
0.0101668
0.00724042
0.00503922
0.00361433
0.00273153
0.00211362
0.00166935
0.00132689
0.00102669
0.000734629
0.000495413
0.000367757
0.000311933
0.000202804
8.58826e-05
5.11243e-05
4.71285e-05
4.91874e-05
5.16147e-05
5.91463e-05
7.01541e-05
8.31278e-05
0.000100432
0.000125189
0.000159476
0.000205384
0.000266105
0.000346141
0.000450969
0.000586449
0.000761045
0.000985168
0.00128359
0.00158611
0.00181871
0.00203475
0.00125407
0.00602807
0.00756186
0.0061512
0.00474237
0.0036524
0.00284449
0.00222943
0.00174529
0.0013543
0.00100191
0.000661964
0.000408806
0.000306327
0.000307733
0.000176009
9.17266e-05
6.9829e-05
7.25448e-05
7.7736e-05
8.41507e-05
9.57789e-05
0.000102928
0.00010847
0.000119555
0.000139187
0.000167637
0.000205728
0.000255596
0.000320665
0.000406381
0.000520817
0.000669232
0.000842368
0.00102046
0.00114076
0.001141
0.00100857
0.000635916
0.0043312
0.00702842
0.00570177
0.00428326
0.0032511
0.0024517
0.00183271
0.00136209
0.00100176
0.000716244
0.000456969
0.000250567
0.000158093
0.000143695
0.000135555
0.000122302
0.00012492
0.000133764
0.000127204
0.000144669
0.000153219
0.000153079
0.000145657
0.000140445
0.000143724
0.000156563
0.000180388
0.000217873
0.000272973
0.000351548
0.000461204
0.00060328
0.000769641
0.000947547
0.0010625
0.00113389
0.000856664
0.000664683
0.00292577
0.00338782
0.00382197
0.00455682
0.00376407
0.00281904
0.00218098
0.00166161
0.00123484
0.000929877
0.000707392
0.000522275
0.000322643
0.000122537
0.000130091
0.000154242
0.000148341
0.000131743
0.000110638
8.62121e-05
9.0914e-05
0.000104799
0.000115371
0.00011211
0.000111432
0.000116291
0.000127057
0.000143737
0.000167197
0.000199357
0.000244025
0.000307591
0.000390864
0.000497107
0.000625051
0.000814836
0.000853786
0.000775096
0.000618389
0.000477694
)
;

boundaryField
{
    floor
    {
        Cmu             0.09;
        kappa           0.41;
        E               9.8;
        type            epsilonWallFunction;
        value           nonuniform List<scalar> 
29
(
0.000317952
1.58616e-05
2.41146e-05
2.22653e-05
1.48279e-05
9.97534e-06
7.38607e-06
5.86613e-06
4.799e-06
4.12851e-06
3.99843e-06
4.22428e-06
4.69255e-06
5.317e-06
5.87774e-06
6.34076e-06
7.02469e-06
1.12549e-05
4.47328e-05
2.65448e-05
2.65448e-05
5.44662e-05
9.61414e-05
0.000115581
0.000317952
1.58616e-05
5.16749e-05
0.000153335
0.000283482
)
;
    }
    ceiling
    {
        Cmu             0.09;
        kappa           0.41;
        E               9.8;
        type            epsilonWallFunction;
        value           nonuniform List<scalar> 
43
(
0.00292577
0.00338782
0.00382197
0.00455682
0.00376407
0.00281904
0.00218098
0.00166161
0.00123484
0.000929877
0.000707392
0.000522275
0.000322643
0.000122537
0.000130091
0.000154242
0.000148341
0.000131743
0.000110638
8.62121e-05
9.0914e-05
0.000104799
0.000115371
0.00011211
0.000111432
0.000116291
0.000127057
0.000143737
0.000167197
0.000199357
0.000244025
0.000307591
0.000390864
0.000497107
0.000625051
0.000814836
0.000853786
0.000775096
0.000618389
0.000477694
0.00937928
0.0168764
0.0043312
)
;
    }
    sWall
    {
        Cmu             0.09;
        kappa           0.41;
        E               9.8;
        type            epsilonWallFunction;
        value           uniform 0.00292577;
    }
    nWall
    {
        Cmu             0.09;
        kappa           0.41;
        E               9.8;
        type            epsilonWallFunction;
        value           nonuniform List<scalar> 6(0.000271031 0.000342638 0.000609762 0.000635916 0.000664683 0.000477694);
    }
    sideWalls
    {
        type            empty;
    }
    glass1
    {
        Cmu             0.09;
        kappa           0.41;
        E               9.8;
        type            epsilonWallFunction;
        value           nonuniform List<scalar> 9(0.000224323 0.000670227 0.00135697 0.00240074 0.00391895 0.00607425 0.0089682 0.00988045 0.00937928);
    }
    glass2
    {
        Cmu             0.09;
        kappa           0.41;
        E               9.8;
        type            epsilonWallFunction;
        value           nonuniform List<scalar> 2(0.00159229 0.00125407);
    }
    sun
    {
        Cmu             0.09;
        kappa           0.41;
        E               9.8;
        type            epsilonWallFunction;
        value           nonuniform List<scalar> 
14
(
0.000224323
0.000268004
0.000266257
0.000295354
0.000322096
0.000346403
0.000368991
0.000390878
0.000413602
0.000429666
0.000435046
0.000425341
0.000398637
0.000359419
)
;
    }
    heatsource1
    {
        Cmu             0.09;
        kappa           0.41;
        E               9.8;
        type            epsilonWallFunction;
        value           nonuniform List<scalar> 3(0.000158668 0.000175157 0.000271031);
    }
    heatsource2
    {
        Cmu             0.09;
        kappa           0.41;
        E               9.8;
        type            epsilonWallFunction;
        value           nonuniform List<scalar> 4(0.000314237 0.000125097 0.000125097 0.000350909);
    }
    Table_master
    {
        Cmu             0.09;
        kappa           0.41;
        E               9.8;
        type            epsilonWallFunction;
        value           nonuniform List<scalar> 9(3.46214e-05 2.64063e-05 2.15806e-05 1.85203e-05 1.64703e-05 1.50592e-05 1.40647e-05 1.33574e-05 1.31022e-05);
    }
    Table_slave
    {
        Cmu             0.09;
        kappa           0.41;
        E               9.8;
        type            epsilonWallFunction;
        value           nonuniform List<scalar> 9(5.09554e-05 4.834e-05 5.28363e-05 6.10435e-05 7.02992e-05 7.74581e-05 7.89128e-05 7.33648e-05 6.63666e-05);
    }
    inlet
    {
        type            turbulentMixingLengthDissipationRateInlet;
        mixingLength    0.01;
        phi             phi;
        k               k;
        value           uniform 0.000101881;
    }
    outlet
    {
        type            zeroGradient;
    }
}


// ************************************************************************* //
