/*--------------------------------*- C++ -*----------------------------------*\
  =========                 |
  \\      /  F ield         | OpenFOAM: The Open Source CFD Toolbox
   \\    /   O peration     | Website:  https://openfoam.org
    \\  /    A nd           | Version:  6
     \\/     M anipulation  |
\*---------------------------------------------------------------------------*/
FoamFile
{
    version     2.0;
    format      ascii;
    class       volScalarField;
    location    "1600";
    object      nut;
}
// * * * * * * * * * * * * * * * * * * * * * * * * * * * * * * * * * * * * * //

dimensions      [0 2 -1 0 0 0 0];

internalField   nonuniform List<scalar> 
459
(
0.00106511
0.00116127
0.0011833
0.0012398
0.00129218
0.00134161
0.00139077
0.00143764
0.00147053
0.00148313
0.00146944
0.00142523
0.00134843
0.00124119
0.00111528
0.000464469
0.000554499
0.000626764
0.000633183
0.000615406
0.000589551
0.000553377
0.000516442
0.000482826
0.000453049
0.000426754
0.000403461
0.000382768
0.000364268
0.000347288
0.000330986
0.000314204
0.000303734
0.000278038
0.00145049
0.00343916
0.00325616
0.00377753
0.00428836
0.00480044
0.00524492
0.00559133
0.00591292
0.00618008
0.00635632
0.00640418
0.00627847
0.00587213
0.00473508
0.0011356
0.000707036
0.000484184
0.00102127
0.00143291
0.00174533
0.0019308
0.00194107
0.00153272
0.00131643
0.00116329
0.00104653
0.000954277
0.000879504
0.000816125
0.000757044
0.000699675
0.000648632
0.00060365
0.000716645
0.000369575
0.00177131
0.00466543
0.00397197
0.00494821
0.00539634
0.00572202
0.00597642
0.00620095
0.00646139
0.00674355
0.00701435
0.00722365
0.00732573
0.00724375
0.00675648
0.0051828
0.00117116
0.000909368
0.00132725
0.00173323
0.00212835
0.00242301
0.00239497
0.000786791
0.000695848
0.000621984
0.000562033
0.000513037
0.000472628
0.000439055
0.000411191
0.000388553
0.000419659
0.000484364
0.000810211
0.000431635
0.00207985
0.00596916
0.00392146
0.00516803
0.00550622
0.00558737
0.0056557
0.00578311
0.00600162
0.00629538
0.00663293
0.00694314
0.00717655
0.00726667
0.00716461
0.0066043
0.00442207
0.00137023
0.00164307
0.00209941
0.0026019
0.00305176
0.00336368
0.00320608
0.000890809
0.000815101
0.000761207
0.000720233
0.000685202
0.000652376
0.000620721
0.000587282
0.000548284
0.00051438
0.000519679
0.000941699
0.000480807
0.00239465
0.00767116
0.0042396
0.00492857
0.00539412
0.0053459
0.00530054
0.00539701
0.00560155
0.00590179
0.00627447
0.00661533
0.00685388
0.006946
0.00689304
0.00667054
0.00610543
0.00517543
0.00486116
0.00481465
0.00486753
0.00492935
0.00494089
0.00478878
0.00407234
0.00372506
0.00352381
0.00336735
0.00320097
0.00296267
0.00263263
0.00222719
0.00177484
0.0013248
0.000977959
0.00096439
0.000654608
0.000593921
0.000716109
0.000804289
0.00272912
0.00953922
0.00583251
0.00476629
0.00521656
0.00536394
0.00522094
0.00531073
0.00547999
0.00575802
0.00612076
0.00647577
0.00671241
0.0067647
0.00664828
0.00644888
0.00626189
0.00614598
0.00616199
0.00619698
0.00617768
0.00609372
0.0059477
0.00572762
0.00539379
0.00509334
0.00482713
0.0045726
0.00431535
0.00404096
0.00369343
0.00325613
0.00272816
0.00214191
0.0016153
0.00118883
0.000909866
0.00077636
0.00110377
0.000841181
0.0030431
0.0108888
0.00836308
0.00605415
0.00565734
0.00568815
0.00554515
0.00546413
0.00554565
0.00581046
0.00619312
0.00656583
0.00679093
0.00679305
0.00660807
0.00639101
0.00634514
0.00653095
0.00675827
0.00683687
0.00673843
0.00651112
0.00619862
0.00583279
0.00544672
0.00509432
0.00477913
0.00449105
0.00422772
0.00399385
0.0037885
0.00350852
0.00310499
0.00260523
0.00211691
0.00166516
0.00134532
0.00125256
0.00128207
0.000964905
0.00311102
0.00987974
0.00857361
0.00760015
0.00700788
0.0063433
0.00578802
0.00555586
0.00566154
0.00601996
0.00648256
0.00687453
0.0070443
0.00694234
0.00666469
0.00645596
0.00655115
0.00685518
0.00698537
0.00684947
0.00652117
0.00607504
0.00557764
0.00509317
0.00467166
0.00432872
0.00404901
0.00381957
0.00363892
0.00351216
0.00344593
0.00341786
0.00322572
0.00291114
0.00262942
0.00248932
0.00260321
0.00301215
0.00367797
0.00149669
0.00303614
0.00362526
0.00409452
0.00424165
0.00425348
0.00435402
0.00464139
0.00514276
0.00581316
0.00652028
0.00709722
0.00739882
0.00733085
0.00696163
0.00657055
0.00650514
0.00657805
0.00658227
0.00638026
0.0059738
0.00543888
0.00486267
0.00432806
0.00388809
0.00355215
0.00329853
0.00309996
0.0029379
0.00280053
0.00267797
0.00256139
0.00244968
0.00236001
0.00229342
0.00226803
0.00227617
0.00225771
0.00215953
0.00201326
0.0013999
0.001826
0.00325744
0.0045152
0.00556479
0.00641942
0.00718807
0.00778632
0.00808759
0.00804958
0.00768901
0.00706246
0.00636496
0.00594572
0.00579573
0.00562691
0.00531072
0.00485366
0.0043239
0.0037928
0.00332635
0.0029653
0.00270559
0.00252331
0.00239404
0.00230091
0.00223415
0.00218844
0.00216138
0.00215527
0.0021716
0.00219696
0.00222801
0.00225671
0.00225791
0.00219171
0.0020465
0.00183583
0.0011488
0.00212417
0.00457163
0.00625967
0.00705631
0.00759514
0.00797013
0.00793423
0.00743129
0.00666569
0.00584884
0.00516668
0.00467616
0.00434872
0.0040524
0.00369399
0.00329021
0.00289171
0.0025467
0.0022813
0.00209481
0.00196704
0.00188216
0.00183331
0.00181321
0.00181619
0.00183846
0.00187664
0.00192628
0.00199315
0.00207427
0.00216696
0.00226456
0.00235137
0.00240913
0.00238986
0.00240385
0.00237493
0.00116816
0.00197017
0.00196466
0.00200091
0.00207359
0.00187883
0.00172543
0.00165302
0.00157885
0.00147093
0.00133724
0.00118531
0.00103499
0.000902431
0.000797646
0.000722024
0.000668744
0.000630451
0.000602973
0.000584679
0.000574846
0.000572585
0.000576769
0.000586391
0.000600951
0.000619464
0.000641648
0.000667605
0.000697637
0.000732339
0.000772828
0.000818411
0.000869285
0.000926067
0.000989326
0.00105885
0.00114271
0.00116883
0.00113881
0.00106672
0.000989848
)
;

boundaryField
{
    floor
    {
        type            nutkWallFunction;
        Cmu             0.09;
        kappa           0.41;
        E               9.8;
        value           nonuniform List<scalar> 
29
(
0.000134202
5.51481e-05
6.66312e-05
7.56816e-05
7.64792e-05
7.42679e-05
7.10379e-05
6.64895e-05
6.18076e-05
5.75103e-05
5.36727e-05
5.02573e-05
4.72096e-05
4.44833e-05
4.203e-05
3.9764e-05
3.75749e-05
3.53066e-05
3.38835e-05
3.03625e-05
3.03625e-05
4.27347e-05
5.08925e-05
5.72503e-05
0.000134202
5.51481e-05
5.76844e-05
0.000110002
0.000163477
)
;
    }
    ceiling
    {
        type            nutkWallFunction;
        Cmu             0.09;
        kappa           0.41;
        E               9.8;
        value           nonuniform List<scalar> 
43
(
0.000230098
0.000229415
0.000233359
0.000241345
0.000220145
0.000203262
0.000195237
0.000186972
0.000174865
0.000159727
0.000142312
0.000124833
0.000109176
9.66108e-05
8.74225e-05
8.08803e-05
7.61398e-05
7.2717e-05
7.04276e-05
6.91935e-05
6.89093e-05
6.9435e-05
7.06421e-05
7.24642e-05
7.47733e-05
7.75293e-05
8.07396e-05
8.44352e-05
8.86821e-05
9.36071e-05
9.91156e-05
0.000105221
0.000111987
0.000119468
0.000127627
0.000137389
0.000140412
0.000136937
0.000128548
0.00011953
0.000343892
0.000404787
0.000246623
)
;
    }
    sWall
    {
        type            nutkWallFunction;
        Cmu             0.09;
        kappa           0.41;
        E               9.8;
        value           uniform 0.000230158;
    }
    nWall
    {
        type            nutkWallFunction;
        Cmu             0.09;
        kappa           0.41;
        E               9.8;
        value           nonuniform List<scalar> 6(9.74136e-05 0.000101855 0.000116591 0.000138104 0.000140345 0.000119536);
    }
    sideWalls
    {
        type            empty;
    }
    glass1
    {
        type            nutkWallFunction;
        Cmu             0.09;
        kappa           0.41;
        E               9.8;
        value           nonuniform List<scalar> 9(0.000128458 0.00017278 0.000208657 0.000242491 0.00027646 0.000312037 0.000345021 0.000352118 0.000344319);
    }
    glass2
    {
        type            nutkWallFunction;
        Cmu             0.09;
        kappa           0.41;
        E               9.8;
        value           nonuniform List<scalar> 2(0.000177845 0.000166914);
    }
    sun
    {
        type            nutkWallFunction;
        Cmu             0.09;
        kappa           0.41;
        E               9.8;
        value           nonuniform List<scalar> 
14
(
0.000128361
0.000139535
0.00014208
0.000148585
0.000154586
0.000160224
0.000165808
0.000171112
0.000174821
0.000176241
0.000174699
0.000169708
0.000160999
0.000148743
)
;
    }
    heatsource1
    {
        type            nutkWallFunction;
        Cmu             0.09;
        kappa           0.41;
        E               9.8;
        value           nonuniform List<scalar> 3(7.15867e-05 8.66994e-05 9.74128e-05);
    }
    heatsource2
    {
        type            nutkWallFunction;
        Cmu             0.09;
        kappa           0.41;
        E               9.8;
        value           nonuniform List<scalar> 4(0.000136557 8.55894e-05 8.55894e-05 0.000140673);
    }
    Table_master
    {
        type            nutkWallFunction;
        Cmu             0.09;
        kappa           0.41;
        E               9.8;
        value           nonuniform List<scalar> 9(9.52983e-05 8.4217e-05 7.50894e-05 6.75848e-05 6.13788e-05 5.62055e-05 5.18653e-05 4.82315e-05 4.52563e-05);
    }
    Table_slave
    {
        type            nutkWallFunction;
        Cmu             0.09;
        kappa           0.41;
        E               9.8;
        value           nonuniform List<scalar> 9(0.00010779 9.87164e-05 9.2197e-05 8.72041e-05 8.29086e-05 7.88596e-05 7.49317e-05 7.0756e-05 6.58494e-05);
    }
    inlet
    {
        type            calculated;
        value           uniform 0.000100623;
    }
    outlet
    {
        type            calculated;
        value           nonuniform List<scalar> 2(0.00197017 0.00196466);
    }
}


// ************************************************************************* //
