/*--------------------------------*- C++ -*----------------------------------*\
  =========                 |
  \\      /  F ield         | OpenFOAM: The Open Source CFD Toolbox
   \\    /   O peration     | Website:  https://openfoam.org
    \\  /    A nd           | Version:  6
     \\/     M anipulation  |
\*---------------------------------------------------------------------------*/
FoamFile
{
    version     2.0;
    format      ascii;
    class       volScalarField;
    location    "600";
    object      nut;
}
// * * * * * * * * * * * * * * * * * * * * * * * * * * * * * * * * * * * * * //

dimensions      [0 2 -1 0 0 0 0];

internalField   nonuniform List<scalar> 
459
(
0.00138644
0.00154949
0.00161886
0.00172257
0.00183795
0.00193936
0.00200648
0.00202997
0.00192953
0.00181875
0.00169762
0.00156662
0.00144075
0.00131495
0.00117293
0.00054653
0.000636607
0.000727848
0.00081586
0.00087236
0.000874416
0.000812758
0.000744737
0.000685695
0.000635721
0.000593024
0.000556303
0.000523572
0.000492539
0.000460001
0.000421487
0.000369519
0.000308221
0.00028377
0.00177106
0.0048891
0.00499877
0.00576625
0.00636273
0.00682113
0.00717138
0.00747607
0.00760182
0.00732056
0.00683995
0.00621805
0.00523861
0.00400414
0.00263552
0.00127533
0.00109091
0.000525863
0.00104284
0.0018807
0.00261197
0.00317837
0.0032612
0.00212119
0.00167217
0.00137234
0.00115909
0.00101159
0.000920786
0.000858675
0.00076684
0.000646931
0.000537734
0.000455479
0.000482469
0.000332842
0.00209053
0.00679445
0.00633759
0.00688037
0.00711423
0.00723761
0.00741936
0.00784817
0.00826496
0.00834103
0.00813184
0.00772743
0.00704128
0.00594215
0.00448077
0.00281705
0.0011843
0.000532359
0.00102187
0.00179243
0.00281189
0.00373483
0.00386955
0.00108311
0.000929097
0.000790157
0.000663981
0.000546486
0.000444786
0.000382364
0.000360027
0.000351193
0.000392711
0.000408054
0.000511856
0.000351647
0.0023957
0.00845373
0.00702276
0.00734475
0.00717927
0.00691754
0.00694826
0.00746519
0.00801857
0.00830099
0.00827078
0.00803714
0.0076195
0.00687905
0.00573262
0.00418908
0.0022431
0.00122746
0.00113502
0.00151367
0.00246687
0.00375639
0.00489077
0.00499425
0.00127157
0.00116874
0.00108781
0.00102284
0.000965759
0.000911113
0.000855453
0.000795951
0.000727762
0.000570386
0.000452974
0.000514041
0.000380404
0.00270277
0.0103826
0.00824903
0.00814594
0.00743366
0.00673683
0.00670987
0.00725123
0.00789159
0.00826039
0.00828293
0.00809458
0.0077982
0.0073354
0.00657443
0.0054663
0.00406999
0.00338676
0.00349779
0.00421861
0.00531452
0.00642821
0.00725143
0.00750462
0.00655122
0.00593471
0.00552104
0.00507796
0.00458052
0.0040431
0.00346627
0.00283929
0.00215258
0.00143478
0.000939308
0.000727956
0.000542623
0.000442951
0.000480602
0.000581502
0.0030146
0.0124019
0.0105869
0.00931875
0.00765057
0.0066857
0.00665912
0.00727492
0.00799768
0.00841235
0.00843894
0.00827597
0.00811707
0.00791425
0.00752222
0.00692447
0.00624954
0.00615506
0.00680971
0.00775215
0.00863263
0.00926368
0.00955987
0.00948807
0.00903435
0.00848968
0.00786755
0.00717904
0.00644133
0.00566853
0.0048653
0.00402773
0.00315611
0.00229647
0.0016569
0.00128278
0.00107172
0.00108816
0.00120299
0.000731518
0.00323971
0.0133958
0.0125097
0.00963289
0.00744512
0.00650148
0.00667062
0.00747658
0.00831335
0.00876084
0.00881638
0.00884028
0.0090464
0.0090749
0.00893138
0.00874262
0.00868389
0.00911451
0.00989549
0.0105899
0.0110092
0.0111341
0.0109752
0.0105793
0.0100136
0.00934255
0.00859939
0.00781112
0.00698944
0.00614782
0.00529849
0.00445385
0.00363339
0.00286214
0.00233735
0.00207007
0.00199041
0.00205174
0.00213492
0.000941638
0.00326067
0.0105827
0.00965399
0.00750899
0.00616739
0.00600189
0.0067493
0.00789306
0.00883061
0.00927776
0.00952973
0.0100224
0.0102824
0.0103321
0.0103432
0.0104315
0.0106849
0.0111839
0.0117083
0.012017
0.0120063
0.0117246
0.0112161
0.010553
0.0098081
0.00903871
0.00824936
0.00743318
0.00658792
0.00571432
0.00481444
0.00390735
0.00306919
0.00244305
0.00210792
0.0019915
0.00195725
0.0019145
0.00182931
0.000981285
0.00315409
0.00364265
0.00383101
0.00382923
0.00437678
0.0056751
0.00731312
0.00872384
0.00945902
0.0100312
0.0104231
0.0107573
0.0108355
0.0108696
0.010985
0.0111967
0.0114797
0.0117618
0.0119019
0.0117959
0.0114248
0.0108373
0.0101068
0.00930908
0.00850575
0.00772202
0.00694702
0.00616357
0.00536321
0.00454752
0.00373613
0.00299105
0.00241411
0.00205911
0.00187429
0.00176897
0.00167067
0.00155711
0.00142238
0.00113423
0.00101883
0.0027269
0.00623867
0.00860003
0.00980659
0.0102469
0.010015
0.0100887
0.0101717
0.0101337
0.0101083
0.0101799
0.0103285
0.0104951
0.010607
0.0105821
0.0103607
0.00993247
0.00933777
0.00864735
0.00793248
0.00724406
0.00660421
0.00600793
0.00544037
0.00489332
0.00436821
0.0038725
0.00341627
0.00300981
0.00266234
0.00238454
0.00218578
0.00205495
0.0019583
0.00188621
0.00174022
0.00120687
0.0019008
0.00775478
0.00977346
0.00995531
0.00942969
0.00879327
0.00828946
0.00794567
0.00770929
0.0075946
0.00759356
0.00766498
0.00776232
0.00783901
0.00784845
0.00775151
0.00753537
0.0072197
0.00684588
0.00645869
0.00609082
0.00575717
0.00545865
0.00518886
0.00493977
0.00470351
0.00447125
0.00423244
0.00397682
0.00369895
0.00340303
0.00310394
0.00282101
0.00256574
0.00233214
0.00235862
0.00267266
0.0013537
0.0018625
0.00198239
0.00206846
0.00228634
0.00208372
0.00191263
0.00176793
0.00164171
0.00155419
0.00150609
0.00148385
0.00147765
0.0014803
0.00148644
0.00149178
0.00149276
0.00148677
0.00147268
0.00145157
0.00142608
0.00139938
0.001374
0.00135129
0.00133141
0.00131366
0.00129691
0.00127992
0.00126157
0.00124095
0.00121757
0.00119158
0.00116395
0.0011364
0.00111087
0.00108849
0.00106779
0.00104529
0.00104746
0.00108592
0.00113642
)
;

boundaryField
{
    floor
    {
        type            nutkWallFunction;
        Cmu             0.09;
        kappa           0.41;
        E               9.8;
        value           nonuniform List<scalar> 
29
(
0.000140892
6.56139e-05
7.68933e-05
8.81203e-05
9.87972e-05
0.000105579
0.000105826
9.84185e-05
9.01717e-05
8.29418e-05
7.67641e-05
7.14396e-05
6.68227e-05
6.26748e-05
5.87108e-05
5.45182e-05
4.95036e-05
4.26418e-05
3.44127e-05
3.11341e-05
3.1134e-05
3.78217e-05
4.03399e-05
4.41665e-05
0.000140893
6.56139e-05
6.2995e-05
6.38174e-05
0.000147172
)
;
    }
    ceiling
    {
        type            nutkWallFunction;
        Cmu             0.09;
        kappa           0.41;
        E               9.8;
        value           nonuniform List<scalar> 
43
(
0.000218434
0.000231474
0.00024082
0.00026446
0.000242625
0.000223982
0.000208069
0.00019407
0.000184296
0.0001789
0.000176399
0.000175702
0.000176003
0.000176696
0.000177299
0.000177413
0.00017674
0.000175154
0.000172774
0.000169895
0.00016687
0.00016399
0.000161408
0.000159142
0.000157117
0.000155202
0.000153258
0.000151156
0.00014879
0.000146102
0.000143105
0.000139911
0.000136716
0.000133748
0.000131138
0.000128717
0.000126082
0.000126341
0.00013085
0.000136719
0.000356147
0.000406529
0.000222298
)
;
    }
    sWall
    {
        type            nutkWallFunction;
        Cmu             0.09;
        kappa           0.41;
        E               9.8;
        value           uniform 0.000218487;
    }
    nWall
    {
        type            nutkWallFunction;
        Cmu             0.09;
        kappa           0.41;
        E               9.8;
        value           nonuniform List<scalar> 6(6.99579e-05 8.86207e-05 0.000113902 0.000144876 0.000161719 0.000136727);
    }
    sideWalls
    {
        type            empty;
    }
    glass1
    {
        type            nutkWallFunction;
        Cmu             0.09;
        kappa           0.41;
        E               9.8;
        value           nonuniform List<scalar> 9(0.000165522 0.000208628 0.000243646 0.000276561 0.000309236 0.000342022 0.000365471 0.000367656 0.000356602);
    }
    glass2
    {
        type            nutkWallFunction;
        Cmu             0.09;
        kappa           0.41;
        E               9.8;
        value           nonuniform List<scalar> 2(0.000118585 0.000136495);
    }
    sun
    {
        type            nutkWallFunction;
        Cmu             0.09;
        kappa           0.41;
        E               9.8;
        value           nonuniform List<scalar> 
14
(
0.000165326
0.000183695
0.000191448
0.000202971
0.000215703
0.00022682
0.000234143
0.000236696
0.000225744
0.000213591
0.000200207
0.000185617
0.000171472
0.000157195
)
;
    }
    heatsource1
    {
        type            nutkWallFunction;
        Cmu             0.09;
        kappa           0.41;
        E               9.8;
        value           nonuniform List<scalar> 3(5.2372e-05 5.72285e-05 6.99635e-05);
    }
    heatsource2
    {
        type            nutkWallFunction;
        Cmu             0.09;
        kappa           0.41;
        E               9.8;
        value           nonuniform List<scalar> 4(0.000152664 0.000131373 0.000131373 0.0001422);
    }
    Table_master
    {
        type            nutkWallFunction;
        Cmu             0.09;
        kappa           0.41;
        E               9.8;
        value           nonuniform List<scalar> 9(0.000130443 0.000112323 9.56718e-05 8.02445e-05 6.5556e-05 5.25357e-05 4.43849e-05 4.14298e-05 4.02481e-05);
    }
    Table_slave
    {
        type            nutkWallFunction;
        Cmu             0.09;
        kappa           0.41;
        E               9.8;
        value           nonuniform List<scalar> 9(0.000152228 0.000140404 0.000131014 0.000123417 0.000116697 0.00011022 0.000103575 9.64154e-05 8.81311e-05);
    }
    inlet
    {
        type            calculated;
        value           uniform 0.000100623;
    }
    outlet
    {
        type            calculated;
        value           nonuniform List<scalar> 2(0.0018625 0.00198239);
    }
}


// ************************************************************************* //
