/*--------------------------------*- C++ -*----------------------------------*\
  =========                 |
  \\      /  F ield         | OpenFOAM: The Open Source CFD Toolbox
   \\    /   O peration     | Website:  https://openfoam.org
    \\  /    A nd           | Version:  6
     \\/     M anipulation  |
\*---------------------------------------------------------------------------*/
FoamFile
{
    version     2.0;
    format      ascii;
    class       surfaceScalarField;
    location    "600";
    object      phi;
}
// * * * * * * * * * * * * * * * * * * * * * * * * * * * * * * * * * * * * * //

dimensions      [1 0 -1 0 0 0 0];

internalField   nonuniform List<scalar> 
852
(
-0.00323251
0.00328727
-0.00456937
0.00133676
-0.00526274
0.000693271
-0.00539252
0.000129685
-0.00487794
-0.000514675
-0.00367394
-0.00120409
-0.00191326
-0.00176078
8.68399e-05
-0.00200022
0.00167322
-0.0015865
0.00277616
-0.00110306
0.00340497
-0.000628931
0.00357678
-0.000171945
0.00326516
0.000311492
0.00229963
0.000965398
0.0023011
-0.00097896
0.000980055
-0.0013569
0.000377637
-0.00101323
-0.000343998
-0.00028925
-0.000724291
0.000516109
-0.000805655
0.00121404
-0.00069822
0.00165547
-0.000441728
0.00190181
-0.000246655
0.00209468
-0.000193207
0.00227467
-0.000180336
0.00242505
-0.000150753
0.00251908
-9.4416e-05
0.0025359
-1.72263e-05
0.0024549
8.05702e-05
0.00224083
0.000213607
0.00183538
0.000404977
0.00121913
0.000615904
0.000554952
0.000664084
0.000556255
-0.00231743
0.005754
-0.00351652
0.00253575
-0.00422977
0.00140643
-0.00439995
0.00029978
-0.00394735
-0.000967356
-0.0028833
-0.00226823
-0.00144464
-0.00319952
1.39562e-05
-0.00345893
0.00129514
-0.00286781
0.00222895
-0.00203701
0.00280857
-0.0012087
0.00306229
-0.00042581
0.00304058
0.000333062
0.00290492
0.00110091
0.00336923
0.00183665
0.00164864
0.00172039
0.00164843
-0.00035838
0.00134224
-0.000132973
0.000151945
0.000422312
-0.000899674
0.000920361
-0.00122265
0.00135246
-0.00123803
0.00170187
-0.0010479
0.00178958
-0.00052972
0.00180958
-0.000266945
0.00183859
-0.000222551
0.00187717
-0.000219283
0.00191497
-0.000188968
0.00192576
-0.000105629
0.00189326
1.48342e-05
0.0018277
0.000145691
0.00171814
0.000322725
0.00146051
0.000662212
0.0010766
0.000999534
0.000596385
0.00114419
0.00115612
-0.00163185
0.00761612
-0.0026257
0.0035295
-0.00327268
0.00205332
-0.00343647
0.000463484
-0.00299515
-0.00140875
-0.00201046
-0.00325298
-0.000812336
-0.00439771
0.00028259
-0.00455397
0.00124267
-0.00382803
0.00197332
-0.00276782
0.00243985
-0.00167539
0.00268008
-0.000666202
0.00276396
0.000249026
0.00277501
0.0010897
0.00272792
0.00188358
0.0020038
0.00244435
0.00365207
0.000777848
0.000570916
0.001489
-0.000559615
0.00175459
-0.00116562
0.00194295
-0.0014113
0.00210595
-0.00140129
0.00239421
-0.00133639
0.0018644
0.00159733
0.0013746
0.00115505
0.000965713
0.000859697
0.000874282
0.00101982
0.00134243
0.00122707
0.000777309
0.0010164
0.00120999
0.000626077
0.00153438
0.00178765
-0.00113673
0.00905313
-0.00189439
0.00428705
-0.002344
0.00250284
-0.00238288
0.000502275
-0.0018424
-0.0019493
-0.000925129
-0.00417029
2.10576e-07
-0.0053231
0.00076632
-0.00532019
0.00140921
-0.00447109
0.00188312
-0.00324192
0.00216941
-0.00196187
0.00231276
-0.000809741
0.00238254
0.000179067
0.00244745
0.00102462
0.00258514
0.00174573
0.00284402
0.0021853
0.00413022
0.0023657
0.00297808
0.00116059
0.00320111
0.000347592
0.00309003
-0.000448803
0.00290382
-0.000979644
0.00269083
-0.00119851
0.00245665
-0.00116729
0.00205068
-0.000930577
0.00242027
-0.000369904
0.00253269
-0.000112729
0.00254465
-1.22825e-05
0.00249527
4.90511e-05
0.00239627
9.86787e-05
0.00225286
0.000143066
0.00205908
0.00019344
0.00178928
0.00026946
0.00137648
0.000412454
0.00126675
0.00088683
0.00108075
0.00139584
0.000768937
0.00184609
0.00256385
-0.000781756
0.0101956
-0.00132768
0.00483288
-0.00144232
0.00261737
-0.00111745
0.000177308
-0.0003492
-0.00271761
0.000414387
-0.00493389
0.000989629
-0.00589838
0.00139163
-0.0057223
0.0016769
-0.00475654
0.00182981
-0.00339505
0.00186591
-0.00199819
0.00184896
-0.000793008
0.00185327
0.000174562
0.0019541
0.000923611
0.00222289
0.00147676
0.00264367
0.00176436
0.00322272
0.00178649
0.00329231
0.00109084
0.00336442
0.000275302
0.00323954
-0.000324088
0.00296295
-0.000703196
0.00262072
-0.000856413
0.00226889
-0.000815576
0.0019569
-0.000618726
0.00187779
-0.000290923
0.00180497
-4.0062e-05
0.00169662
9.5912e-05
0.00157832
0.000167177
0.00146239
0.000214438
0.00134848
0.000256786
0.00123271
0.000309021
0.00111092
0.000391044
0.000986517
0.000536657
0.000999848
0.000873301
0.00108797
0.00130755
0.00122954
0.00170439
0.0019639
0.00182939
0.00104053
0.000923056
9.21254e-06
0.00103101
4.70437e-05
-0.000603385
0.0112121
-0.000864059
0.00509344
-0.000292653
0.00204585
0.000609866
-0.000725329
0.00144794
-0.00355573
0.0019327
-0.00541865
0.00212279
-0.0060885
0.00209657
-0.0056962
0.00193526
-0.00459543
0.0016863
-0.00314634
0.00140481
-0.00171695
0.0011802
-0.000568634
0.00109127
0.000263275
0.00118454
0.000830155
0.0014546
0.00120652
0.0018402
0.0013786
0.00231831
0.00130822
0.00260299
0.000806003
0.00263251
0.000245641
0.00248258
-0.000174293
0.00220701
-0.000427747
0.00186926
-0.000518793
0.00152358
-0.000470032
0.00121964
-0.00031492
0.0010163
-8.7742e-05
0.000874997
0.00010108
0.000764085
0.000206649
0.000672228
0.000258853
0.000597162
0.000289316
0.000539459
0.000314296
0.000502406
0.000345873
0.000494092
0.000399149
0.000531026
0.000499506
0.000687984
0.000716124
0.000998464
0.000996875
0.00145437
0.00124832
0.00199064
0.00129297
0.00204452
0.00086903
0.0018833
0.00119207
0.00197095
-0.000380032
0.012056
2.13654e-05
0.00469193
0.00159837
0.000468727
0.00284276
-0.00196981
0.00350258
-0.00421555
0.00362889
-0.00554493
0.00331273
-0.00577237
0.00271297
-0.00509658
0.00199963
-0.00388234
0.00127877
-0.00242577
0.000658868
-0.00109734
0.000261533
-0.000171555
0.000139116
0.000385473
0.000251691
0.000717385
0.000527609
0.000930424
0.000894563
0.00101147
0.00128839
0.000914232
0.00150858
0.000585672
0.00151779
0.000236286
0.00136946
-2.61095e-05
0.00111838
-0.000176816
0.000815356
-0.000215929
0.000506506
-0.000161352
0.000232471
-4.10631e-05
3.9689e-05
0.000104851
-7.39465e-05
0.000214526
-0.00014217
0.000274677
-0.000186899
0.000303384
-0.000213252
0.00031547
-0.000219217
0.000320056
-0.000198838
0.000325282
-0.000141809
0.000341897
-2.93493e-05
0.00038681
0.000190176
0.000496353
0.000547698
0.00063911
0.00106501
0.000730777
0.00171712
0.000640646
0.0021233
0.000462656
0.00187138
0.0014438
0.0038822
0.00323002
0.00934808
0.00433437
0.00358747
0.00508794
-0.000284967
0.00591217
-0.00279409
0.00602954
-0.00433287
0.0054021
-0.00491744
0.00426921
-0.00463953
0.00289276
-0.00372032
0.00154947
-0.00253936
0.000354216
-0.00123086
-0.000444833
-0.000298614
-0.00080363
0.000186977
-0.000845057
0.000426674
-0.000706639
0.00057876
-0.00045484
0.000678434
-0.000148429
0.000704885
0.000134544
0.000631089
0.000269577
0.000450474
0.000245948
0.000259745
0.000105216
0.000114431
-0.000108666
3.68647e-05
-0.00035513
3.03163e-05
-0.00058946
7.27504e-05
-0.000771924
0.000141172
-0.000880467
0.00021317
-0.000934166
0.000268003
-0.000958818
0.000299111
-0.000967753
0.000312104
-0.000966415
0.000313917
-0.000957832
0.000311255
-0.00094637
0.000313593
-0.000941302
0.000336587
-0.000959853
0.0004051
-0.00101531
0.000551532
-0.00115467
0.000778199
-0.00145975
0.00103559
-0.00203527
0.00121595
-0.00288651
0.00131368
-0.00291188
0.00146896
0.00115276
0.00992648
0.0135085
0.0118212
0.00140225
0.0102991
-0.0012719
0.00843813
-0.00247179
0.00630111
-0.00278038
0.00406384
-0.00240241
0.00187303
-0.0015298
3.40103e-05
-0.000700723
-0.00118067
-1.65636e-05
-0.00171278
0.000233185
-0.00185611
0.00033004
-0.00181524
0.000385545
-0.00167294
0.000436232
-0.00147218
0.000477451
-0.00125721
0.000489702
-0.00108286
0.000456536
-0.00100978
0.000377174
-0.00103944
0.000289183
-0.00114452
0.000219274
-0.00128842
0.000180514
-0.00143317
0.000174804
-0.00155299
0.000192303
-0.00163375
0.000221665
-0.00167351
0.000252669
-0.00168297
0.000277205
-0.00167658
0.000292482
-0.00166546
0.000300751
-0.00165861
0.000306826
-0.0016657
0.000318106
-0.00169839
0.000346049
-0.00177018
0.000408115
-0.00189522
0.000529887
-0.00208561
0.000741684
-0.00237034
0.0010627
-0.00282454
0.00148958
-0.00356555
0.00195673
-0.00445343
0.0022012
-0.00422188
0.00123683
-0.00292402
0.00550897
0.00277168
0.00393184
0.000305383
0.00292798
-0.00146801
0.00146452
-0.00131719
-0.000230499
-0.000707836
-0.00167186
-8.8836e-05
-0.00254586
0.000172893
-0.00286482
0.000302047
-0.00293391
0.000301951
-0.00289228
0.000288107
-0.00279368
0.000286656
-0.00265997
0.000302246
-0.00250838
0.000325583
-0.00236153
0.00034258
-0.00224688
0.000341607
-0.00218925
0.000319261
-0.00218712
0.000286765
-0.00222359
0.000255444
-0.00227639
0.000233
-0.00232438
0.000222474
-0.0023544
0.000222005
-0.00236116
0.00022812
-0.00234569
0.000236899
-0.00231352
0.000244746
-0.00227125
0.000249929
-0.00222406
0.000253281
-0.00217572
0.000258211
-0.00212904
0.000271155
-0.00208557
0.000302306
-0.00204428
0.000366547
-0.00199849
0.000483827
-0.00193259
0.000675533
-0.00182474
0.000954623
-0.0016504
0.00131503
-0.00132565
0.00163176
-0.000488084
0.00136334
0.00042615
0.000322111
-0.00246641
0.000296383
0.00254973
3.4342e-05
0.000567181
-0.0014988
6.47702e-05
-0.00285062
3.42269e-05
-0.00371408
0.000155207
-0.00405521
0.000251882
-0.00414547
0.000262767
-0.00409016
0.000246362
-0.00399587
0.000207297
-0.00388627
0.000178146
-0.00376691
0.000166947
-0.00363719
0.000172182
-0.00349913
0.000187176
-0.00336066
0.000203764
-0.00323416
0.000214749
-0.00313148
0.000216224
-0.00305505
0.00020997
-0.00299949
0.000199505
-0.00295535
0.000188485
-0.00291283
0.00017958
-0.00286499
0.000173794
-0.00280837
0.000171137
-0.00274265
0.000170811
-0.00266978
0.000171526
-0.00259257
0.000172374
-0.00251316
0.000173527
-0.00243181
0.000176525
-0.00234544
0.000184455
-0.00224557
0.00020211
-0.0021156
0.000236257
-0.00192815
0.00029607
-0.0016444
0.000391495
-0.00120952
0.00051947
-0.000510326
0.000615577
0.000514803
0.00060637
0.00156818
0.000309679
0.00216126
-0.000271319
-0.000273011
0.00184441
-0.00930089
-0.00673309
-0.00617024
-0.0061195
-0.00610409
-0.00597094
-0.00574374
-0.00550762
-0.00528925
-0.00511086
-0.00496224
-0.00482528
-0.00468349
-0.00452715
-0.00435474
-0.00417197
-0.00398847
-0.003812
-0.00364677
-0.00349326
-0.00334925
-0.00321149
-0.00307674
-0.00294259
-0.00280794
-0.00267262
-0.00253634
-0.00239726
-0.0022505
-0.00208637
-0.00188844
-0.00163106
-0.00127864
-0.000798685
-0.000223286
0.000341521
0.000607578
0.000290572
)
;

boundaryField
{
    floor
    {
        type            calculated;
        value           nonuniform List<scalar> 
29
(
0
0
0
0
0
0
0
0
0
0
0
0
0
0
0
0
0
0
0
0
-1.3348e-06
-3.55076e-06
-5.55535e-06
-7.35823e-06
-1.61575e-06
-1.37437e-06
-4.07393e-06
-6.80562e-06
-8.61285e-06
)
;
    }
    ceiling
    {
        type            calculated;
        value           nonuniform List<scalar> 
43
(
1.00727e-05
-1.39194e-05
-1.87126e-05
3.89105e-06
1.35841e-05
1.83763e-05
2.16081e-05
2.42401e-05
2.62106e-05
2.75514e-05
2.84646e-05
2.90882e-05
2.95494e-05
2.99547e-05
3.0388e-05
3.09067e-05
3.15364e-05
3.22657e-05
3.30462e-05
3.38147e-05
3.45138e-05
3.51051e-05
3.55763e-05
3.59373e-05
3.62123e-05
3.64309e-05
3.66221e-05
3.68119e-05
3.70236e-05
3.72761e-05
3.758e-05
3.79319e-05
3.83151e-05
3.87158e-05
3.9166e-05
3.98394e-05
4.12188e-05
4.32243e-05
4.52015e-05
4.86042e-05
7.68153e-06
5.34551e-06
-7.4471e-05
)
;
    }
    sWall
    {
        type            calculated;
        value           uniform -0.000190616;
    }
    nWall
    {
        type            calculated;
        value           nonuniform List<scalar> 6(-3.79657e-05 -4.08045e-05 -4.00648e-05 -3.1822e-05 -3.24867e-05 -3.16017e-05);
    }
    sideWalls
    {
        type            empty;
        value           nonuniform 0();
    }
    glass1
    {
        type            calculated;
        value           nonuniform List<scalar> 9(-5.48664e-05 -0.000149395 -0.000230364 -0.000300367 -0.000360815 -0.000413134 -0.000463992 -0.000522193 -0.000586161);
    }
    glass2
    {
        type            calculated;
        value           nonuniform List<scalar> 2(-0.000182639 -0.000145897);
    }
    sun
    {
        type            calculated;
        value           uniform 0;
    }
    heatsource1
    {
        type            calculated;
        value           nonuniform List<scalar> 3(2.02218e-07 2.02567e-07 2.02862e-07);
    }
    heatsource2
    {
        type            calculated;
        value           nonuniform List<scalar> 4(5.08693e-08 5.10812e-08 0 0);
    }
    Table_master
    {
        type            calculated;
        value           nonuniform List<scalar> 9(-1.52166e-07 -1.52363e-07 -1.52403e-07 -1.52399e-07 -1.52351e-07 -1.52269e-07 -1.52186e-07 -1.52079e-07 -1.51944e-07);
    }
    Table_slave
    {
        type            calculated;
        value           nonuniform List<scalar> 9(1.51977e-07 1.51969e-07 1.5193e-07 1.51895e-07 1.51877e-07 1.51877e-07 1.51894e-07 1.51928e-07 1.51988e-07);
    }
    inlet
    {
        type            calculated;
        value           uniform -0.00687821;
    }
    outlet
    {
        type            calculated;
        value           nonuniform List<scalar> 2(-0.00166445 0.0111586);
    }
}


// ************************************************************************* //
