/*--------------------------------*- C++ -*----------------------------------*\
  =========                 |
  \\      /  F ield         | OpenFOAM: The Open Source CFD Toolbox
   \\    /   O peration     | Website:  https://openfoam.org
    \\  /    A nd           | Version:  6
     \\/     M anipulation  |
\*---------------------------------------------------------------------------*/
FoamFile
{
    version     2.0;
    format      ascii;
    class       volScalarField;
    location    "500";
    object      nut;
}
// * * * * * * * * * * * * * * * * * * * * * * * * * * * * * * * * * * * * * //

dimensions      [0 2 -1 0 0 0 0];

internalField   nonuniform List<scalar> 
459
(
0.000727782
0.000740634
0.000617302
0.000630203
0.000653496
0.000677631
0.000701861
0.000726398
0.000752095
0.00077682
0.00079785
0.000813603
0.000822617
0.00082348
0.000811095
0.000306083
0.000407635
0.000285887
0.000243591
0.000224725
0.000212113
0.000207613
0.000211057
0.000223021
0.000238482
0.000255078
0.000271866
0.000289108
0.000312877
0.00034962
0.000396298
0.000438146
0.000437076
0.000396059
0.00132527
0.0025571
0.0015941
0.00239686
0.00267201
0.00285997
0.00305217
0.00323473
0.00338178
0.00348951
0.00353966
0.00349286
0.00328302
0.00280135
0.00193356
0.000883428
0.000587601
0.000429611
0.00173776
0.00102372
0.000743331
0.000555814
0.000386422
0.000321659
0.000317513
0.000365922
0.000451165
0.000570603
0.000719593
0.00088265
0.00101211
0.00117594
0.00147734
0.00129882
0.00109532
0.000449763
0.0018442
0.00453405
0.0018581
0.00299491
0.00397816
0.00429991
0.00452089
0.0047078
0.00485046
0.00494655
0.00497393
0.00488666
0.00461023
0.00404127
0.00310925
0.00195924
0.000957765
0.000718113
0.00233894
0.0018681
0.00151737
0.00121596
0.000901681
0.000251996
0.000245185
0.000299486
0.000352172
0.000402852
0.000454836
0.000512167
0.000581735
0.000678535
0.0019161
0.0017684
0.00136133
0.000691303
0.00231865
0.00685731
0.00268102
0.0028304
0.00443441
0.00499662
0.00527347
0.00549401
0.00567813
0.00582729
0.00594222
0.00598032
0.00586172
0.00546118
0.00463148
0.00333933
0.00193686
0.00111579
0.00273069
0.00293039
0.00276485
0.0023022
0.00179638
0.00123302
0.000777552
0.000763327
0.000752534
0.000744611
0.000742636
0.000751409
0.000776872
0.000826115
0.000911687
0.00268999
0.00285085
0.00251712
0.000969778
0.00274444
0.00920292
0.00424681
0.00287805
0.00418256
0.00500099
0.00540781
0.0057097
0.0059708
0.00621701
0.00649953
0.00679539
0.00705506
0.00720903
0.00717815
0.00690348
0.00640394
0.00583382
0.005657
0.0055065
0.00540988
0.00525739
0.00504711
0.00480084
0.00453915
0.00434555
0.00412282
0.00387357
0.0036247
0.00342026
0.00330242
0.00328784
0.00336645
0.00353616
0.00356351
0.00351213
0.00304449
0.00131623
0.00114486
0.000989749
0.00313305
0.0112101
0.00676703
0.00407757
0.00377984
0.0043154
0.0048623
0.00529329
0.00561545
0.00594848
0.00637643
0.00688713
0.00743486
0.00795256
0.00836318
0.00859417
0.00859819
0.00839332
0.00808417
0.00775829
0.00748444
0.00727915
0.00711066
0.00694101
0.00673497
0.00647676
0.00614979
0.00574598
0.00527682
0.00479145
0.004371
0.00407977
0.00391796
0.0038349
0.00376738
0.00365249
0.00338053
0.0028445
0.0020966
0.0010393
0.00346254
0.0124288
0.00979451
0.00676973
0.00482108
0.00416109
0.00431432
0.00468173
0.0049419
0.00524494
0.00567429
0.00625981
0.00697208
0.00773025
0.00842975
0.00896734
0.0092582
0.00928837
0.0091228
0.0088698
0.00862493
0.0084316
0.00828161
0.00814731
0.00799718
0.0078103
0.00756826
0.00724197
0.00679618
0.00621716
0.00555873
0.0049457
0.00447934
0.00416016
0.00391529
0.00365109
0.00327672
0.00276138
0.00215913
0.00104101
0.00348248
0.011279
0.0100463
0.00901103
0.0072545
0.00586393
0.00514501
0.00488835
0.00481094
0.00482806
0.00498911
0.00534586
0.00592866
0.00670627
0.0075656
0.00835621
0.00890986
0.00918587
0.00923075
0.00913162
0.00898148
0.00883996
0.00872536
0.00863231
0.00854749
0.00846253
0.00837086
0.00825422
0.00807225
0.00776191
0.00726961
0.00661748
0.00590286
0.00525791
0.00472053
0.00424352
0.00378193
0.00331641
0.00295048
0.00151043
0.00332385
0.00383768
0.00833036
0.00894986
0.0079694
0.00683842
0.00594296
0.00533105
0.00493717
0.00471266
0.00465392
0.0047579
0.00504402
0.00553908
0.00622377
0.00699107
0.00767785
0.00817249
0.0084504
0.00855267
0.00854853
0.00849847
0.00843882
0.00838529
0.00834315
0.00831796
0.0083181
0.00834905
0.00840369
0.00844634
0.00838731
0.0081567
0.00777803
0.0073911
0.00719104
0.00712986
0.00670329
0.00572457
0.00576535
0.00167593
0.0179761
0.0168882
0.00980608
0.00771838
0.00661174
0.00588695
0.00539705
0.00507424
0.00487576
0.00478648
0.00480868
0.00495448
0.00523664
0.00564479
0.00612597
0.00659763
0.00698624
0.00725715
0.00741672
0.00749288
0.00751557
0.00750959
0.00749405
0.00748526
0.00749951
0.0075527
0.00765627
0.00780557
0.00795004
0.00803713
0.00801832
0.00788365
0.00767814
0.00734156
0.00669391
0.00573297
0.00484945
0.00161733
0.00653534
0.0136024
0.00956179
0.00750358
0.00635817
0.00563231
0.00515588
0.00485066
0.00466789
0.00458503
0.00459328
0.00468639
0.00485693
0.0050855
0.00535558
0.00564021
0.00590651
0.00612754
0.00629092
0.00639717
0.00644443
0.00644748
0.00642436
0.00639148
0.00636262
0.00634873
0.00635722
0.00638807
0.00641388
0.0064284
0.00641232
0.0063443
0.00618637
0.00582289
0.00528299
0.00450591
0.00426664
0.00147148
0.00176587
0.00265752
0.00472455
0.00428532
0.00354859
0.00297671
0.00255884
0.00224815
0.00201052
0.00182475
0.00167886
0.00156509
0.00147727
0.00141143
0.00136496
0.0013367
0.0013234
0.00132112
0.00132531
0.00133153
0.00133647
0.00133829
0.00133777
0.00133457
0.0013288
0.001321
0.00131188
0.00130215
0.0012924
0.00128311
0.00127756
0.00127374
0.00126801
0.00125498
0.00123044
0.00120315
0.00116973
0.00112849
0.00115123
0.00106214
)
;

boundaryField
{
    floor
    {
        type            nutkWallFunction;
        Cmu             0.09;
        kappa           0.41;
        E               9.8;
        value           nonuniform List<scalar> 
29
(
9.82306e-05
3.4169e-05
4.76756e-05
3.14126e-05
2.55781e-05
2.29309e-05
2.11409e-05
2.04988e-05
2.09895e-05
2.26917e-05
2.48755e-05
2.7199e-05
2.95291e-05
3.19045e-05
3.51528e-05
4.01096e-05
4.63095e-05
5.17834e-05
5.16354e-05
4.62598e-05
4.62597e-05
5.32709e-05
8.37173e-05
0.000117222
9.82306e-05
3.41689e-05
5.06041e-05
8.68849e-05
0.000134235
)
;
    }
    ceiling
    {
        type            nutkWallFunction;
        Cmu             0.09;
        kappa           0.41;
        E               9.8;
        value           nonuniform List<scalar> 
43
(
0.000207939
0.000304304
0.000516295
0.000472137
0.0003971
0.000337785
0.000293716
0.00026047
0.000234717
0.000214359
0.000198213
0.000185516
0.000175647
0.000168204
0.000162927
0.000159706
0.000158187
0.000157924
0.0001584
0.000159109
0.00015967
0.000159877
0.000159817
0.000159452
0.000158794
0.000157904
0.000156863
0.000155752
0.000154637
0.000153574
0.000152939
0.000152501
0.000151844
0.000150349
0.000147531
0.000144389
0.000140529
0.000135751
0.000138386
0.000128019
0.000373812
0.000426548
0.000694264
)
;
    }
    sWall
    {
        type            nutkWallFunction;
        Cmu             0.09;
        kappa           0.41;
        E               9.8;
        value           uniform 0.000207985;
    }
    nWall
    {
        type            nutkWallFunction;
        Cmu             0.09;
        kappa           0.41;
        E               9.8;
        value           nonuniform List<scalar> 6(0.000119534 0.000125356 0.00012556 0.000191326 0.000174966 0.000128026);
    }
    sideWalls
    {
        type            empty;
    }
    glass1
    {
        type            nutkWallFunction;
        Cmu             0.09;
        kappa           0.41;
        E               9.8;
        value           nonuniform List<scalar> 9(8.80983e-05 0.000158547 0.000216707 0.000268307 0.000313657 0.000354406 0.00038855 0.000390619 0.000374255);
    }
    glass2
    {
        type            nutkWallFunction;
        Cmu             0.09;
        kappa           0.41;
        E               9.8;
        value           nonuniform List<scalar> 2(0.000179422 0.000197912);
    }
    sun
    {
        type            nutkWallFunction;
        Cmu             0.09;
        kappa           0.41;
        E               9.8;
        value           nonuniform List<scalar> 
14
(
8.81238e-05
8.96926e-05
7.45023e-05
7.61079e-05
7.89962e-05
8.19759e-05
8.49545e-05
8.79585e-05
9.10914e-05
9.4094e-05
9.66387e-05
9.85394e-05
9.96241e-05
9.9726e-05
)
;
    }
    heatsource1
    {
        type            nutkWallFunction;
        Cmu             0.09;
        kappa           0.41;
        E               9.8;
        value           nonuniform List<scalar> 3(0.000157359 0.000137652 0.000119529);
    }
    heatsource2
    {
        type            nutkWallFunction;
        Cmu             0.09;
        kappa           0.41;
        E               9.8;
        value           nonuniform List<scalar> 4(0.0001069 7.07951e-05 7.07951e-05 0.00011572);
    }
    Table_master
    {
        type            nutkWallFunction;
        Cmu             0.09;
        kappa           0.41;
        E               9.8;
        value           nonuniform List<scalar> 9(2.67649e-05 2.5818e-05 3.33186e-05 4.04297e-05 4.71426e-05 5.39187e-05 6.12817e-05 7.00821e-05 8.21184e-05);
    }
    Table_slave
    {
        type            nutkWallFunction;
        Cmu             0.09;
        kappa           0.41;
        E               9.8;
        value           nonuniform List<scalar> 9(9.41866e-05 9.24635e-05 9.11531e-05 9.01894e-05 8.99491e-05 9.10175e-05 9.41106e-05 0.000100059 0.000110299);
    }
    inlet
    {
        type            calculated;
        value           uniform 0.0179761;
    }
    outlet
    {
        type            calculated;
        value           nonuniform List<scalar> 2(0.00176587 0.00265752);
    }
}


// ************************************************************************* //
