// -*- C++ -*-
// File generated by PyFoam - sorry for the ugliness

FoamFile
{
 version 2.0;
 format ascii;
 class volScalarField;
 location "600";
 object T;
}

dimensions [ 0 0 0 1 0 0 0 ];

internalField nonuniform List<scalar> 459
(
  304.784
  304.504
  304.503
  304.514
  304.529
  304.544
  304.561
  304.577
  304.592
  304.606
  304.617
  304.625
  304.631
  304.632
  304.628
  303.254
  303.28
  303.304
  303.28
  303.258
  303.251
  303.252
  303.252
  303.251
  303.251
  303.256
  303.264
  303.268
  303.269
  303.276
  303.293
  303.326
  303.314
  303.306
  305.017
  304.651
  304.621
  304.634
  304.654
  304.675
  304.694
  304.712
  304.729
  304.743
  304.752
  304.755
  304.75
  304.733
  304.7
  304.654
  304.439
  303.491
  303.492
  303.485
  303.462
  303.426
  303.415
  303.44
  303.443
  303.445
  303.455
  303.472
  303.506
  303.564
  303.623
  303.678
  303.725
  303.667
  303.583
  303.518
  305.227
  304.8
  304.744
  304.749
  304.773
  304.798
  304.822
  304.845
  304.865
  304.881
  304.89
  304.891
  304.878
  304.846
  304.793
  304.72
  304.645
  303.928
  303.902
  303.89
  303.906
  303.913
  303.877
  303.667
  303.718
  303.777
  303.835
  303.895
  303.96
  304.035
  304.138
  304.277
  304.456
  304.494
  304.571
  304.736
  305.421
  304.965
  304.9
  304.888
  304.904
  304.93
  304.959
  304.986
  305.012
  305.032
  305.046
  305.048
  305.035
  305
  304.937
  304.841
  304.715
  304.595
  304.505
  304.575
  304.673
  304.781
  304.874
  304.937
  304.987
  305.003
  305.017
  305.031
  305.045
  305.058
  305.071
  305.08
  305.082
  305.066
  305.111
  305.173
  305.242
  305.608
  305.15
  305.097
  305.075
  305.071
  305.086
  305.112
  305.142
  305.171
  305.198
  305.218
  305.23
  305.229
  305.212
  305.177
  305.125
  305.064
  305.008
  304.971
  304.974
  305.009
  305.05
  305.084
  305.107
  305.124
  305.137
  305.15
  305.166
  305.185
  305.206
  305.231
  305.259
  305.289
  305.319
  305.363
  305.407
  305.444
  305.464
  305.416
  305.372
  305.786
  305.364
  305.366
  305.355
  305.323
  305.305
  305.309
  305.327
  305.353
  305.381
  305.406
  305.425
  305.434
  305.429
  305.408
  305.372
  305.326
  305.282
  305.249
  305.234
  305.233
  305.239
  305.245
  305.251
  305.256
  305.26
  305.267
  305.277
  305.29
  305.308
  305.333
  305.363
  305.399
  305.438
  305.478
  305.513
  305.536
  305.535
  305.476
  305.362
  305.959
  305.625
  305.768
  305.766
  305.707
  305.644
  305.605
  305.59
  305.59
  305.606
  305.626
  305.646
  305.661
  305.665
  305.655
  305.629
  305.592
  305.551
  305.514
  305.485
  305.465
  305.451
  305.44
  305.431
  305.422
  305.415
  305.409
  305.405
  305.405
  305.41
  305.422
  305.443
  305.472
  305.508
  305.547
  305.582
  305.604
  305.602
  305.553
  305.377
  306.172
  305.976
  306.275
  306.328
  306.233
  306.115
  306.031
  305.978
  305.946
  305.927
  305.923
  305.931
  305.94
  305.944
  305.938
  305.92
  305.89
  305.852
  305.812
  305.774
  305.741
  305.712
  305.687
  305.663
  305.641
  305.619
  305.598
  305.578
  305.56
  305.546
  305.537
  305.536
  305.545
  305.567
  305.6
  305.64
  305.681
  305.719
  305.754
  305.793
  306.449
  306.424
  307.171
  307.181
  306.922
  306.685
  306.534
  306.446
  306.398
  306.371
  306.355
  306.34
  306.326
  306.31
  306.294
  306.271
  306.24
  306.202
  306.159
  306.114
  306.071
  306.029
  305.99
  305.952
  305.916
  305.88
  305.845
  305.809
  305.774
  305.741
  305.71
  305.686
  305.669
  305.664
  305.669
  305.685
  305.705
  305.728
  305.755
  305.801
  311.468
  308.346
  307.488
  307.137
  307.003
  306.939
  306.907
  306.889
  306.873
  306.854
  306.829
  306.798
  306.759
  306.716
  306.667
  306.614
  306.559
  306.503
  306.447
  306.392
  306.338
  306.286
  306.235
  306.185
  306.135
  306.086
  306.037
  305.988
  305.941
  305.898
  305.86
  305.831
  305.811
  305.801
  305.799
  305.802
  305.804
  305.798
  310.692
  308.993
  308.414
  308.053
  307.847
  307.728
  307.648
  307.585
  307.526
  307.466
  307.403
  307.337
  307.268
  307.197
  307.126
  307.053
  306.979
  306.906
  306.834
  306.762
  306.693
  306.625
  306.559
  306.495
  306.432
  306.37
  306.309
  306.249
  306.19
  306.133
  306.08
  306.032
  305.991
  305.957
  305.928
  305.901
  305.871
  305.829
  310.275
  310.272
  310.509
  310.083
  309.678
  309.358
  309.124
  308.933
  308.762
  308.6
  308.446
  308.298
  308.158
  308.025
  307.9
  307.782
  307.672
  307.567
  307.467
  307.371
  307.279
  307.191
  307.105
  307.023
  306.942
  306.864
  306.787
  306.711
  306.637
  306.563
  306.491
  306.42
  306.35
  306.282
  306.215
  306.15
  306.086
  306.018
  305.941
  305.852
)
;

boundaryField
{
  floor
  {
    type wallHeatTransfer;
    Tinf uniform 305.2;
    alphaWall uniform 0.24;
    value nonuniform List<scalar> 29
(
  304.712
  303.735
  303.727
  303.736
  303.751
  303.779
  303.813
  303.833
  303.818
  303.791
  303.766
  303.747
  303.738
  303.74
  303.746
  303.755
  303.768
  303.791
  303.797
  303.815
  303.815
  303.91
  304.811
  305.237
  304.712
  303.735
  303.818
  304.113
  304.666
)
;
  }
  ceiling
  {
    type wallHeatTransfer;
    Tinf uniform 303.2;
    alphaWall uniform 0.24;
    value nonuniform List<scalar> 43
(
  309.648
  309.754
  310.282
  309.851
  309.426
  309.082
  308.823
  308.609
  308.419
  308.244
  308.082
  307.933
  307.796
  307.67
  307.553
  307.444
  307.341
  307.244
  307.151
  307.062
  306.976
  306.893
  306.813
  306.735
  306.659
  306.585
  306.512
  306.44
  306.37
  306.301
  306.233
  306.165
  306.099
  306.033
  305.969
  305.906
  305.842
  305.775
  305.702
  305.594
  306.306
  306.298
  310.529
)
;
  }
  sWall
  {
    type wallHeatTransfer;
    Tinf uniform 315.2;
    alphaWall uniform 0.36;
    value uniform 310.903;
  }
  nWall
  {
    type wallHeatTransfer;
    Tinf uniform 307.2;
    alphaWall uniform 0.36;
    value nonuniform List<scalar> 6
(
  305.714
  305.702
  305.699
  305.954
  305.98
  306.04
)
;
  }
  sideWalls
  {
    type empty;
  }
  glass1
  {
    type wallHeatTransfer;
    Tinf uniform 315.2;
    alphaWall uniform 4.3;
    value nonuniform List<scalar> 9
(
  312.588
  311.548
  310.928
  310.531
  310.279
  310.116
  310.029
  310.162
  310.425
)
;
  }
  glass2
  {
    type wallHeatTransfer;
    Tinf uniform 307.2;
    alphaWall uniform 4.3;
    value nonuniform List<scalar> 2
(
  306.659
  306.644
)
;
  }
  sun
  {
    type wallHeatTransfer;
    Tinf uniform 305.2;
    alphaWall uniform 0.24;
    value nonuniform List<scalar> 14
(
  304.842
  304.6
  304.619
  304.633
  304.644
  304.655
  304.666
  304.678
  304.688
  304.698
  304.705
  304.711
  304.714
  304.715
)
;
  }
  heatsource1
  {
    type fixedGradient;
    gradient uniform 0;
  }
  heatsource2
  {
    type fixedGradient;
    gradient uniform 0;
  }
  Table_master
  {
    type zeroGradient;
  }
  Table_slave
  {
    type zeroGradient;
  }
  inlet
  {
    type fixedValue;
    value uniform 293.15;
  }
  outlet
  {
    type zeroGradient;
  }
} 	// ************************************************************************* //

