// -*- C++ -*-
// File generated by PyFoam - sorry for the ugliness

FoamFile
{
 version 2.0;
 format ascii;
 class volVectorField;
 location "600";
 object U;
}

dimensions [ 0 1 -1 0 0 0 0 ];

internalField nonuniform List<vector> 459
(
  (0.100992 0.0580146 0)
  (-0.122505 -0.00443208 0)
  (-0.0872566 -0.00460015 0)
  (-0.0837467 -0.00196963 0)
  (-0.082239 -0.000841906 0)
  (-0.0820169 -0.000531341 0)
  (-0.0821497 -0.00070903 0)
  (-0.0820524 -0.00127729 0)
  (-0.0812114 -0.00225341 0)
  (-0.0790435 -0.00370574 0)
  (-0.0746749 -0.00573374 0)
  (-0.0667615 -0.00856269 0)
  (-0.0543454 -0.0127559 0)
  (-0.0405258 -0.0191185 0)
  (-0.0388071 -0.0263934 0)
  (0.0350984 0.00863598 0)
  (-0.0244815 -0.0047128 0)
  (-0.0128919 -0.00619085 0)
  (-0.00877778 -0.00477418 0)
  (-0.00268762 -0.00481978 0)
  (0.00416161 -0.00500222 0)
  (0.0097016 -0.00556525 0)
  (0.0150379 -0.00474019 0)
  (0.0192242 -0.00383426 0)
  (0.0223786 -0.00317318 0)
  (0.0249798 -0.00290469 0)
  (0.0271724 -0.00287546 0)
  (0.0290289 -0.00262385 0)
  (0.0296514 -0.00216555 0)
  (0.0287267 -0.00151393 0)
  (0.0280981 -0.00133607 0)
  (0.0273452 -0.00430692 0)
  (0.0337093 -0.00477576 0)
  (-0.0160622 0.0123385 0)
  (0.282641 0.128339 0)
  (-0.145878 0.00459442 0)
  (-0.0819357 -0.00686971 0)
  (-0.0844257 -0.00284616 0)
  (-0.0849603 -0.00058939 0)
  (-0.085308 0.000297211 0)
  (-0.0855143 0.000304567 0)
  (-0.085457 -0.000428825 0)
  (-0.0848634 -0.00194139 0)
  (-0.0833482 -0.00435254 0)
  (-0.0803197 -0.00780757 0)
  (-0.0749494 -0.0125593 0)
  (-0.0665409 -0.0191724 0)
  (-0.0554845 -0.028378 0)
  (-0.0436865 -0.039028 0)
  (-0.0324952 -0.045215 0)
  (0.0234669 0.00694506 0)
  (0.0879694 0.00342355 0)
  (0.033226 0.00358013 0)
  (0.0111417 0.00228533 0)
  (0.00259462 0.000746564 0)
  (-0.00159987 -0.00207338 0)
  (-0.00530458 -0.00412908 0)
  (-0.00831497 -0.00804555 0)
  (-0.00603669 -0.00602793 0)
  (-0.00474499 -0.00424172 0)
  (-0.00500126 -0.00297669 0)
  (-0.00593564 -0.00179138 0)
  (-0.00781198 6.66559e-05 0)
  (-0.0113494 0.00283052 0)
  (-0.0146826 0.00512549 0)
  (-0.0174408 0.00647885 0)
  (-0.0197791 0.00696117 0)
  (-0.0222083 0.00662683 0)
  (-0.0385096 0.0116106 0)
  (-0.0951448 0.0195089 0)
  (0.425733 0.194932 0)
  (-0.180891 0.0257223 0)
  (-0.0699601 -0.00160935 0)
  (-0.0790942 -0.0011954 0)
  (-0.0823809 2.31287e-05 0)
  (-0.0833887 0.000389236 0)
  (-0.0838123 9.08201e-05 0)
  (-0.0840304 -0.00100265 0)
  (-0.0840778 -0.00307445 0)
  (-0.0838572 -0.00636077 0)
  (-0.0831216 -0.0111126 0)
  (-0.0815424 -0.0176115 0)
  (-0.0788833 -0.0261233 0)
  (-0.0751898 -0.0364239 0)
  (-0.0709891 -0.046538 0)
  (-0.0691308 -0.0523039 0)
  (-0.0780486 -0.0510849 0)
  (0.0177673 0.00696077 0)
  (-0.0353551 0.00812781 0)
  (-0.0346133 0.00840059 0)
  (-0.0336042 0.00478381 0)
  (-0.0329096 0.000580422 0)
  (-0.0333359 -0.00371701 0)
  (-0.0307129 -0.00678506 0)
  (-0.0402472 -0.0061493 0)
  (-0.0446151 -0.00470336 0)
  (-0.0475034 -0.00364838 0)
  (-0.049283 -0.00277998 0)
  (-0.0496516 -0.00195229 0)
  (-0.0482137 -0.00119683 0)
  (-0.0454149 -0.000973737 0)
  (-0.0399554 -0.0016782 0)
  (-0.0314427 -0.00161686 0)
  (-0.0174595 -9.87861e-05 0)
  (-0.00554472 -0.00125711 0)
  (-0.0526481 -0.00353888 0)
  (0.536575 0.248021 0)
  (-0.209476 0.0506229 0)
  (-0.0541904 0.0089536 0)
  (-0.0675602 0.003589 0)
  (-0.0752514 0.00208171 0)
  (-0.0771133 0.00124239 0)
  (-0.0775697 0.000508121 0)
  (-0.0777232 -0.000624398 0)
  (-0.0780131 -0.0025764 0)
  (-0.0787185 -0.00571304 0)
  (-0.0799952 -0.01035 0)
  (-0.082001 -0.0167149 0)
  (-0.0849955 -0.0247641 0)
  (-0.0894494 -0.0337329 0)
  (-0.0965783 -0.0415338 0)
  (-0.109405 -0.0442091 0)
  (-0.127539 -0.0340038 0)
  (-0.127003 0.000598097 0)
  (-0.100331 0.00892968 0)
  (-0.0961891 0.00782833 0)
  (-0.0910508 0.00570501 0)
  (-0.0908027 0.00291866 0)
  (-0.0925629 -0.000615842 0)
  (-0.0947357 -0.00413692 0)
  (-0.0949696 -0.00426747 0)
  (-0.0916761 -0.00432295 0)
  (-0.087822 -0.0049084 0)
  (-0.0833546 -0.00538293 0)
  (-0.0783965 -0.00582468 0)
  (-0.0729611 -0.00630734 0)
  (-0.0668192 -0.00692833 0)
  (-0.0594964 -0.00784558 0)
  (-0.0508207 -0.00919152 0)
  (-0.0428562 -0.0108429 0)
  (-0.033352 -0.0116381 0)
  (-0.0211543 -0.0126882 0)
  (-0.0178387 -0.0120313 0)
  (0.621695 0.289232 0)
  (-0.229869 0.0764019 0)
  (-0.0376621 0.0202857 0)
  (-0.0467555 0.010584 0)
  (-0.0594837 0.00602826 0)
  (-0.064208 0.00273685 0)
  (-0.0653573 0.000776004 0)
  (-0.0653176 -0.000534609 0)
  (-0.0652003 -0.00204122 0)
  (-0.0656911 -0.00432282 0)
  (-0.0672325 -0.00779787 0)
  (-0.0701796 -0.0127086 0)
  (-0.0748142 -0.0189854 0)
  (-0.0813791 -0.0260043 0)
  (-0.0902457 -0.0324761 0)
  (-0.10154 -0.0361525 0)
  (-0.112315 -0.0327391 0)
  (-0.116586 -0.0181959 0)
  (-0.113028 -0.00534553 0)
  (-0.106976 0.00120352 0)
  (-0.101406 0.00282115 0)
  (-0.0976809 0.00224135 0)
  (-0.0953435 0.000166258 0)
  (-0.0939882 -0.0021377 0)
  (-0.0925256 -0.00327775 0)
  (-0.0903506 -0.00451921 0)
  (-0.0878731 -0.00549492 0)
  (-0.0851269 -0.00628265 0)
  (-0.0821019 -0.00700283 0)
  (-0.0787795 -0.00781331 0)
  (-0.0750615 -0.00896123 0)
  (-0.0707593 -0.0108624 0)
  (-0.0657247 -0.014079 0)
  (-0.0596471 -0.0187884 0)
  (-0.0514118 -0.0240003 0)
  (-0.0388281 -0.0312661 0)
  (-0.0229875 -0.0398419 0)
  (0.0138077 -0.0546034 0)
  (0.0677327 -0.0343739 0)
  (-0.0519484 0.014106 0)
  (0.675843 0.323841 0)
  (-0.246512 0.0951894 0)
  (-0.0214326 0.0218988 0)
  (-0.0131149 0.016247 0)
  (-0.0266805 0.0149464 0)
  (-0.0383097 0.00753128 0)
  (-0.0435709 0.00198387 0)
  (-0.0451352 -0.000546891 0)
  (-0.0453054 -0.00203096 0)
  (-0.0454917 -0.00350613 0)
  (-0.0465516 -0.00563675 0)
  (-0.0490792 -0.00880772 0)
  (-0.0534416 -0.0131144 0)
  (-0.0597951 -0.0181019 0)
  (-0.0681261 -0.0226723 0)
  (-0.0778111 -0.0249317 0)
  (-0.0865319 -0.0225128 0)
  (-0.0913611 -0.0154472 0)
  (-0.0916973 -0.00834308 0)
  (-0.0892544 -0.00364807 0)
  (-0.0860501 -0.0015062 0)
  (-0.0831365 -0.00128418 0)
  (-0.0809465 -0.0024451 0)
  (-0.0795411 -0.00406534 0)
  (-0.0784965 -0.00535766 0)
  (-0.0774878 -0.00656421 0)
  (-0.076498 -0.0076327 0)
  (-0.0755225 -0.00855372 0)
  (-0.0745814 -0.00939335 0)
  (-0.0737303 -0.0103 0)
  (-0.0730333 -0.0115641 0)
  (-0.0725424 -0.0136987 0)
  (-0.072227 -0.0174191 0)
  (-0.0716452 -0.0233552 0)
  (-0.0696613 -0.0318774 0)
  (-0.0648043 -0.0441012 0)
  (-0.0554207 -0.0590486 0)
  (-0.0374931 -0.0681672 0)
  (0.0144606 -0.0381592 0)
  (-0.126783 0.0656876 0)
  (0.691927 0.355068 0)
  (-0.251871 0.0784918 0)
  (0.0105348 -0.0250119 0)
  (0.0388617 0.00910792 0)
  (0.0268065 0.0276146 0)
  (0.00705793 0.0197811 0)
  (-0.00560568 0.00697654 0)
  (-0.0119242 0.00104225 0)
  (-0.0157163 -0.00162636 0)
  (-0.0173081 -0.00308166 0)
  (-0.0186049 -0.0042469 0)
  (-0.0206739 -0.00584798 0)
  (-0.0242025 -0.00833764 0)
  (-0.0294799 -0.0115592 0)
  (-0.0364416 -0.0147735 0)
  (-0.0444097 -0.0166284 0)
  (-0.0517336 -0.0157235 0)
  (-0.0566518 -0.0123293 0)
  (-0.0586397 -0.00842294 0)
  (-0.0584968 -0.00542016 0)
  (-0.057323 -0.00375674 0)
  (-0.0559293 -0.00333888 0)
  (-0.0548147 -0.00390108 0)
  (-0.054177 -0.00494229 0)
  (-0.0539144 -0.00602976 0)
  (-0.0538866 -0.00708073 0)
  (-0.0540478 -0.00801237 0)
  (-0.0543881 -0.00877454 0)
  (-0.054957 -0.0093673 0)
  (-0.0558961 -0.00987221 0)
  (-0.0574734 -0.010528 0)
  (-0.0601081 -0.0118319 0)
  (-0.0642961 -0.0145814 0)
  (-0.0703796 -0.0197706 0)
  (-0.0784674 -0.0284535 0)
  (-0.0881346 -0.0413241 0)
  (-0.095887 -0.0563231 0)
  (-0.0953097 -0.0627552 0)
  (-0.0997711 -0.0322333 0)
  (-0.182802 0.095195 0)
  (0.783773 0.368609 0)
  (-0.0658399 0.0359062 0)
  (0.0879512 -0.0840618 0)
  (0.136837 -0.0125367 0)
  (0.101143 0.0315014 0)
  (0.0627348 0.0304198 0)
  (0.0449925 0.0174966 0)
  (0.0358065 0.00802673 0)
  (0.028359 0.00248947 0)
  (0.0222522 -0.000666928 0)
  (0.0180589 -0.00232887 0)
  (0.0151412 -0.00336464 0)
  (0.0119494 -0.00458817 0)
  (0.00778251 -0.00629097 0)
  (0.00240451 -0.00826865 0)
  (-0.00396557 -0.00983026 0)
  (-0.0100079 -0.00999794 0)
  (-0.0146704 -0.00875832 0)
  (-0.0174665 -0.00696114 0)
  (-0.0187131 -0.00536427 0)
  (-0.0190117 -0.00434761 0)
  (-0.0189177 -0.0040079 0)
  (-0.0188482 -0.00427181 0)
  (-0.0190326 -0.00490864 0)
  (-0.0195027 -0.00568316 0)
  (-0.0202218 -0.00646855 0)
  (-0.0211595 -0.00716313 0)
  (-0.0222785 -0.00767834 0)
  (-0.0235598 -0.00793419 0)
  (-0.025045 -0.00787882 0)
  (-0.0269044 -0.00754842 0)
  (-0.029539 -0.00717299 0)
  (-0.0336951 -0.00733051 0)
  (-0.0406186 -0.00917964 0)
  (-0.0523323 -0.0146628 0)
  (-0.071043 -0.0260328 0)
  (-0.0953192 -0.0448164 0)
  (-0.119529 -0.071564 0)
  (-0.163111 -0.104651 0)
  (-0.364939 -0.14146 0)
  (0.912119 0.350186 0)
  (0.424271 0.176038 0)
  (0.207598 0.0814816 0)
  (0.256301 0.103669 0)
  (0.168261 0.102074 0)
  (0.102784 0.0739608 0)
  (0.0829417 0.0456258 0)
  (0.0769542 0.0266451 0)
  (0.0714702 0.0153492 0)
  (0.0662541 0.00862488 0)
  (0.0620569 0.00466839 0)
  (0.0583179 0.00236915 0)
  (0.0547622 0.000915514 0)
  (0.050985 -0.000310382 0)
  (0.0468603 -0.0014839 0)
  (0.0422603 -0.00254182 0)
  (0.0376031 -0.00314365 0)
  (0.0335087 -0.00310878 0)
  (0.0303917 -0.00264548 0)
  (0.0282504 -0.00207728 0)
  (0.0268347 -0.00164967 0)
  (0.0258281 -0.00148968 0)
  (0.0249465 -0.0016215 0)
  (0.0239951 -0.00197703 0)
  (0.0228916 -0.00245383 0)
  (0.0215983 -0.00295804 0)
  (0.0201104 -0.00342397 0)
  (0.0184723 -0.00378567 0)
  (0.0167676 -0.00396393 0)
  (0.0151114 -0.00387199 0)
  (0.0136398 -0.00344221 0)
  (0.012496 -0.00268258 0)
  (0.0118202 -0.00177193 0)
  (0.0117086 -0.00121043 0)
  (0.0120096 -0.00190477 0)
  (0.0122369 -0.00458252 0)
  (0.013394 -0.00866801 0)
  (0.0206731 -0.0168307 0)
  (0.0548879 -0.0595459 0)
  (-0.231821 -0.152375 0)
  (-1.48229 0.0682113 0)
  (0.0437076 0.127299 0)
  (0.0244407 0.0924076 0)
  (0.0343978 0.0605874 0)
  (0.063562 0.0388637 0)
  (0.0841394 0.0261802 0)
  (0.0931131 0.0202105 0)
  (0.0965373 0.0180905 0)
  (0.0980037 0.0178129 0)
  (0.0984708 0.0180918 0)
  (0.0980995 0.0181708 0)
  (0.096918 0.0177158 0)
  (0.0948377 0.0166574 0)
  (0.0920371 0.0152011 0)
  (0.0887692 0.0136425 0)
  (0.0854015 0.0122246 0)
  (0.082274 0.0110274 0)
  (0.0795769 0.00998308 0)
  (0.0773132 0.0090268 0)
  (0.0753684 0.00812505 0)
  (0.0736055 0.00723385 0)
  (0.0718992 0.00633739 0)
  (0.0701671 0.00544753 0)
  (0.0683367 0.00461603 0)
  (0.0663764 0.00383958 0)
  (0.0643122 0.00312542 0)
  (0.0622145 0.00249412 0)
  (0.0602005 0.00196015 0)
  (0.058443 0.00149726 0)
  (0.0571674 0.000969571 0)
  (0.0566227 1.40073e-05 0)
  (0.0570002 -0.00210853 0)
  (0.0582626 -0.0065442 0)
  (0.0599873 -0.0144148 0)
  (0.0618724 -0.0261234 0)
  (0.0642815 -0.0428381 0)
  (0.0834689 -0.0732357 0)
  (-0.0472913 -0.126658 0)
  (-0.6389 0.0925896 0)
  (0.21826 0.0441509 0)
  (0.091955 0.00187081 0)
  (0.0777897 -0.0162076 0)
  (0.102274 -0.0346829 0)
  (0.124231 -0.0528447 0)
  (0.135672 -0.0684859 0)
  (0.140436 -0.0809986 0)
  (0.141952 -0.0899623 0)
  (0.141753 -0.0952902 0)
  (0.140543 -0.0974787 0)
  (0.138789 -0.0973662 0)
  (0.136775 -0.0958348 0)
  (0.134616 -0.0935586 0)
  (0.132364 -0.0909754 0)
  (0.13009 -0.0883656 0)
  (0.127886 -0.0859361 0)
  (0.125791 -0.0837898 0)
  (0.123793 -0.0819786 0)
  (0.121858 -0.0805306 0)
  (0.119928 -0.0794203 0)
  (0.117935 -0.0785941 0)
  (0.11582 -0.0779724 0)
  (0.113605 -0.0772701 0)
  (0.111289 -0.0765498 0)
  (0.1089 -0.0758591 0)
  (0.106473 -0.075213 0)
  (0.104062 -0.074617 0)
  (0.10175 -0.0740845 0)
  (0.0996252 -0.0736578 0)
  (0.0977355 -0.0734323 0)
  (0.0959742 -0.0735757 0)
  (0.093919 -0.0743183 0)
  (0.0906739 -0.0758642 0)
  (0.0850029 -0.0782592 0)
  (0.0752054 -0.0814983 0)
  (0.0814796 -0.087313 0)
  (-0.0778625 -0.101399 0)
  (0.522482 0.206248 0)
  (0.278777 -0.15934 0)
  (-0.150436 0.15969 0)
  (0.20904 0.122006 0)
  (0.217582 0.131031 0)
  (0.184164 0.156408 0)
  (0.177958 0.184346 0)
  (0.180874 0.213561 0)
  (0.181293 0.24117 0)
  (0.17948 0.264189 0)
  (0.177869 0.280836 0)
  (0.17731 0.290667 0)
  (0.177597 0.294406 0)
  (0.178353 0.293494 0)
  (0.179282 0.289532 0)
  (0.180156 0.283855 0)
  (0.180817 0.277414 0)
  (0.181179 0.270846 0)
  (0.181209 0.264574 0)
  (0.180893 0.258845 0)
  (0.180232 0.253793 0)
  (0.17923 0.249479 0)
  (0.17789 0.245877 0)
  (0.176223 0.242909 0)
  (0.174254 0.240465 0)
  (0.171986 0.238108 0)
  (0.169491 0.235866 0)
  (0.166793 0.233787 0)
  (0.16389 0.231867 0)
  (0.160759 0.23007 0)
  (0.157338 0.22834 0)
  (0.153502 0.226601 0)
  (0.149004 0.224753 0)
  (0.143405 0.222653 0)
  (0.135978 0.220103 0)
  (0.125595 0.216869 0)
  (0.110741 0.212796 0)
  (0.090024 0.208175 0)
  (0.0887727 0.201215 0)
  (-0.147957 0.247229 0)
)
;

boundaryField
{
  floor
  {
    type noSlip;
  }
  ceiling
  {
    type noSlip;
  }
  sWall
  {
    type noSlip;
  }
  nWall
  {
    type noSlip;
  }
  sideWalls
  {
    type empty;
  }
  glass1
  {
    type noSlip;
  }
  glass2
  {
    type noSlip;
  }
  sun
  {
    type noSlip;
  }
  heatsource1
  {
    type noSlip;
  }
  heatsource2
  {
    type noSlip;
  }
  Table_master
  {
    type noSlip;
  }
  Table_slave
  {
    type noSlip;
  }
  inlet
  {
    type fixedValue;
    value uniform (0.3 0 0);
  }
  outlet
  {
    type zeroGradient;
  }
} 	// ************************************************************************* //

