/*--------------------------------*- C++ -*----------------------------------*\
  =========                 |
  \\      /  F ield         | OpenFOAM: The Open Source CFD Toolbox
   \\    /   O peration     | Website:  https://openfoam.org
    \\  /    A nd           | Version:  6
     \\/     M anipulation  |
\*---------------------------------------------------------------------------*/
FoamFile
{
    version     2.0;
    format      ascii;
    class       volScalarField;
    location    "500";
    object      alphat;
}
// * * * * * * * * * * * * * * * * * * * * * * * * * * * * * * * * * * * * * //

dimensions      [1 -1 -1 0 0 0 0];

internalField   nonuniform List<scalar> 
459
(
0.00217942
0.00275001
0.00281995
0.00270705
0.00257861
0.00245962
0.00235125
0.00225092
0.00216033
0.00207536
0.00199224
0.00190711
0.00181463
0.0017048
0.00157067
0.000762118
0.000901499
0.00102229
0.00113653
0.00120835
0.00121435
0.00114117
0.00105674
0.000981366
0.000915733
0.000857552
0.000804467
0.000754669
0.000706024
0.000655833
0.000601599
0.000540454
0.000461667
0.000406093
0.00208514
0.00469526
0.00538641
0.00543772
0.00525983
0.0050762
0.00492767
0.00480997
0.00466174
0.00447057
0.00422272
0.00389937
0.0034795
0.00294044
0.00227623
0.00156919
0.00140339
0.00080763
0.00193876
0.00256394
0.00327692
0.00393631
0.00414339
0.00284368
0.00231535
0.00196995
0.00173214
0.00156858
0.00145802
0.00135004
0.00121296
0.00105741
0.000927039
0.000873521
0.000718739
0.000483547
0.00293473
0.00550685
0.00590368
0.00572228
0.00552826
0.00548663
0.00555992
0.0056935
0.00578209
0.00575374
0.00556305
0.00519115
0.00464268
0.00394148
0.00314148
0.00235506
0.00144008
0.000862017
0.00244468
0.00258266
0.00338401
0.00438081
0.00471673
0.00147647
0.00129013
0.00111959
0.000969989
0.000842642
0.000739968
0.000667277
0.000620274
0.00058982
0.000655468
0.000774507
0.000786724
0.000529173
0.00334588
0.00742135
0.00674179
0.00593541
0.00574317
0.00603404
0.0065519
0.00696473
0.00711058
0.00699572
0.00666146
0.00614503
0.00548014
0.00470049
0.00384747
0.00298404
0.00198693
0.001418
0.00136438
0.00168836
0.00261415
0.00401903
0.00541562
0.00589885
0.00171509
0.00160296
0.00150895
0.00142991
0.00135938
0.00128982
0.00121609
0.00113388
0.00103607
0.000832184
0.000753001
0.000824633
0.000589681
0.00345301
0.00903243
0.00684031
0.00585905
0.00638976
0.00752008
0.00823283
0.00829405
0.00814261
0.00783272
0.00738054
0.00679537
0.00610304
0.00533827
0.00453694
0.00374649
0.00295398
0.00257927
0.00256992
0.00325441
0.00466715
0.0063543
0.00779361
0.00859757
0.00810153
0.00762163
0.00727599
0.00685478
0.00626211
0.00553768
0.00470736
0.00378169
0.00276668
0.00175557
0.00114744
0.00100501
0.000808255
0.00067266
0.000695541
0.000875567
0.0034787
0.00904557
0.00626761
0.00669362
0.00812086
0.00891549
0.00911691
0.00896539
0.00870278
0.00836183
0.00793489
0.00739167
0.0067664
0.00610867
0.0054501
0.00487341
0.00441734
0.00449043
0.00529555
0.00684874
0.00859646
0.0100573
0.0109818
0.0113122
0.0111302
0.0107785
0.0102696
0.00954207
0.00860776
0.00750332
0.00626578
0.00493031
0.00354459
0.00226563
0.00145871
0.00119854
0.00107279
0.0011326
0.00151784
0.00114738
0.00345422
0.0077019
0.00544538
0.00672837
0.00856143
0.00945097
0.00963475
0.00955026
0.00933518
0.00905129
0.00871304
0.00832196
0.00789083
0.00744305
0.00703159
0.00685701
0.00705543
0.00805624
0.00971781
0.0113653
0.0125938
0.0132827
0.0134354
0.0131468
0.0126069
0.0119615
0.0111832
0.0102271
0.00908913
0.00780681
0.00641935
0.00498654
0.00360027
0.00243507
0.00168836
0.00137932
0.00125815
0.00144757
0.00231513
0.00155478
0.00336167
0.00592475
0.00516785
0.00707848
0.00817161
0.00910852
0.00946035
0.00963831
0.00974882
0.00977565
0.00970569
0.00958042
0.00944921
0.00936799
0.00942142
0.00977943
0.010624
0.0119828
0.013407
0.0143901
0.0147958
0.0146908
0.0141795
0.0133593
0.0124225
0.0114918
0.0105395
0.00949819
0.00834707
0.00710972
0.00583453
0.00459423
0.00348382
0.00261712
0.00205405
0.00175229
0.00161494
0.00188972
0.0045477
0.00265439
0.00314895
0.00347592
0.00471799
0.00884774
0.0086197
0.00895588
0.00920546
0.00946504
0.00974632
0.01003
0.0102892
0.0105002
0.0107175
0.0110159
0.0114613
0.0121198
0.0130016
0.0139421
0.0146221
0.0148125
0.014482
0.0137316
0.0127111
0.0116055
0.0105415
0.00956131
0.00862585
0.00768795
0.00673956
0.00580999
0.0049482
0.00420776
0.00363004
0.00322905
0.00297597
0.00282683
0.00275858
0.00338206
0.00717605
0.00310403
0.00347558
0.0100981
0.00966506
0.00955733
0.00967295
0.0098983
0.0101803
0.0104955
0.0108262
0.0111487
0.0114491
0.0118027
0.0122211
0.0126759
0.013085
0.0133022
0.0131994
0.0127476
0.0120294
0.0111786
0.0103156
0.00952196
0.00882551
0.0082133
0.00765957
0.00715217
0.00669792
0.00631394
0.00601663
0.00581298
0.00569407
0.00563049
0.00557238
0.00545935
0.00528899
0.00567792
0.00813903
0.00278962
0.0032203
0.0103282
0.0107487
0.0104193
0.0102766
0.0102888
0.0103697
0.0104701
0.0105643
0.0106378
0.0106889
0.0107866
0.010925
0.0110701
0.0111655
0.0111469
0.010978
0.0106737
0.0102876
0.0098794
0.00949218
0.00914557
0.00884065
0.00857237
0.00833763
0.00813894
0.0079832
0.00787789
0.00782702
0.00782681
0.00786045
0.00789171
0.00786085
0.00769577
0.0073801
0.00710461
0.00656091
0.0024174
0.00111425
0.00175241
0.00233908
0.00246213
0.00241488
0.00236576
0.00234651
0.00234118
0.00234157
0.00234562
0.00235416
0.00236964
0.00239557
0.00242278
0.00244808
0.00246757
0.00247704
0.00247335
0.00245665
0.00243059
0.00240064
0.00237152
0.00234587
0.00232455
0.00230743
0.00229411
0.00228435
0.00227824
0.00227603
0.00227786
0.00228347
0.00229182
0.00230072
0.00230698
0.00230906
0.0023147
0.0023435
0.00239775
0.00238708
0.00209665
)
;

boundaryField
{
    floor
    {
        type            compressible::alphatWallFunction;
        Prt             0.85;
        value           nonuniform List<scalar> 
29
(
0.000220702
0.000108564
0.000128627
0.000145712
0.000161657
0.000171581
0.000172407
0.000162291
0.000150529
0.000139938
0.000130636
0.000122324
0.000114679
0.000107451
0.000100333
9.29239e-05
8.48404e-05
7.56231e-05
6.35593e-05
5.49592e-05
5.49585e-05
6.70446e-05
7.40386e-05
8.3189e-05
0.0002207
0.000108562
0.000115187
0.000123031
0.000200175
)
;
    }
    ceiling
    {
        type            compressible::alphatWallFunction;
        Prt             0.85;
        value           nonuniform List<scalar> 
43
(
0.000159519
0.000245601
0.000321552
0.00033728
0.000331256
0.000324977
0.000322511
0.000321828
0.000321877
0.000322395
0.000323487
0.000325469
0.000328785
0.000332262
0.000335493
0.000337983
0.000339193
0.000338729
0.000336606
0.000333287
0.000329465
0.000325744
0.000322461
0.000319729
0.000317533
0.000315823
0.000314569
0.000313783
0.000313498
0.000313733
0.000314454
0.000315529
0.000316676
0.000317484
0.000317757
0.000318482
0.000322172
0.000329106
0.000327734
0.000290345
0.000423217
0.000463574
0.000432364
)
;
    }
    sWall
    {
        type            compressible::alphatWallFunction;
        Prt             0.85;
        value           uniform 0.000159042;
    }
    nWall
    {
        type            compressible::alphatWallFunction;
        Prt             0.85;
        value           nonuniform List<scalar> 6(0.00012505 0.000163358 0.000218895 0.000378637 0.000331469 0.000290212);
    }
    sideWalls
    {
        type            empty;
    }
    glass1
    {
        type            compressible::alphatWallFunction;
        Prt             0.85;
        value           nonuniform List<scalar> 9(0.000296018 0.000284067 0.000391106 0.000441448 0.000454418 0.000457421 0.000454272 0.00044273 0.000416275);
    }
    glass2
    {
        type            compressible::alphatWallFunction;
        Prt             0.85;
        value           nonuniform List<scalar> 2(0.000363247 0.000419798);
    }
    sun
    {
        type            compressible::alphatWallFunction;
        Prt             0.85;
        value           nonuniform List<scalar> 
14
(
0.000300595
0.00037334
0.000382108
0.0003679
0.000351661
0.00033654
0.000322699
0.000309824
0.000298146
0.000287144
0.000276335
0.000265213
0.00025307
0.000238562
)
;
    }
    heatsource1
    {
        type            compressible::alphatWallFunction;
        Prt             0.85;
        value           nonuniform List<scalar> 3(9.53138e-05 9.86989e-05 0.000124794);
    }
    heatsource2
    {
        type            compressible::alphatWallFunction;
        Prt             0.85;
        value           nonuniform List<scalar> 4(0.000220411 0.00019809 0.000198087 0.00020305);
    }
    Table_master
    {
        type            compressible::alphatWallFunction;
        Prt             0.85;
        value           nonuniform List<scalar> 9(0.000207894 0.000182602 0.000159087 0.000138119 0.000119977 0.000105121 9.44624e-05 8.74904e-05 8.29325e-05);
    }
    Table_slave
    {
        type            compressible::alphatWallFunction;
        Prt             0.85;
        value           nonuniform List<scalar> 9(0.000239773 0.000224869 0.000212283 0.000201633 0.000192076 0.000182593 0.000172478 0.000161116 0.000147471);
    }
    inlet
    {
        type            fixedValue;
        value           uniform 1.94e-05;
    }
    outlet
    {
        type            zeroGradient;
    }
}


// ************************************************************************* //
