/*--------------------------------*- C++ -*----------------------------------*\
  =========                 |
  \\      /  F ield         | OpenFOAM: The Open Source CFD Toolbox
   \\    /   O peration     | Website:  https://openfoam.org
    \\  /    A nd           | Version:  6
     \\/     M anipulation  |
\*---------------------------------------------------------------------------*/
FoamFile
{
    version     2.0;
    format      ascii;
    class       volScalarField;
    location    "500";
    object      nut;
}
// * * * * * * * * * * * * * * * * * * * * * * * * * * * * * * * * * * * * * //

dimensions      [0 2 -1 0 0 0 0];

internalField   nonuniform List<scalar> 
459
(
0.00189675
0.00239104
0.00245197
0.00235427
0.00224297
0.00213977
0.00204573
0.00195863
0.00187999
0.00180622
0.00173407
0.00166016
0.00157984
0.00148443
0.00136789
0.000668561
0.000790317
0.000895763
0.000995497
0.00105835
0.00106379
0.00099992
0.000926189
0.000860377
0.000803076
0.000752285
0.000705938
0.000662446
0.000619934
0.000576027
0.000528525
0.000474906
0.000405738
0.000356975
0.00181623
0.0040815
0.00468285
0.00472959
0.00457674
0.00441828
0.00428988
0.00418804
0.00405951
0.00389347
0.00367796
0.00339657
0.00303098
0.00256144
0.00198285
0.00136715
0.00122305
0.000708687
0.00169989
0.00224529
0.0028684
0.00344568
0.00362771
0.00249042
0.00202837
0.0017264
0.00151858
0.00137575
0.00127932
0.00118506
0.00106515
0.00092887
0.000814574
0.000767716
0.000631772
0.000425128
0.00255135
0.00478431
0.00513219
0.00497971
0.00481501
0.00478138
0.00484672
0.0049642
0.00504197
0.00501735
0.00485087
0.00452618
0.00404745
0.00343564
0.00273789
0.00205251
0.00125524
0.000756309
0.00214103
0.0022598
0.00296033
0.00383313
0.00412858
0.00129269
0.00112994
0.000980988
0.000850343
0.000739139
0.00064947
0.000585984
0.000544937
0.000518337
0.00057613
0.000680855
0.000691656
0.000465305
0.0029049
0.00644324
0.00586376
0.00517363
0.00501335
0.00527115
0.00572523
0.00608583
0.0062119
0.00610977
0.00581604
0.00536346
0.00478164
0.00410009
0.00335505
0.0026017
0.00173227
0.00123649
0.0011917
0.00147496
0.00228429
0.0035136
0.00473771
0.00516391
0.00150225
0.00140459
0.00132266
0.00125377
0.00119231
0.00113165
0.00106729
0.000995467
0.000909913
0.000731257
0.000661934
0.000725051
0.00051856
0.00299608
0.00783969
0.00595773
0.00512145
0.0055946
0.006587
0.00720961
0.00725951
0.00712331
0.00684886
0.00645047
0.00593635
0.00532922
0.0046595
0.00395858
0.00326806
0.00257643
0.00224983
0.00224259
0.00284117
0.00407753
0.00555679
0.00682221
0.00753264
0.00710312
0.00668587
0.0063855
0.00601815
0.0054996
0.00486473
0.0041363
0.00332359
0.00243193
0.0015434
0.00100894
0.000883809
0.00071084
0.000591675
0.00061204
0.000772021
0.00301641
0.00784815
0.00546439
0.00586713
0.00712445
0.00782018
0.00799309
0.00785569
0.00762119
0.00731856
0.00694114
0.00646244
0.00591274
0.00533552
0.00475835
0.00425369
0.0038551
0.00391944
0.00462425
0.00598529
0.00752056
0.0088085
0.0096283
0.00992655
0.00977323
0.00946914
0.0090255
0.00838844
0.00756878
0.00659886
0.00551128
0.00433705
0.00311822
0.00199306
0.0012832
0.00105436
0.000943729
0.000996499
0.00133615
0.00101244
0.0029927
0.00667707
0.00474599
0.00590447
0.00751946
0.00829859
0.00845577
0.0083768
0.00818317
0.0079297
0.00762907
0.00728266
0.00690178
0.00650697
0.0061447
0.00599089
0.00616445
0.00704208
0.0085018
0.00995395
0.0110426
0.0116591
0.0118038
0.0115582
0.0110891
0.0105249
0.00984187
0.00900169
0.00800097
0.00687275
0.00565158
0.00439017
0.00316955
0.0021435
0.00148603
0.00121397
0.00110718
0.00127406
0.00203935
0.00137244
0.00290909
0.00512617
0.00449046
0.00621587
0.00718566
0.00800785
0.00831319
0.008465
0.00855719
0.00857566
0.00850958
0.00839547
0.00827668
0.00820231
0.00824682
0.00855999
0.00930268
0.0105012
0.0117622
0.0126383
0.0130072
0.0129254
0.0124839
0.0117668
0.0109441
0.0101252
0.00928659
0.00836943
0.0073553
0.00626502
0.00514123
0.00404808
0.00306938
0.00230545
0.00180918
0.00154322
0.00142189
0.00166399
0.00400723
0.00234141
0.00271993
0.0029938
0.00406187
0.00776982
0.00758874
0.00788474
0.00810129
0.00832599
0.00856945
0.00881477
0.00903832
0.00922003
0.00940787
0.00966789
0.0100585
0.0106388
0.0114193
0.012256
0.0128664
0.0130452
0.0127625
0.0121069
0.0112107
0.0102372
0.00929909
0.00843453
0.00760925
0.00678181
0.00594509
0.00512495
0.00436457
0.00371122
0.00320138
0.00284741
0.00262389
0.002492
0.00243112
0.00298035
0.00632675
0.00273875
0.00294605
0.00886905
0.00851818
0.00842543
0.00852538
0.00872141
0.00896723
0.00924226
0.00953097
0.00981271
0.0100758
0.010387
0.0107568
0.0111609
0.0115271
0.011726
0.0116428
0.0112503
0.0106203
0.00987144
0.00911044
0.00840994
0.00779483
0.007254
0.00676478
0.00631649
0.00591514
0.00557586
0.00531308
0.00513298
0.00502764
0.00497104
0.00491913
0.00481852
0.00466694
0.00500913
0.00718175
0.00246227
0.00282805
0.00910584
0.00948589
0.00919604
0.00906901
0.00907847
0.00914866
0.00923628
0.00931872
0.00938335
0.00942863
0.00951587
0.00963993
0.00977084
0.00985864
0.00984605
0.00970021
0.00943393
0.0090943
0.00873428
0.0083923
0.0080859
0.0078162
0.00757884
0.00737109
0.00719521
0.00705729
0.00696394
0.00691866
0.0069181
0.00694733
0.00697429
0.00694613
0.00679906
0.00651873
0.00627423
0.00579432
0.0021349
0.00102288
0.00157918
0.00206719
0.00217552
0.00213401
0.00209064
0.00207361
0.00206892
0.00206933
0.002073
0.00208068
0.00209453
0.00211764
0.00214196
0.00216465
0.00218226
0.00219102
0.00218812
0.00217363
0.00215078
0.00212439
0.00209867
0.00207598
0.00205708
0.00204189
0.00203005
0.00202136
0.00201588
0.00201385
0.00201538
0.00202024
0.00202749
0.0020352
0.00204052
0.0020421
0.00204676
0.00207187
0.00211953
0.00211003
0.00185319
)
;

boundaryField
{
    floor
    {
        type            nutkWallFunction;
        Cmu             0.09;
        kappa           0.41;
        E               9.8;
        value           nonuniform List<scalar> 
29
(
0.000163304
8.08009e-05
9.56996e-05
0.000108378
0.00012021
0.000127591
0.000128225
0.000120721
0.00011199
0.000104129
9.72255e-05
9.10564e-05
8.53818e-05
8.00151e-05
7.47263e-05
6.92171e-05
6.32005e-05
5.63335e-05
4.73393e-05
4.09309e-05
4.09308e-05
4.99555e-05
5.51824e-05
6.20194e-05
0.000163304
8.08009e-05
8.57586e-05
9.15958e-05
0.00014828
)
;
    }
    ceiling
    {
        type            nutkWallFunction;
        Cmu             0.09;
        kappa           0.41;
        E               9.8;
        value           nonuniform List<scalar> 
43
(
0.000123589
0.000187447
0.000241153
0.000252919
0.000248422
0.00024371
0.000241857
0.000241346
0.000241389
0.000241788
0.000242623
0.00024413
0.000246642
0.000249283
0.000251746
0.000253658
0.00025461
0.0002543
0.000252736
0.000250263
0.000247401
0.000244608
0.00024214
0.000240082
0.000238426
0.000237134
0.000236185
0.000235586
0.000235363
0.00023553
0.000236061
0.000236855
0.000237698
0.000238282
0.000238459
0.000238969
0.000241702
0.000246879
0.000245841
0.000217742
0.000310678
0.000339383
0.000322432
)
;
    }
    sWall
    {
        type            nutkWallFunction;
        Cmu             0.09;
        kappa           0.41;
        E               9.8;
        value           uniform 0.000123598;
    }
    nWall
    {
        type            nutkWallFunction;
        Cmu             0.09;
        kappa           0.41;
        E               9.8;
        value           nonuniform List<scalar> 6(9.35297e-05 0.000122301 0.000163993 0.000283806 0.000248548 0.000217749);
    }
    sideWalls
    {
        type            empty;
    }
    glass1
    {
        type            nutkWallFunction;
        Cmu             0.09;
        kappa           0.41;
        E               9.8;
        value           nonuniform List<scalar> 9(0.000222531 0.000213679 0.00029334 0.0003306 0.000340138 0.000342258 0.000339775 0.000331012 0.000311099);
    }
    glass2
    {
        type            nutkWallFunction;
        Cmu             0.09;
        kappa           0.41;
        E               9.8;
        value           nonuniform List<scalar> 2(0.000270781 0.0003131);
    }
    sun
    {
        type            nutkWallFunction;
        Cmu             0.09;
        kappa           0.41;
        E               9.8;
        value           nonuniform List<scalar> 
14
(
0.000222299
0.000275862
0.000282354
0.000271904
0.000259943
0.000248797
0.000238589
0.000229088
0.000220472
0.000212354
0.000204378
0.00019617
0.000187207
0.000176494
)
;
    }
    heatsource1
    {
        type            nutkWallFunction;
        Cmu             0.09;
        kappa           0.41;
        E               9.8;
        value           nonuniform List<scalar> 3(7.12619e-05 7.38216e-05 9.35289e-05);
    }
    heatsource2
    {
        type            nutkWallFunction;
        Cmu             0.09;
        kappa           0.41;
        E               9.8;
        value           nonuniform List<scalar> 4(0.000163225 0.000146738 0.000146738 0.00015044);
    }
    Table_master
    {
        type            nutkWallFunction;
        Cmu             0.09;
        kappa           0.41;
        E               9.8;
        value           nonuniform List<scalar> 9(0.000154715 0.00013594 0.000118485 0.000102922 8.94551e-05 7.84258e-05 7.05119e-05 6.53351e-05 6.195e-05);
    }
    Table_slave
    {
        type            nutkWallFunction;
        Cmu             0.09;
        kappa           0.41;
        E               9.8;
        value           nonuniform List<scalar> 9(0.000178512 0.000167483 0.000158162 0.000150275 0.000143197 0.00013617 0.000128667 0.00012023 0.000110086);
    }
    inlet
    {
        type            calculated;
        value           uniform 0.000100623;
    }
    outlet
    {
        type            calculated;
        value           nonuniform List<scalar> 2(0.00102288 0.00157918);
    }
}


// ************************************************************************* //
