/*--------------------------------*- C++ -*----------------------------------*\
  =========                 |
  \\      /  F ield         | OpenFOAM: The Open Source CFD Toolbox
   \\    /   O peration     | Website:  https://openfoam.org
    \\  /    A nd           | Version:  6
     \\/     M anipulation  |
\*---------------------------------------------------------------------------*/
FoamFile
{
    version     2.0;
    format      ascii;
    class       volScalarField;
    location    "200";
    object      nut;
}
// * * * * * * * * * * * * * * * * * * * * * * * * * * * * * * * * * * * * * //

dimensions      [0 2 -1 0 0 0 0];

internalField   nonuniform List<scalar> 
459
(
0.000742456
0.000753041
0.000644092
0.000661707
0.00068665
0.000711548
0.000735879
0.000760011
0.000784817
0.000809988
0.000831491
0.000848109
0.000859069
0.000863891
0.000858075
0.000382214
0.000417599
0.000426599
0.000347319
0.000267343
0.000238404
0.00023244
0.000233315
0.000238286
0.00025776
0.000285594
0.000316906
0.000349336
0.000382428
0.000426289
0.000476459
0.000505329
0.000495616
0.000440422
0.0013399
0.00243351
0.00151167
0.0021853
0.00239215
0.00256541
0.00274602
0.0029169
0.00305443
0.00314433
0.00317887
0.0031256
0.00293166
0.00251191
0.0017876
0.000932566
0.000640473
0.000510302
0.00111606
0.00129594
0.00131995
0.00116785
0.000641236
0.00033203
0.000304265
0.000367872
0.000511714
0.000713058
0.00093643
0.0011752
0.00140228
0.00158987
0.00182101
0.00172442
0.00166927
0.000557391
0.00186156
0.0042891
0.00167979
0.0029089
0.00360443
0.00383953
0.0040227
0.00417848
0.00429474
0.00436652
0.00437634
0.00428419
0.0040279
0.00352752
0.0027449
0.00182057
0.00101189
0.00090467
0.0024718
0.00227866
0.00201366
0.00158398
0.00109658
0.000408204
0.000307948
0.000353719
0.000401638
0.000450771
0.00050398
0.000564496
0.000637453
0.000731393
0.00176693
0.00158516
0.00125464
0.000727166
0.00233857
0.0064696
0.00222785
0.00284464
0.00418863
0.00454093
0.00473235
0.00489652
0.00503664
0.00514136
0.00522396
0.00524824
0.00514049
0.00478661
0.00406299
0.00297094
0.00182909
0.00116496
0.00291591
0.00296574
0.00270475
0.00217649
0.00165139
0.00115062
0.000756001
0.000760737
0.000766748
0.000772315
0.000778213
0.000786498
0.000800689
0.000826987
0.000894302
0.00262999
0.00325598
0.00327701
0.00109997
0.00276587
0.0086592
0.00328826
0.002603
0.00420238
0.00473315
0.00494964
0.00512242
0.00528354
0.00543856
0.00564798
0.0059076
0.00617508
0.00638645
0.00646165
0.00633212
0.00600054
0.00558581
0.005513
0.00522489
0.00486195
0.00453761
0.00426401
0.00404611
0.00388192
0.00380446
0.003726
0.00364471
0.00357448
0.00353828
0.00355807
0.00364482
0.0037981
0.00401677
0.00414586
0.0040831
0.00351832
0.00148965
0.0013227
0.00115279
0.00315561
0.0104968
0.00508475
0.00284871
0.00362331
0.00431399
0.00465703
0.00487167
0.00501997
0.00515591
0.00542382
0.00580829
0.0062798
0.00678628
0.00724682
0.00756352
0.00765083
0.00750261
0.00721548
0.00684625
0.00647363
0.00614814
0.00587437
0.00563924
0.00542053
0.00520169
0.00497143
0.0047354
0.00451561
0.00434707
0.00425943
0.00425525
0.00430387
0.00435094
0.00435805
0.00427061
0.00392378
0.00316339
0.00237262
0.00120564
0.00350124
0.0117257
0.00783839
0.00451986
0.00333657
0.00353636
0.00405822
0.00443998
0.00457718
0.00469005
0.0049083
0.0052458
0.00571732
0.00630543
0.00693498
0.0074844
0.00782203
0.00790544
0.0077915
0.00756776
0.00731074
0.00706429
0.00683844
0.00662495
0.00640522
0.00616368
0.00589144
0.00558647
0.00526109
0.00494823
0.00468535
0.00448572
0.00433317
0.00419176
0.00400511
0.00370982
0.00325073
0.00267064
0.00209531
0.00117895
0.00354966
0.0112729
0.00930567
0.00753799
0.00555369
0.00443775
0.00425768
0.00446713
0.00451716
0.00451916
0.0045717
0.00470485
0.00495459
0.00536093
0.00592564
0.00657087
0.00709742
0.00740784
0.00752644
0.00751192
0.00742938
0.00732664
0.00722677
0.00713353
0.00703781
0.00692604
0.00678321
0.00659354
0.00634784
0.00606379
0.00577283
0.00544381
0.0050658
0.00464024
0.00418816
0.00373753
0.003326
0.00291114
0.00252869
0.00148856
0.0034121
0.00399195
0.0066492
0.00707284
0.00643103
0.00563245
0.00504744
0.00470309
0.00448917
0.00437305
0.00432574
0.00432671
0.00438099
0.00451974
0.00478702
0.00519684
0.00567573
0.00611162
0.006436
0.00664132
0.00675822
0.00682611
0.00687676
0.00693076
0.00699993
0.0070894
0.00719343
0.00729704
0.00736635
0.00734478
0.00719398
0.0069891
0.00680448
0.00671742
0.006747
0.00664055
0.00581711
0.00484671
0.00472472
0.00165722
0.0125656
0.0131867
0.00842411
0.0067448
0.00582844
0.00524693
0.00485235
0.00456538
0.00434297
0.00416777
0.00403385
0.00394751
0.00392821
0.00400311
0.00418614
0.00445714
0.00476638
0.00506286
0.00531861
0.00553127
0.00571333
0.00588228
0.00605689
0.00625803
0.00650539
0.00680756
0.00714301
0.00741597
0.00753331
0.00750981
0.00740135
0.00728149
0.00719195
0.00707914
0.00670482
0.00582998
0.0053061
0.00161929
0.00553328
0.0118423
0.00844086
0.00686767
0.00592179
0.0052572
0.00475985
0.00436757
0.00402865
0.00372849
0.00346895
0.00325162
0.00307966
0.00295943
0.00289981
0.00290848
0.00298636
0.00312423
0.00330458
0.00350716
0.0037152
0.0039198
0.00412239
0.00433632
0.00458697
0.00490677
0.00531632
0.00578071
0.00617644
0.00644014
0.00655118
0.00653108
0.0064105
0.00617793
0.00564398
0.00481839
0.00430614
0.00142972
0.002749
0.00339031
0.00432212
0.00399448
0.0032952
0.00282165
0.00247386
0.00220343
0.00198493
0.00180336
0.00165215
0.00152398
0.00141301
0.0013157
0.00122991
0.00115429
0.00108808
0.00103082
0.000982231
0.000942042
0.000909898
0.000885322
0.000867747
0.00085662
0.000851562
0.000852602
0.000860504
0.000877038
0.00090474
0.000948383
0.00101403
0.00109391
0.00117218
0.00123218
0.00126328
0.00126075
0.00123904
0.00120641
0.00119654
0.00112533
)
;

boundaryField
{
    floor
    {
        type            nutkWallFunction;
        Cmu             0.09;
        kappa           0.41;
        E               9.8;
        value           nonuniform List<scalar> 
29
(
0.000103877
4.44562e-05
4.91049e-05
5.02785e-05
3.98176e-05
2.8942e-05
2.49034e-05
2.40624e-05
2.41844e-05
2.48844e-05
2.76089e-05
3.14555e-05
3.57231e-05
4.00849e-05
4.44822e-05
5.02362e-05
5.67268e-05
6.04225e-05
5.91811e-05
5.20725e-05
5.20725e-05
6.70201e-05
8.80567e-05
0.000132409
0.000103877
4.44561e-05
6.10567e-05
0.000109435
0.000139942
)
;
    }
    ceiling
    {
        type            nutkWallFunction;
        Cmu             0.09;
        kappa           0.41;
        E               9.8;
        value           nonuniform List<scalar> 
43
(
0.00031375
0.000380617
0.000475562
0.000442379
0.000370711
0.00032132
0.000284509
0.000255513
0.000231813
0.000211906
0.000195163
0.00018084
0.000168332
0.000157275
0.000147451
0.000138728
0.000131037
0.000124343
0.00011863
0.000113879
0.000110064
0.000107136
0.000105037
0.000103706
0.000103101
0.000103227
0.000104175
0.000106154
0.000109458
0.000114639
0.000122381
0.000131724
0.000140802
0.000147714
0.000151281
0.000150992
0.0001485
0.000144747
0.000143608
0.00013537
0.000382806
0.000442084
0.000596023
)
;
    }
    sWall
    {
        type            nutkWallFunction;
        Cmu             0.09;
        kappa           0.41;
        E               9.8;
        value           uniform 0.000313817;
    }
    nWall
    {
        type            nutkWallFunction;
        Cmu             0.09;
        kappa           0.41;
        E               9.8;
        value           nonuniform List<scalar> 6(0.000138551 0.000144656 0.000141578 0.000191494 0.000170221 0.00013538);
    }
    sideWalls
    {
        type            empty;
    }
    glass1
    {
        type            nutkWallFunction;
        Cmu             0.09;
        kappa           0.41;
        E               9.8;
        value           nonuniform List<scalar> 9(8.98993e-05 0.00016021 0.000218597 0.000270413 0.000315871 0.000356695 0.000392463 0.000397459 0.000383311);
    }
    glass2
    {
        type            nutkWallFunction;
        Cmu             0.09;
        kappa           0.41;
        E               9.8;
        value           nonuniform List<scalar> 2(0.000176925 0.000195805);
    }
    sun
    {
        type            nutkWallFunction;
        Cmu             0.09;
        kappa           0.41;
        E               9.8;
        value           nonuniform List<scalar> 
14
(
8.992e-05
9.12085e-05
7.78416e-05
8.00198e-05
8.30925e-05
8.61464e-05
8.91184e-05
9.20546e-05
9.50614e-05
9.81009e-05
0.000100689
0.000102683
0.000103996
0.000104573
)
;
    }
    heatsource1
    {
        type            nutkWallFunction;
        Cmu             0.09;
        kappa           0.41;
        E               9.8;
        value           nonuniform List<scalar> 3(0.000176947 0.000158049 0.000138539);
    }
    heatsource2
    {
        type            nutkWallFunction;
        Cmu             0.09;
        kappa           0.41;
        E               9.8;
        value           nonuniform List<scalar> 4(0.000112748 7.73974e-05 7.73973e-05 0.000122106);
    }
    Table_master
    {
        type            nutkWallFunction;
        Cmu             0.09;
        kappa           0.41;
        E               9.8;
        value           nonuniform List<scalar> 9(4.78878e-05 3.45307e-05 4.06861e-05 4.70225e-05 5.34211e-05 6.02533e-05 6.7917e-05 7.70253e-05 8.85725e-05);
    }
    Table_slave
    {
        type            nutkWallFunction;
        Cmu             0.09;
        kappa           0.41;
        E               9.8;
        value           nonuniform List<scalar> 9(9.15696e-05 9.2145e-05 9.28748e-05 9.35501e-05 9.4265e-05 9.52678e-05 9.69821e-05 0.00010015 0.000108203);
    }
    inlet
    {
        type            calculated;
        value           uniform 0.0125656;
    }
    outlet
    {
        type            calculated;
        value           nonuniform List<scalar> 2(0.002749 0.00339031);
    }
}


// ************************************************************************* //
