/*--------------------------------*- C++ -*----------------------------------*\
  =========                 |
  \\      /  F ield         | OpenFOAM: The Open Source CFD Toolbox
   \\    /   O peration     | Website:  https://openfoam.org
    \\  /    A nd           | Version:  6
     \\/     M anipulation  |
\*---------------------------------------------------------------------------*/
FoamFile
{
    version     2.0;
    format      ascii;
    class       volScalarField;
    location    "900";
    object      nut;
}
// * * * * * * * * * * * * * * * * * * * * * * * * * * * * * * * * * * * * * //

dimensions      [0 2 -1 0 0 0 0];

internalField   nonuniform List<scalar> 
459
(
0.00106838
0.00116459
0.00118606
0.00124258
0.00129504
0.00134461
0.00139398
0.00144054
0.0014727
0.00148407
0.00146869
0.00142236
0.00134297
0.00123259
0.00110412
0.000464703
0.000553757
0.000625474
0.00063274
0.000615475
0.000589978
0.000553862
0.000516885
0.000483196
0.00045334
0.000426957
0.000403573
0.000382826
0.000364262
0.000347215
0.00033085
0.000314039
0.000304377
0.000279335
0.00145634
0.00345635
0.00327008
0.00379234
0.00430355
0.00481501
0.00525616
0.00560265
0.00592282
0.00618662
0.00635803
0.00640067
0.00627163
0.00586886
0.0047595
0.00112372
0.000705557
0.000483758
0.00102128
0.00143578
0.00175404
0.00194489
0.00195571
0.00154043
0.00132182
0.00116731
0.0010496
0.000956681
0.000881432
0.000817099
0.000757383
0.000699735
0.000648615
0.000603404
0.000724244
0.000373954
0.00177898
0.00469006
0.00398668
0.00496075
0.0054048
0.00572831
0.00598243
0.00621016
0.00647262
0.00675445
0.00702209
0.00722548
0.0073203
0.00722977
0.00673622
0.00515379
0.00116494
0.000901058
0.00132038
0.00173027
0.0021348
0.0024391
0.00241053
0.000785995
0.000694811
0.000620842
0.00056087
0.000511901
0.000471548
0.000438054
0.000410283
0.000387775
0.000419739
0.00048499
0.000823099
0.000438568
0.00208884
0.00600023
0.00393939
0.00517766
0.00550795
0.00558942
0.00566401
0.00579892
0.00602209
0.00631741
0.00665252
0.00695549
0.00717793
0.00725437
0.0071397
0.00656642
0.00436779
0.00135971
0.00163451
0.00209455
0.0026047
0.00306444
0.0033838
0.00322107
0.000890729
0.000815489
0.000762281
0.000721984
0.00068744
0.000654626
0.000622913
0.00058929
0.000549911
0.00051511
0.000521637
0.000966325
0.00048874
0.00240445
0.00770644
0.00426214
0.00494487
0.00539568
0.00534839
0.00531496
0.0054215
0.00562996
0.00593192
0.00630196
0.00663401
0.00685867
0.00693524
0.00686951
0.00663907
0.0060708
0.00515165
0.00484355
0.00480469
0.00486552
0.00493382
0.00494856
0.00479396
0.0040704
0.00372239
0.00352106
0.00336402
0.00319656
0.00295815
0.00262455
0.00221505
0.00176069
0.00131346
0.000971381
0.000972948
0.000667036
0.000603496
0.000725374
0.000814991
0.00273928
0.00957637
0.00585681
0.00479606
0.00523945
0.00538285
0.00524588
0.00533879
0.00551001
0.00578963
0.0061496
0.00649491
0.00671551
0.00674987
0.00662018
0.00641718
0.00623634
0.00613073
0.00615407
0.00619197
0.00617227
0.00608605
0.00593642
0.00571091
0.00536996
0.00506444
0.00479514
0.00453922
0.00428234
0.00401153
0.00366636
0.00322953
0.00270194
0.002119
0.00159952
0.00118005
0.000919364
0.00079247
0.00113006
0.000853958
0.00305319
0.0109258
0.0083885
0.00608294
0.00569519
0.0057189
0.00556944
0.00548783
0.00557266
0.00583942
0.00621814
0.00657912
0.00678559
0.00676739
0.0065686
0.0063514
0.00632029
0.00652131
0.00674997
0.00682158
0.00671503
0.00648134
0.00616394
0.00579277
0.00540025
0.00504282
0.00472548
0.00443853
0.00417931
0.00395174
0.00375382
0.00348139
0.00308202
0.00258404
0.00209997
0.00165635
0.00135305
0.00127848
0.00132189
0.000987672
0.00312076
0.00990933
0.00859736
0.00761884
0.00702912
0.00635525
0.00580028
0.00557446
0.00568617
0.00604459
0.00649861
0.00687413
0.00702145
0.00689742
0.0066081
0.00640465
0.00652084
0.0068325
0.00694703
0.00680196
0.00646987
0.00602245
0.00552318
0.0050351
0.00461024
0.00426704
0.00399137
0.00376983
0.00359955
0.00348396
0.00342799
0.00340774
0.00322804
0.00291846
0.00264757
0.00252889
0.00268323
0.00314163
0.0038229
0.00152043
0.00304522
0.00363523
0.00410535
0.00425293
0.00426396
0.00436894
0.00466362
0.00517148
0.005841
0.00653637
0.00709334
0.00737162
0.00727691
0.00688699
0.00649862
0.00643549
0.00651033
0.00650839
0.00629962
0.00589548
0.00536442
0.00479066
0.00425689
0.00381926
0.00348956
0.00324613
0.00306037
0.00291208
0.00278814
0.0026782
0.00257375
0.00247307
0.00239322
0.00233575
0.00231749
0.00232828
0.00230587
0.00219789
0.00204366
0.00141561
0.00183497
0.00327034
0.00454501
0.00560635
0.00646333
0.00722296
0.0077936
0.00805955
0.00799175
0.0076129
0.00695707
0.00624899
0.00583403
0.0056821
0.00551483
0.00520128
0.00474713
0.00421989
0.00369532
0.00323619
0.00288598
0.00264234
0.00247951
0.00237055
0.00229673
0.00224712
0.0022158
0.00220016
0.00220217
0.00222514
0.00225594
0.00229123
0.00232239
0.00232316
0.00225311
0.0021034
0.00188338
0.00115856
0.00213461
0.00459569
0.00630604
0.00709864
0.00762459
0.00797159
0.00786125
0.00730165
0.00650106
0.00567306
0.00498855
0.00450135
0.00418288
0.00389401
0.00353792
0.0031289
0.00272242
0.00237433
0.00211568
0.00194725
0.00184355
0.00178396
0.00176101
0.0017653
0.00179084
0.00183375
0.00189047
0.00195614
0.00203613
0.00212827
0.00222999
0.00233428
0.00242507
0.00248687
0.00246598
0.00247787
0.00241494
0.00117703
0.00197331
0.00197387
0.00201024
0.00208301
0.00188405
0.00172472
0.00164634
0.00156588
0.00145223
0.00131292
0.00115822
0.0010071
0.000874507
0.000769203
0.000692664
0.000638478
0.000599763
0.000572742
0.000555987
0.000548675
0.000549586
0.000557259
0.000570419
0.000588418
0.000610057
0.000635189
0.000663914
0.000696548
0.000733724
0.000776646
0.00082484
0.000878332
0.00093773
0.0010036
0.00107566
0.00116481
0.00118825
0.00115588
0.00108248
0.00100244
)
;

boundaryField
{
    floor
    {
        type            nutkWallFunction;
        Cmu             0.09;
        kappa           0.41;
        E               9.8;
        value           nonuniform List<scalar> 
29
(
0.000132902
5.51797e-05
6.65387e-05
7.55223e-05
7.64255e-05
7.4278e-05
7.1093e-05
6.65524e-05
6.18657e-05
5.75596e-05
5.3712e-05
5.02856e-05
4.72262e-05
4.44928e-05
4.20309e-05
3.97561e-05
3.75585e-05
3.52863e-05
3.39731e-05
3.05432e-05
3.05431e-05
4.33174e-05
5.17957e-05
5.82695e-05
0.000132902
5.51796e-05
5.76309e-05
0.000109012
0.000162281
)
;
    }
    ceiling
    {
        type            nutkWallFunction;
        Cmu             0.09;
        kappa           0.41;
        E               9.8;
        value           nonuniform List<scalar> 
43
(
0.000230439
0.000230417
0.000234373
0.000242365
0.000220715
0.000203183
0.000194493
0.000185521
0.000172756
0.000156953
0.000139181
0.00012156
0.000105846
9.3169e-05
8.38267e-05
7.71384e-05
7.23179e-05
6.89309e-05
6.68207e-05
6.58973e-05
6.60121e-05
6.69804e-05
6.86375e-05
7.08964e-05
7.36013e-05
7.67283e-05
8.02842e-05
8.43017e-05
8.88511e-05
9.40699e-05
9.98895e-05
0.000106302
0.00011337
0.000121148
0.00012959
0.000139947
0.000142655
0.000138914
0.000130387
0.000121013
0.000344834
0.000405802
0.00024775
)
;
    }
    sWall
    {
        type            nutkWallFunction;
        Cmu             0.09;
        kappa           0.41;
        E               9.8;
        value           uniform 0.0002305;
    }
    nWall
    {
        type            nutkWallFunction;
        Cmu             0.09;
        kappa           0.41;
        E               9.8;
        value           nonuniform List<scalar> 6(9.87047e-05 0.000103388 0.000119278 0.000139234 0.000141369 0.000121019);
    }
    sideWalls
    {
        type            empty;
    }
    glass1
    {
        type            nutkWallFunction;
        Cmu             0.09;
        kappa           0.41;
        E               9.8;
        value           nonuniform List<scalar> 9(0.000128842 0.000173441 0.000209505 0.000243468 0.000277508 0.000313107 0.000346072 0.00035313 0.000345265);
    }
    glass2
    {
        type            nutkWallFunction;
        Cmu             0.09;
        kappa           0.41;
        E               9.8;
        value           nonuniform List<scalar> 2(0.000180514 0.000168694);
    }
    sun
    {
        type            nutkWallFunction;
        Cmu             0.09;
        kappa           0.41;
        E               9.8;
        value           nonuniform List<scalar> 
14
(
0.000128743
0.000139919
0.000142399
0.000148904
0.000154913
0.000160566
0.000166172
0.000171439
0.000175065
0.000176346
0.000174613
0.000169382
0.000160376
0.000147754
)
;
    }
    heatsource1
    {
        type            nutkWallFunction;
        Cmu             0.09;
        kappa           0.41;
        E               9.8;
        value           nonuniform List<scalar> 3(7.27846e-05 8.78325e-05 9.87035e-05);
    }
    heatsource2
    {
        type            nutkWallFunction;
        Cmu             0.09;
        kappa           0.41;
        E               9.8;
        value           nonuniform List<scalar> 4(0.000135176 8.54102e-05 8.54102e-05 0.000139954);
    }
    Table_master
    {
        type            nutkWallFunction;
        Cmu             0.09;
        kappa           0.41;
        E               9.8;
        value           nonuniform List<scalar> 9(9.52033e-05 8.4091e-05 7.49486e-05 6.74396e-05 6.12355e-05 5.6068e-05 5.17368e-05 4.81143e-05 4.51555e-05);
    }
    Table_slave
    {
        type            nutkWallFunction;
        Cmu             0.09;
        kappa           0.41;
        E               9.8;
        value           nonuniform List<scalar> 9(0.000107782 9.87643e-05 9.23286e-05 8.74192e-05 8.31848e-05 7.91389e-05 7.52055e-05 7.10086e-05 6.6056e-05);
    }
    inlet
    {
        type            calculated;
        value           uniform 0.000100623;
    }
    outlet
    {
        type            calculated;
        value           nonuniform List<scalar> 2(0.00197331 0.00197387);
    }
}


// ************************************************************************* //
