// -*- C++ -*-
// File generated by PyFoam - sorry for the ugliness

FoamFile
{
 version 2.0;
 format ascii;
 class volVectorField;
 location "900";
 object U;
}

dimensions [ 0 1 -1 0 0 0 0 ];

internalField nonuniform List<vector> 459
(
  (0.0346761 0.0859372 0)
  (-0.167218 0.0253698 0)
  (-0.191752 0.0177195 0)
  (-0.222607 0.0119987 0)
  (-0.244823 0.00566186 0)
  (-0.257252 -0.00109388 0)
  (-0.258159 -0.00832576 0)
  (-0.246365 -0.016046 0)
  (-0.222516 -0.0234911 0)
  (-0.188658 -0.0293078 0)
  (-0.14864 -0.0323986 0)
  (-0.106937 -0.0322327 0)
  (-0.0678208 -0.028947 0)
  (-0.0364486 -0.0236686 0)
  (-0.0271057 -0.01834 0)
  (-0.00596902 0.00900067 0)
  (-0.0297821 -0.0167614 0)
  (-0.00822604 -0.0266328 0)
  (0.0156896 -0.0206055 0)
  (0.0311418 -0.0141804 0)
  (0.0439471 -0.0092132 0)
  (0.052056 -0.00534099 0)
  (0.0562711 -0.00330317 0)
  (0.0581452 -0.00248833 0)
  (0.059045 -0.00213988 0)
  (0.0595878 -0.00192487 0)
  (0.0598793 -0.00175199 0)
  (0.0598639 -0.0015426 0)
  (0.0593592 -0.00113417 0)
  (0.0578503 -0.000164867 0)
  (0.0542252 0.00186376 0)
  (0.0472887 0.00395313 0)
  (0.0414548 0.00550871 0)
  (-0.0145551 0.0202773 0)
  (0.209562 0.176171 0)
  (-0.156611 0.0673356 0)
  (-0.154912 0.0528744 0)
  (-0.187013 0.0409658 0)
  (-0.209162 0.0273939 0)
  (-0.221958 0.0120491 0)
  (-0.223615 -0.00535639 0)
  (-0.212825 -0.024128 0)
  (-0.190848 -0.0415573 0)
  (-0.160141 -0.0545239 0)
  (-0.124653 -0.0609605 0)
  (-0.0884765 -0.0603097 0)
  (-0.0551413 -0.0531991 0)
  (-0.0279522 -0.0413087 0)
  (-0.0108956 -0.0274488 0)
  (0.00267762 -0.00971689 0)
  (0.00143501 0.0154185 0)
  (0.0632456 0.0367062 0)
  (0.0236378 -0.017786 0)
  (0.0324354 -0.0313979 0)
  (0.0436549 -0.028085 0)
  (0.0526335 -0.0203141 0)
  (0.0592873 -0.0127957 0)
  (0.0622097 -0.00544469 0)
  (0.0627881 -0.00120976 0)
  (0.0627402 0.000552477 0)
  (0.0628471 0.00132597 0)
  (0.0630522 0.00179735 0)
  (0.0632025 0.00218293 0)
  (0.0632532 0.00264303 0)
  (0.0631651 0.00349117 0)
  (0.0624371 0.00558241 0)
  (0.0587624 0.0114346 0)
  (0.0494395 0.0161594 0)
  (0.0457856 0.0190421 0)
  (-0.0520143 0.0440125 0)
  (0.369946 0.263728 0)
  (-0.17364 0.107427 0)
  (-0.116566 0.0857008 0)
  (-0.147995 0.0644333 0)
  (-0.16786 0.0420591 0)
  (-0.179896 0.0171128 0)
  (-0.181265 -0.0111962 0)
  (-0.169844 -0.0412469 0)
  (-0.148209 -0.0681978 0)
  (-0.119711 -0.0870202 0)
  (-0.0884562 -0.0951586 0)
  (-0.0579091 -0.0926787 0)
  (-0.0302916 -0.0810487 0)
  (-0.00753268 -0.0625964 0)
  (0.00925162 -0.0390553 0)
  (0.0202143 -0.0130135 0)
  (0.0244623 0.0234279 0)
  (0.111646 -0.0256979 0)
  (0.0741577 -0.0369402 0)
  (0.0682831 -0.0379696 0)
  (0.0696933 -0.0328381 0)
  (0.0710262 -0.0250632 0)
  (0.0723938 -0.0181882 0)
  (0.0712458 -0.0145193 0)
  (0.0666029 -0.01022 0)
  (0.0632259 -0.00787365 0)
  (0.0617286 -0.00653211 0)
  (0.0611191 -0.00567076 0)
  (0.0608291 -0.00507481 0)
  (0.0608417 -0.00455048 0)
  (0.0615885 -0.00373768 0)
  (0.0641641 -0.000696454 0)
  (0.0620663 0.0160736 0)
  (0.0488392 0.0274171 0)
  (0.052335 0.034575 0)
  (-0.0852143 0.0684457 0)
  (0.514666 0.334223 0)
  (-0.208442 0.143087 0)
  (-0.0757298 0.113789 0)
  (-0.105938 0.0845678 0)
  (-0.120506 0.0558295 0)
  (-0.129463 0.0230092 0)
  (-0.127845 -0.0161342 0)
  (-0.113427 -0.0580455 0)
  (-0.0915666 -0.0936996 0)
  (-0.0662886 -0.116698 0)
  (-0.0410858 -0.125044 0)
  (-0.0182503 -0.120222 0)
  (0.00205312 -0.10437 0)
  (0.0187446 -0.0812137 0)
  (0.0329371 -0.0543071 0)
  (0.0480757 -0.0255023 0)
  (0.0693076 0.00611594 0)
  (0.0995436 0.01845 0)
  (0.104273 -0.0214816 0)
  (0.0904975 -0.0326979 0)
  (0.0816076 -0.032326 0)
  (0.0765991 -0.0284985 0)
  (0.072827 -0.0226457 0)
  (0.0703042 -0.0150823 0)
  (0.0716269 -0.00920157 0)
  (0.0767635 -0.00694246 0)
  (0.0811907 -0.00569261 0)
  (0.0842062 -0.00479813 0)
  (0.0861206 -0.00377725 0)
  (0.0864685 -0.00233154 0)
  (0.0840497 -0.000195765 0)
  (0.0775892 0.00293148 0)
  (0.0645492 0.00759366 0)
  (0.0519462 0.0268754 0)
  (0.0393568 0.0427604 0)
  (0.0565153 0.0547593 0)
  (-0.12163 0.0899396 0)
  (0.639978 0.388874 0)
  (-0.250966 0.172264 0)
  (-0.0349639 0.130137 0)
  (-0.0617193 0.0962148 0)
  (-0.0683653 0.0639036 0)
  (-0.071398 0.0257474 0)
  (-0.0608621 -0.0234007 0)
  (-0.0414792 -0.0760887 0)
  (-0.0208908 -0.116755 0)
  (-0.00169159 -0.140146 0)
  (0.0144127 -0.145768 0)
  (0.0266945 -0.137266 0)
  (0.0363161 -0.118824 0)
  (0.0441112 -0.0940601 0)
  (0.0513498 -0.0665474 0)
  (0.059944 -0.0400787 0)
  (0.0725595 -0.0208645 0)
  (0.0829738 -0.0203186 0)
  (0.0839317 -0.0282632 0)
  (0.0775689 -0.0292474 0)
  (0.0693992 -0.0265478 0)
  (0.0626522 -0.0228983 0)
  (0.0575405 -0.018497 0)
  (0.054439 -0.0132285 0)
  (0.0542518 -0.00752471 0)
  (0.056682 -0.00478269 0)
  (0.0595345 -0.00381724 0)
  (0.0622931 -0.0030462 0)
  (0.0648417 -0.00141647 0)
  (0.0668178 0.00170589 0)
  (0.0669141 0.00640236 0)
  (0.064505 0.0127962 0)
  (0.0590047 0.0214805 0)
  (0.0519523 0.0366549 0)
  (0.0413379 0.0542843 0)
  (0.0646172 0.0736562 0)
  (-0.0255996 0.101724 0)
  (0.0461423 0.029517 0)
  (-0.0625125 -0.0343701 0)
  (-0.273648 -0.057221 0)
  (0.731198 0.434447 0)
  (-0.292519 0.191931 0)
  (-0.00362488 0.126896 0)
  (-0.016394 0.097657 0)
  (-0.0125311 0.0664931 0)
  (-0.00682081 0.0226842 0)
  (0.022588 -0.0409982 0)
  (0.0441419 -0.0964956 0)
  (0.059407 -0.133997 0)
  (0.0685618 -0.15252 0)
  (0.0722908 -0.154181 0)
  (0.0720146 -0.142673 0)
  (0.0692502 -0.122104 0)
  (0.0655192 -0.0964951 0)
  (0.0622802 -0.0695158 0)
  (0.060898 -0.0448359 0)
  (0.0621822 -0.0266609 0)
  (0.0629934 -0.0196594 0)
  (0.0597306 -0.0195414 0)
  (0.0527892 -0.0199028 0)
  (0.044919 -0.0187321 0)
  (0.0382996 -0.0167032 0)
  (0.0334713 -0.0141534 0)
  (0.0307481 -0.0111473 0)
  (0.0304147 -0.00831787 0)
  (0.032133 -0.00728274 0)
  (0.0348513 -0.00723575 0)
  (0.0381097 -0.00690741 0)
  (0.041712 -0.0052529 0)
  (0.0453521 -0.00134995 0)
  (0.0487325 0.00514987 0)
  (0.0505017 0.0138013 0)
  (0.0509555 0.0246677 0)
  (0.0514894 0.0391185 0)
  (0.0500682 0.0565203 0)
  (0.0732463 0.0787406 0)
  (0.0514235 0.095506 0)
  (0.0935042 0.0663159 0)
  (0.116576 0.0440214 0)
  (-0.129477 -0.00713064 0)
  (0.783451 0.475866 0)
  (-0.313453 0.177451 0)
  (0.0234559 0.0774864 0)
  (0.0426231 0.0738784 0)
  (0.0577268 0.0516409 0)
  (0.0854737 -0.000818744 0)
  (0.119078 -0.0651394 0)
  (0.137781 -0.113575 0)
  (0.143667 -0.142382 0)
  (0.139453 -0.153196 0)
  (0.127907 -0.149125 0)
  (0.111947 -0.134005 0)
  (0.0941477 -0.111795 0)
  (0.0767525 -0.0864029 0)
  (0.0614036 -0.0609997 0)
  (0.0493081 -0.0387195 0)
  (0.0408752 -0.0226178 0)
  (0.0345443 -0.0146898 0)
  (0.0281498 -0.0126445 0)
  (0.0211662 -0.0125395 0)
  (0.014508 -0.0122164 0)
  (0.00909877 -0.0115603 0)
  (0.00527143 -0.0107213 0)
  (0.0032314 -0.00978319 0)
  (0.00308617 -0.00917759 0)
  (0.00448626 -0.00953926 0)
  (0.00678652 -0.0103384 0)
  (0.00971034 -0.0106781 0)
  (0.0132908 -0.00964462 0)
  (0.0176534 -0.00618656 0)
  (0.0237351 0.000751743 0)
  (0.0300369 0.0102991 0)
  (0.0359011 0.021349 0)
  (0.0432418 0.0342648 0)
  (0.0510723 0.0486179 0)
  (0.0735571 0.0665471 0)
  (0.0866552 0.0731284 0)
  (0.119442 0.0500489 0)
  (0.159143 0.0429411 0)
  (-0.0333832 0.0939429 0)
  (0.888408 0.478552 0)
  (-0.0704909 0.15712 0)
  (0.106346 0.00433138 0)
  (0.169597 -0.0166892 0)
  (0.182821 -0.0366024 0)
  (0.218692 -0.0709178 0)
  (0.239969 -0.103619 0)
  (0.24179 -0.12666 0)
  (0.227163 -0.137625 0)
  (0.201107 -0.136871 0)
  (0.168533 -0.126278 0)
  (0.133644 -0.108528 0)
  (0.0994758 -0.0864184 0)
  (0.0685212 -0.0631989 0)
  (0.0421687 -0.0412192 0)
  (0.0217846 -0.0231512 0)
  (0.00778376 -0.011435 0)
  (-0.00126858 -0.00637655 0)
  (-0.00765831 -0.00567151 0)
  (-0.0131139 -0.00635682 0)
  (-0.0178547 -0.00709426 0)
  (-0.0216822 -0.00771685 0)
  (-0.0244915 -0.008296 0)
  (-0.0262081 -0.0089368 0)
  (-0.0268636 -0.00985033 0)
  (-0.0267609 -0.0111721 0)
  (-0.026284 -0.0126053 0)
  (-0.0255614 -0.0136749 0)
  (-0.0244395 -0.0138569 0)
  (-0.022514 -0.0125457 0)
  (-0.0187885 -0.0089911 0)
  (-0.00985114 -0.0024571 0)
  (-0.000523049 0.00614623 0)
  (0.0104362 0.0146199 0)
  (0.0222432 0.0215 0)
  (0.0419954 0.0284804 0)
  (0.0599217 0.0208556 0)
  (0.078432 -0.00635181 0)
  (0.136995 0.0412723 0)
  (-0.419721 0.209101 0)
  (1.03395 0.430371 0)
  (0.497929 0.285207 0)
  (0.50401 0.191848 0)
  (0.512304 0.119992 0)
  (0.487764 0.0680261 0)
  (0.44419 0.0140904 0)
  (0.393493 -0.0342981 0)
  (0.339368 -0.0681623 0)
  (0.281562 -0.0852187 0)
  (0.222544 -0.0876982 0)
  (0.165658 -0.0797511 0)
  (0.113581 -0.0653815 0)
  (0.0673791 -0.0474866 0)
  (0.0289268 -0.0294075 0)
  (-0.00237428 -0.0132626 0)
  (-0.0225883 -0.00367203 0)
  (-0.0332317 -0.0002191 0)
  (-0.0390761 0.000133204 0)
  (-0.0429103 -0.000914597 0)
  (-0.0462864 -0.00230613 0)
  (-0.0494752 -0.00366198 0)
  (-0.0524201 -0.00496509 0)
  (-0.0550825 -0.00625582 0)
  (-0.0574723 -0.00758318 0)
  (-0.0597111 -0.00899798 0)
  (-0.0620784 -0.0104544 0)
  (-0.0649154 -0.0117065 0)
  (-0.0685277 -0.0123559 0)
  (-0.0732427 -0.0118595 0)
  (-0.0795142 -0.00951151 0)
  (-0.0879203 -0.0044859 0)
  (-0.0985657 0.00384961 0)
  (-0.109439 0.0149553 0)
  (-0.125095 0.0289054 0)
  (-0.149886 0.0456304 0)
  (-0.186296 0.0638111 0)
  (-0.237501 0.0792592 0)
  (-0.295082 0.0892894 0)
  (-0.363164 0.0940847 0)
  (-0.62388 0.0946621 0)
  (-0.145959 0.0836708 0)
  (0.134871 0.0618684 0)
  (0.217156 0.0052319 0)
  (0.20042 -0.0296594 0)
  (0.184305 -0.0437253 0)
  (0.161351 -0.0479372 0)
  (0.128504 -0.0458834 0)
  (0.0897563 -0.0391249 0)
  (0.0499216 -0.0290642 0)
  (0.011806 -0.0164442 0)
  (-0.0249622 -0.00294525 0)
  (-0.048013 0.00430298 0)
  (-0.0617636 0.00734074 0)
  (-0.0681292 0.00741273 0)
  (-0.0712856 0.00642744 0)
  (-0.0733587 0.00525275 0)
  (-0.0751958 0.00408424 0)
  (-0.0771005 0.0029949 0)
  (-0.0792562 0.00192249 0)
  (-0.081779 0.000740467 0)
  (-0.0845869 -0.000514487 0)
  (-0.0876971 -0.0017543 0)
  (-0.0911888 -0.00287889 0)
  (-0.0951678 -0.00372285 0)
  (-0.099722 -0.00403105 0)
  (-0.104854 -0.00347347 0)
  (-0.110457 -0.00167036 0)
  (-0.116281 0.00177158 0)
  (-0.121727 0.00727606 0)
  (-0.125962 0.0155137 0)
  (-0.129452 0.0276049 0)
  (-0.132481 0.0438842 0)
  (-0.135944 0.0633111 0)
  (-0.140362 0.0820263 0)
  (-0.142415 0.0901144 0)
  (-0.124267 0.0669997 0)
  (-0.075512 -0.0272634 0)
  (-0.280313 -0.206726 0)
  (-0.0200647 0.233857 0)
  (0.0621355 0.100855 0)
  (0.0361104 0.0197882 0)
  (0.0239194 -0.00367965 0)
  (0.0142678 -0.008879 0)
  (-0.00500511 -0.009682 0)
  (-0.0302592 -0.00683328 0)
  (-0.0558639 -0.00198046 0)
  (-0.0772114 0.00286113 0)
  (-0.0915466 0.00614796 0)
  (-0.0979553 0.00654467 0)
  (-0.100104 0.00457848 0)
  (-0.100117 0.00193918 0)
  (-0.0992596 -0.00102014 0)
  (-0.0985856 -0.00394277 0)
  (-0.0984294 -0.00665469 0)
  (-0.0988194 -0.00907579 0)
  (-0.099654 -0.0110584 0)
  (-0.100797 -0.0125007 0)
  (-0.102148 -0.0133905 0)
  (-0.103788 -0.0138368 0)
  (-0.105735 -0.0138685 0)
  (-0.108011 -0.0137003 0)
  (-0.110599 -0.0133099 0)
  (-0.113387 -0.0125671 0)
  (-0.116144 -0.0112352 0)
  (-0.118496 -0.00895213 0)
  (-0.119909 -0.00518817 0)
  (-0.11977 0.000424613 0)
  (-0.117048 0.00848311 0)
  (-0.110274 0.0198949 0)
  (-0.0982255 0.0354238 0)
  (-0.0807781 0.054521 0)
  (-0.0588559 0.0726729 0)
  (-0.0356128 0.0828008 0)
  (0.00585766 0.0658738 0)
  (0.142596 -0.00487652 0)
  (-0.207576 -0.117087 0)
  (0.941414 -0.0039308 0)
  (-0.537343 -0.460575 0)
  (-0.317133 0.0903536 0)
  (-0.229292 -0.0203137 0)
  (-0.181183 -0.0433038 0)
  (-0.166472 -0.0321756 0)
  (-0.163906 -0.0198294 0)
  (-0.164908 -0.0100709 0)
  (-0.16498 -0.0021445 0)
  (-0.162414 0.00470843 0)
  (-0.157352 0.0108286 0)
  (-0.15001 0.0161826 0)
  (-0.14136 0.0205324 0)
  (-0.13282 0.0239832 0)
  (-0.125194 0.027123 0)
  (-0.118808 0.0301577 0)
  (-0.113643 0.0331584 0)
  (-0.109519 0.0359482 0)
  (-0.106308 0.0382185 0)
  (-0.103935 0.0396974 0)
  (-0.102344 0.0402464 0)
  (-0.101477 0.0398777 0)
  (-0.10128 0.0387335 0)
  (-0.101692 0.0369568 0)
  (-0.102624 0.0349776 0)
  (-0.103969 0.0329456 0)
  (-0.105545 0.0309706 0)
  (-0.10706 0.029149 0)
  (-0.10807 0.0275679 0)
  (-0.107878 0.0263259 0)
  (-0.10522 0.0260573 0)
  (-0.0981432 0.0274105 0)
  (-0.0841345 0.0311285 0)
  (-0.0614594 0.0381021 0)
  (-0.0312304 0.0487717 0)
  (0.019362 0.0628874 0)
  (0.0631241 0.0632691 0)
  (0.105836 0.0478168 0)
  (0.165015 0.0178948 0)
  (-0.211907 -0.0383609 0)
)
;

boundaryField
{
  floor
  {
    type noSlip;
  }
  ceiling
  {
    type noSlip;
  }
  sWall
  {
    type noSlip;
  }
  nWall
  {
    type noSlip;
  }
  sideWalls
  {
    type empty;
  }
  glass1
  {
    type noSlip;
  }
  glass2
  {
    type noSlip;
  }
  sun
  {
    type noSlip;
  }
  heatsource1
  {
    type noSlip;
  }
  heatsource2
  {
    type noSlip;
  }
  Table_master
  {
    type noSlip;
  }
  Table_slave
  {
    type noSlip;
  }
  inlet
  {
    type fixedValue;
    value uniform (0.3 0 0);
  }
  outlet
  {
    type zeroGradient;
  }
} 	// ************************************************************************* //

