/*--------------------------------*- C++ -*----------------------------------*\
  =========                 |
  \\      /  F ield         | OpenFOAM: The Open Source CFD Toolbox
   \\    /   O peration     | Website:  https://openfoam.org
    \\  /    A nd           | Version:  6
     \\/     M anipulation  |
\*---------------------------------------------------------------------------*/
FoamFile
{
    version     2.0;
    format      ascii;
    class       volScalarField;
    location    "1200";
    object      nut;
}
// * * * * * * * * * * * * * * * * * * * * * * * * * * * * * * * * * * * * * //

dimensions      [0 2 -1 0 0 0 0];

internalField   nonuniform List<scalar> 
459
(
0.00106423
0.00116023
0.00118214
0.00123855
0.00129081
0.00134011
0.00138909
0.00143591
0.00146885
0.00148162
0.00146821
0.00142437
0.00134807
0.0012415
0.00111634
0.000464056
0.000554122
0.000626166
0.000632245
0.000614354
0.000588441
0.000552327
0.000515485
0.000481963
0.000452278
0.000426063
0.000402838
0.000382208
0.000363759
0.00034682
0.000330552
0.000313801
0.000303424
0.000277791
0.00144964
0.00343612
0.00325194
0.00377247
0.00428237
0.00479378
0.00523848
0.00558426
0.00590563
0.00617305
0.00634985
0.00639815
0.00627233
0.00586431
0.00471803
0.00113647
0.000705181
0.000484058
0.00101975
0.00142991
0.00174115
0.00192569
0.00193599
0.00153014
0.00131458
0.00116173
0.00104509
0.000952978
0.000878439
0.000815261
0.000756457
0.000699423
0.000648725
0.000603954
0.000717417
0.000369673
0.00177052
0.00466151
0.00396631
0.00494306
0.00539144
0.00571725
0.00597161
0.00619522
0.0064549
0.00673656
0.00700721
0.00721621
0.00731783
0.00723655
0.00674988
0.00518015
0.00117014
0.000910402
0.00132717
0.00173122
0.00212411
0.00241703
0.00238897
0.000785357
0.000694666
0.000621006
0.000561219
0.000512356
0.000472062
0.000438592
0.00041082
0.000388256
0.000419426
0.000484286
0.000810927
0.000431915
0.00207914
0.0059651
0.00391501
0.00516328
0.00550299
0.00558452
0.00565183
0.00577765
0.00599499
0.00628782
0.00662527
0.00693517
0.00716807
0.00725884
0.00715713
0.00659957
0.00443001
0.00136957
0.00164291
0.00209877
0.00259946
0.00304701
0.00335707
0.00319933
0.00088914
0.000813659
0.000759925
0.000719071
0.00068415
0.000651417
0.000619885
0.000586593
0.000547765
0.000513875
0.000519392
0.000942506
0.000481191
0.00239403
0.00766675
0.00423194
0.00492237
0.00539052
0.00534245
0.00529501
0.0053894
0.00559323
0.00589241
0.00626561
0.00660693
0.00684597
0.00693834
0.00688519
0.00666272
0.0060988
0.005168
0.00485401
0.00480732
0.0048594
0.00492017
0.0049308
0.00477832
0.00406313
0.0037162
0.0035146
0.00335776
0.0031914
0.00295389
0.0026251
0.0022215
0.00177135
0.00132311
0.000977512
0.000965238
0.000655469
0.000594271
0.000716504
0.000804764
0.00272857
0.009534
0.00582239
0.00475525
0.00520722
0.00535441
0.0052102
0.00530005
0.00546956
0.00574732
0.00611014
0.00646605
0.00670398
0.00675719
0.00664057
0.00643976
0.00625085
0.00613347
0.00614918
0.00618411
0.0061643
0.00607935
0.00593197
0.0057104
0.00537554
0.00507446
0.00480842
0.00455516
0.00430002
0.00402821
0.00368312
0.00324855
0.00272365
0.0021402
0.00161542
0.00119005
0.000911009
0.00077708
0.00110532
0.000841749
0.00304275
0.0108836
0.00835213
0.00603766
0.00563568
0.00566997
0.00553147
0.00545277
0.00553418
0.00579803
0.00618041
0.00655419
0.00678116
0.00678469
0.0065995
0.00638005
0.00633043
0.00651385
0.00674098
0.00681933
0.00671936
0.00648945
0.00617412
0.00580629
0.00542027
0.00507026
0.00475941
0.00447684
0.00421899
0.00398943
0.00378704
0.00350944
0.00310768
0.00260877
0.00211992
0.0016665
0.00134415
0.00124844
0.00127746
0.000964236
0.00311077
0.00987851
0.00856949
0.00759188
0.00699343
0.00633634
0.00578218
0.00554766
0.00564983
0.00600543
0.00646713
0.00686047
0.00703273
0.00693239
0.00665394
0.00644158
0.0065321
0.00683488
0.00696483
0.00682602
0.00649331
0.00604341
0.00554498
0.00506333
0.00464812
0.00431351
0.00404255
0.00382066
0.00364519
0.00352105
0.00345575
0.00342833
0.00323621
0.00291955
0.00263358
0.00248628
0.00259138
0.00299447
0.00366191
0.00149564
0.00303593
0.00362536
0.00409521
0.00424363
0.00425704
0.00435389
0.00463597
0.00513102
0.00579599
0.0065004
0.00707789
0.00738298
0.0073194
0.0069515
0.00655618
0.00648805
0.00655883
0.00656082
0.00635415
0.0059415
0.00540243
0.00482717
0.00429937
0.0038703
0.00354634
0.00330317
0.00311178
0.00295281
0.00281464
0.00268856
0.0025673
0.00245093
0.00235772
0.00228853
0.00226116
0.002268
0.0022494
0.00215254
0.00200798
0.00139921
0.00182915
0.00326129
0.00450908
0.00554945
0.00639672
0.00715974
0.00775902
0.00806525
0.00803335
0.00767966
0.00706026
0.00635892
0.00593177
0.0057773
0.00560418
0.00528231
0.0048199
0.00428834
0.00376126
0.00330526
0.00295761
0.00271053
0.0025377
0.00241362
0.00232144
0.00225225
0.00220203
0.0021697
0.00215853
0.00217072
0.00219283
0.00222141
0.00224842
0.00224888
0.00218313
0.00203947
0.00183085
0.00114868
0.00212585
0.00456687
0.00624235
0.00703684
0.0075726
0.00794457
0.00792807
0.00743492
0.00667184
0.00585132
0.00516306
0.00466619
0.00433314
0.00403181
0.00366763
0.00325936
0.00286075
0.00252125
0.00226551
0.0020896
0.00197124
0.00189317
0.00184865
0.00183005
0.00183226
0.0018522
0.00188709
0.00193302
0.00199633
0.00207414
0.00216386
0.00225886
0.00234358
0.00239999
0.00238052
0.0023954
0.002366
0.00116781
0.00197046
0.00196596
0.00200238
0.00207517
0.00187977
0.00172491
0.00165097
0.00157697
0.0014693
0.00133651
0.00118467
0.00103402
0.00090084
0.00079546
0.000719318
0.000665624
0.000627076
0.000599584
0.000581558
0.000572247
0.000570662
0.000575559
0.000585865
0.000601036
0.000619988
0.000642507
0.000668699
0.000698878
0.000733651
0.000774144
0.000819654
0.000870388
0.000926973
0.000989987
0.00105924
0.00114281
0.0011688
0.00113885
0.00106695
0.000990323
)
;

boundaryField
{
    floor
    {
        type            nutkWallFunction;
        Cmu             0.09;
        kappa           0.41;
        E               9.8;
        value           nonuniform List<scalar> 
29
(
0.000134325
5.50948e-05
6.65837e-05
7.56072e-05
7.63627e-05
7.41368e-05
7.08988e-05
6.6357e-05
6.16858e-05
5.73995e-05
5.35728e-05
5.01672e-05
4.71278e-05
4.44092e-05
4.19622e-05
3.97014e-05
3.75165e-05
3.52521e-05
3.38413e-05
3.03285e-05
3.03284e-05
4.27478e-05
5.0929e-05
5.72997e-05
0.000134325
5.50948e-05
5.76683e-05
0.000110125
0.000163402
)
;
    }
    ceiling
    {
        type            nutkWallFunction;
        Cmu             0.09;
        kappa           0.41;
        E               9.8;
        value           nonuniform List<scalar> 
43
(
0.000230129
0.000229556
0.00023352
0.000241517
0.000220247
0.000203204
0.000195009
0.000186762
0.000174681
0.000159644
0.00014224
0.000124719
0.000108987
9.63468e-05
8.70916e-05
8.04953e-05
7.57205e-05
7.22935e-05
7.00363e-05
6.88669e-05
6.86676e-05
6.9283e-05
7.05763e-05
7.24748e-05
7.48386e-05
7.76358e-05
8.08746e-05
8.45876e-05
8.88423e-05
9.37668e-05
9.92653e-05
0.000105353
0.000112094
0.000119546
0.000127673
0.0001374
0.000140408
0.000136942
0.000128574
0.000119586
0.000343869
0.000404797
0.000246805
)
;
    }
    sWall
    {
        type            nutkWallFunction;
        Cmu             0.09;
        kappa           0.41;
        E               9.8;
        value           uniform 0.00023019;
    }
    nWall
    {
        type            nutkWallFunction;
        Cmu             0.09;
        kappa           0.41;
        E               9.8;
        value           nonuniform List<scalar> 6(9.7471e-05 0.000101923 0.000116512 0.000138091 0.000140304 0.000119592);
    }
    sideWalls
    {
        type            empty;
    }
    glass1
    {
        type            nutkWallFunction;
        Cmu             0.09;
        kappa           0.41;
        E               9.8;
        value           nonuniform List<scalar> 9(0.000128355 0.000172683 0.000208569 0.000242415 0.000276394 0.000311979 0.000344985 0.000352092 0.000344297);
    }
    glass2
    {
        type            nutkWallFunction;
        Cmu             0.09;
        kappa           0.41;
        E               9.8;
        value           nonuniform List<scalar> 2(0.000177727 0.000166835);
    }
    sun
    {
        type            nutkWallFunction;
        Cmu             0.09;
        kappa           0.41;
        E               9.8;
        value           nonuniform List<scalar> 
14
(
0.000128258
0.000139415
0.000141947
0.000148442
0.00015443
0.000160053
0.000165617
0.000170917
0.000174632
0.00017607
0.00017456
0.000169611
0.000160958
0.00014878
)
;
    }
    heatsource1
    {
        type            nutkWallFunction;
        Cmu             0.09;
        kappa           0.41;
        E               9.8;
        value           nonuniform List<scalar> 3(7.16306e-05 8.67477e-05 9.74701e-05);
    }
    heatsource2
    {
        type            nutkWallFunction;
        Cmu             0.09;
        kappa           0.41;
        E               9.8;
        value           nonuniform List<scalar> 4(0.000136657 8.53622e-05 8.53621e-05 0.000140556);
    }
    Table_master
    {
        type            nutkWallFunction;
        Cmu             0.09;
        kappa           0.41;
        E               9.8;
        value           nonuniform List<scalar> 9(9.51249e-05 8.40718e-05 7.49677e-05 6.74822e-05 6.12921e-05 5.61326e-05 5.18052e-05 4.81829e-05 4.52172e-05);
    }
    Table_slave
    {
        type            nutkWallFunction;
        Cmu             0.09;
        kappa           0.41;
        E               9.8;
        value           nonuniform List<scalar> 9(0.000107591 9.85427e-05 9.20413e-05 8.7062e-05 8.27791e-05 7.87409e-05 7.48276e-05 7.06697e-05 6.57838e-05);
    }
    inlet
    {
        type            calculated;
        value           uniform 0.000100623;
    }
    outlet
    {
        type            calculated;
        value           nonuniform List<scalar> 2(0.00197046 0.00196596);
    }
}


// ************************************************************************* //
