/*--------------------------------*- C++ -*----------------------------------*\
  =========                 |
  \\      /  F ield         | OpenFOAM: The Open Source CFD Toolbox
   \\    /   O peration     | Website:  https://openfoam.org
    \\  /    A nd           | Version:  6
     \\/     M anipulation  |
\*---------------------------------------------------------------------------*/
FoamFile
{
    version     2.0;
    format      ascii;
    class       volScalarField;
    location    "1100";
    object      epsilon;
}
// * * * * * * * * * * * * * * * * * * * * * * * * * * * * * * * * * * * * * //

dimensions      [0 2 -3 0 0 0 0];

internalField   nonuniform List<scalar> 
459
(
0.000429122
0.000555501
0.000586524
0.000674291
0.000763183
0.000853956
0.000951106
0.00104973
0.00112202
0.00114902
0.00111477
0.00101388
0.000855064
0.000663262
0.000478928
3.52733e-05
5.97323e-05
8.5908e-05
8.86233e-05
8.14448e-05
7.1671e-05
5.93073e-05
4.8228e-05
3.94199e-05
3.25707e-05
2.72207e-05
2.29976e-05
1.96375e-05
1.69227e-05
1.4661e-05
1.2688e-05
1.0854e-05
9.89566e-06
7.65721e-06
0.00108849
0.00159386
0.000521594
0.000504093
0.000526794
0.000566741
0.000628218
0.000709229
0.000785831
0.000832235
0.000828485
0.00076952
0.000664427
0.000535738
0.000430063
0.000504003
0.000121977
3.99435e-05
9.29223e-05
0.000103701
9.73835e-05
8.51692e-05
7.29181e-05
6.70091e-05
5.42857e-05
4.28921e-05
3.38844e-05
2.69638e-05
2.16721e-05
1.76255e-05
1.454e-05
1.22747e-05
1.08769e-05
1.02759e-05
2.74702e-05
1.84664e-05
0.00198592
0.00392518
0.000643452
0.000479013
0.000500186
0.000561625
0.000655046
0.000773009
0.000880276
0.00094252
0.000942769
0.000882851
0.000775062
0.000645185
0.000525339
0.000465843
0.000556692
0.000260074
0.000204838
0.000163291
0.000131285
0.000106471
9.1617e-05
0.000169608
0.000117336
8.38258e-05
6.18817e-05
4.70993e-05
3.68519e-05
2.95689e-05
2.43114e-05
2.05353e-05
1.57127e-05
1.32821e-05
5.30445e-05
2.98298e-05
0.00321751
0.00816272
0.00101674
0.000482779
0.000487115
0.000573772
0.000715209
0.000891311
0.00102724
0.00109076
0.00107871
0.00100263
0.000874041
0.000724767
0.0005941
0.000509393
0.00049067
0.000886913
0.000515001
0.000316832
0.000216257
0.000158732
0.000122909
0.000106453
0.000246708
0.000189564
0.000155017
0.000131866
0.00011396
9.84963e-05
8.49428e-05
7.19872e-05
5.85631e-05
3.48007e-05
2.26851e-05
9.07344e-05
4.13117e-05
0.00491069
0.0145839
0.00200787
0.000564725
0.000491158
0.000607119
0.00086272
0.00112515
0.00126878
0.00130815
0.00126273
0.00115121
0.000988684
0.00080208
0.000623583
0.0004791
0.000381949
0.000342406
0.000281728
0.000226519
0.000182122
0.000147275
0.000120252
0.000101593
9.8523e-05
9.24869e-05
8.65933e-05
8.0646e-05
7.407e-05
6.66768e-05
5.92428e-05
5.21722e-05
4.56615e-05
3.66298e-05
2.81914e-05
6.37191e-05
4.83667e-05
7.78144e-05
0.000135104
0.000191573
0.00726486
0.0216971
0.00452267
0.0010506
0.000688552
0.000806884
0.00132012
0.00158298
0.00165717
0.00162656
0.00152559
0.00136261
0.00114593
0.000901461
0.000666368
0.000475281
0.000345912
0.00027458
0.000231969
0.000197698
0.000166085
0.000138352
0.000115872
9.9995e-05
9.22384e-05
8.93117e-05
8.79576e-05
8.61235e-05
8.25424e-05
7.6209e-05
6.68632e-05
5.70407e-05
4.80717e-05
4.0038e-05
3.48568e-05
4.72843e-05
4.98681e-05
6.04481e-05
0.000250062
0.000220319
0.0100653
0.0259722
0.00943431
0.00346175
0.00222428
0.00221388
0.00242048
0.00239383
0.00226092
0.00208904
0.00188553
0.00163616
0.00133804
0.00101729
0.000716746
0.000480377
0.000328033
0.000247379
0.000205198
0.000174882
0.000147806
0.00012491
0.000107888
9.77428e-05
9.46488e-05
9.64514e-05
0.000100198
0.000104131
0.000106979
0.000106912
0.000100458
8.89266e-05
7.75365e-05
6.80024e-05
6.45163e-05
7.32749e-05
9.49941e-05
0.00015409
0.0003509
0.00034014
0.010751
0.0289398
0.0157202
0.00999932
0.0070958
0.00548757
0.00435282
0.00359004
0.00306976
0.00267983
0.00232795
0.00195268
0.00153657
0.00111352
0.00073207
0.000450513
0.000285807
0.000206502
0.000168928
0.000143318
0.000122652
0.000107539
9.8633e-05
9.59186e-05
9.87591e-05
0.000105815
0.000115851
0.000128495
0.000143836
0.000161749
0.000181105
0.000194078
0.000204988
0.000228821
0.000278165
0.000424666
0.000794387
0.00150058
0.00427849
0.00124318
0.00999001
0.0170013
0.013631
0.0102928
0.00785324
0.00619171
0.00506943
0.00430059
0.00374259
0.00326718
0.0027776
0.00222875
0.0016329
0.00107568
0.000599986
0.000319096
0.000203422
0.00015269
0.00012618
0.000108414
9.6067e-05
8.89865e-05
8.70354e-05
8.98027e-05
9.67453e-05
0.000107442
0.000121963
0.000141096
0.000166328
0.000199853
0.000244629
0.000304788
0.000387222
0.000509881
0.000689001
0.000928787
0.00119819
0.00142785
0.00160586
0.00100368
0.00498285
0.00669322
0.00674807
0.00625232
0.00556007
0.00489474
0.00423332
0.00351571
0.0027318
0.00189648
0.0010335
0.00054429
0.000288058
0.000170954
0.000119856
9.48234e-05
8.06586e-05
7.20926e-05
6.74234e-05
6.6096e-05
6.78774e-05
7.24444e-05
7.96133e-05
8.94739e-05
0.000102478
0.000119507
0.000141974
0.000172034
0.000213075
0.000270443
0.00034974
0.000458244
0.000598849
0.000757107
0.000889537
0.000940996
0.000871565
0.000549791
0.0034525
0.00681993
0.00671642
0.0053733
0.00450586
0.00378802
0.00291088
0.00200921
0.00126274
0.000731827
0.000400347
0.000221916
0.000132205
8.9875e-05
6.95062e-05
5.89154e-05
5.33184e-05
5.09323e-05
5.10148e-05
5.31784e-05
5.70959e-05
6.27374e-05
7.02389e-05
7.99077e-05
9.22892e-05
0.000108253
0.000129145
0.000157024
0.000194783
0.000246203
0.000316438
0.000410459
0.000528366
0.000661957
0.000757559
0.000850759
0.000781989
0.000576398
0.00272167
0.00272848
0.00288243
0.00320639
0.00236897
0.00181102
0.00156896
0.00135022
0.00107706
0.000797198
0.000546735
0.000358196
0.000233222
0.000157748
0.000114643
8.95931e-05
7.43043e-05
6.48954e-05
5.96298e-05
5.75907e-05
5.81395e-05
6.08356e-05
6.54401e-05
7.19736e-05
8.03109e-05
9.07306e-05
0.000103664
0.000119751
0.000139979
0.000165992
0.000198816
0.000240001
0.000291977
0.000357818
0.000440464
0.000559092
0.000593863
0.00054688
0.000449071
0.000356651
)
;

boundaryField
{
    floor
    {
        Cmu             0.09;
        kappa           0.41;
        E               9.8;
        type            epsilonWallFunction;
        value           nonuniform List<scalar> 
29
(
0.000478928
3.52733e-05
5.97323e-05
8.5908e-05
8.86233e-05
8.14448e-05
7.1671e-05
5.93073e-05
4.8228e-05
3.94199e-05
3.25707e-05
2.72207e-05
2.29976e-05
1.96375e-05
1.69227e-05
1.4661e-05
1.2688e-05
1.0854e-05
9.89566e-06
7.65721e-06
7.65721e-06
1.84664e-05
2.98298e-05
4.13117e-05
0.000478928
3.52733e-05
3.99435e-05
0.000260074
0.000886913
)
;
    }
    ceiling
    {
        Cmu             0.09;
        kappa           0.41;
        E               9.8;
        type            epsilonWallFunction;
        value           nonuniform List<scalar> 
43
(
0.00272167
0.00272848
0.00288243
0.00320639
0.00236897
0.00181102
0.00156896
0.00135022
0.00107706
0.000797198
0.000546735
0.000358196
0.000233222
0.000157748
0.000114643
8.95931e-05
7.43043e-05
6.48954e-05
5.96298e-05
5.75907e-05
5.81395e-05
6.08356e-05
6.54401e-05
7.19736e-05
8.03109e-05
9.07306e-05
0.000103664
0.000119751
0.000139979
0.000165992
0.000198816
0.000240001
0.000291977
0.000357818
0.000440464
0.000559092
0.000593863
0.00054688
0.000449071
0.000356651
0.00999001
0.0170013
0.0034525
)
;
    }
    sWall
    {
        Cmu             0.09;
        kappa           0.41;
        E               9.8;
        type            epsilonWallFunction;
        value           uniform 0.00272167;
    }
    nWall
    {
        Cmu             0.09;
        kappa           0.41;
        E               9.8;
        type            epsilonWallFunction;
        value           nonuniform List<scalar> 6(0.000191573 0.000220319 0.00034014 0.000549791 0.000576398 0.000356651);
    }
    sideWalls
    {
        type            empty;
    }
    glass1
    {
        Cmu             0.09;
        kappa           0.41;
        E               9.8;
        type            epsilonWallFunction;
        value           nonuniform List<scalar> 9(0.000429122 0.00108849 0.00198592 0.00321751 0.00491069 0.00726486 0.0100653 0.010751 0.00999001);
    }
    glass2
    {
        Cmu             0.09;
        kappa           0.41;
        E               9.8;
        type            epsilonWallFunction;
        value           nonuniform List<scalar> 2(0.00124318 0.00100368);
    }
    sun
    {
        Cmu             0.09;
        kappa           0.41;
        E               9.8;
        type            epsilonWallFunction;
        value           nonuniform List<scalar> 
14
(
0.000429122
0.000555501
0.000586524
0.000674291
0.000763183
0.000853956
0.000951106
0.00104973
0.00112202
0.00114902
0.00111477
0.00101388
0.000855064
0.000663262
)
;
    }
    heatsource1
    {
        Cmu             0.09;
        kappa           0.41;
        E               9.8;
        type            epsilonWallFunction;
        value           nonuniform List<scalar> 3(7.78144e-05 0.000135104 0.000191573);
    }
    heatsource2
    {
        Cmu             0.09;
        kappa           0.41;
        E               9.8;
        type            epsilonWallFunction;
        value           nonuniform List<scalar> 4(0.000504003 0.000121977 0.000121977 0.000556692);
    }
    Table_master
    {
        Cmu             0.09;
        kappa           0.41;
        E               9.8;
        type            epsilonWallFunction;
        value           nonuniform List<scalar> 9(0.000169608 0.000117336 8.38258e-05 6.18817e-05 4.70993e-05 3.68519e-05 2.95689e-05 2.43114e-05 2.05353e-05);
    }
    Table_slave
    {
        Cmu             0.09;
        kappa           0.41;
        E               9.8;
        type            epsilonWallFunction;
        value           nonuniform List<scalar> 9(0.000246708 0.000189564 0.000155017 0.000131866 0.00011396 9.84963e-05 8.49428e-05 7.19872e-05 5.85631e-05);
    }
    inlet
    {
        type            turbulentMixingLengthDissipationRateInlet;
        mixingLength    0.01;
        phi             phi;
        k               k;
        value           uniform 0.000101881;
    }
    outlet
    {
        type            zeroGradient;
    }
}


// ************************************************************************* //
