/*--------------------------------*- C++ -*----------------------------------*\
  =========                 |
  \\      /  F ield         | OpenFOAM: The Open Source CFD Toolbox
   \\    /   O peration     | Website:  https://openfoam.org
    \\  /    A nd           | Version:  6
     \\/     M anipulation  |
\*---------------------------------------------------------------------------*/
FoamFile
{
    version     2.0;
    format      ascii;
    class       surfaceScalarField;
    location    "900";
    object      phi;
}
// * * * * * * * * * * * * * * * * * * * * * * * * * * * * * * * * * * * * * //

dimensions      [1 0 -1 0 0 0 0];

internalField   nonuniform List<scalar> 
852
(
-0.00296392
0.00302131
-0.00400959
0.00104567
-0.00481122
0.000801629
-0.00543206
0.000620849
-0.00583805
0.000405987
-0.00600027
0.000162222
-0.0058901
-0.000110169
-0.00548701
-0.000403085
-0.00481108
-0.000675924
-0.00393221
-0.000878865
-0.00295428
-0.000977933
-0.00199103
-0.000963246
-0.00114697
-0.00084406
-0.000487503
-0.00065946
-0.000485809
-0.000793726
0.000796737
-0.000560045
-0.00023368
2.20164e-05
-0.000582059
0.000522361
-0.000500343
0.000872833
-0.000350471
0.00110352
-0.000230685
0.00123335
-0.000129829
0.00129651
-6.3159e-05
0.00133177
-3.52617e-05
0.00135384
-2.20645e-05
0.00136681
-1.29665e-05
0.00137232
-5.51755e-06
0.00136927
3.05842e-06
0.00135061
1.86532e-05
0.00129625
5.43636e-05
0.00117227
0.000123983
0.00096729
0.000204979
0.00071483
0.000252461
0.000718863
-0.00212435
0.00530032
-0.00314939
0.00207071
-0.00398009
0.00163234
-0.00459811
0.00123887
-0.00500353
0.000811409
-0.00517603
0.000334724
-0.00508379
-0.00020241
-0.00471135
-0.000775523
-0.00409212
-0.00129515
-0.00330612
-0.00166486
-0.00245416
-0.00182989
-0.00163077
-0.00178664
-0.000915911
-0.00155891
-0.000379022
-0.00119635
-0.000107531
-0.000757297
0.000141862
-0.000249442
0.000141813
0.000219391
0.000586145
0.000612515
-0.000626802
0.000880604
-0.000850147
0.00110395
-0.000723687
0.00128314
-0.000529666
0.00140035
-0.000347886
0.00142199
-0.000151467
0.0014273
-6.84769e-05
0.0014337
-4.16559e-05
0.00143907
-2.74301e-05
0.00144263
-1.65313e-05
0.00144463
-7.51327e-06
0.00144452
3.16861e-06
0.00143932
2.38548e-05
0.00140245
9.12324e-05
0.00124298
0.000283456
0.00096468
0.000483278
0.000616746
0.000600395
0.00134588
-0.00149323
0.00703022
-0.00237942
0.0029569
-0.00312217
0.00237509
-0.00365772
0.00177443
-0.00401844
0.00117213
-0.00417818
0.000494462
-0.00408141
-0.000299181
-0.00370724
-0.00114968
-0.00311654
-0.00188585
-0.00240569
-0.00237571
-0.00167086
-0.0025647
-0.000982117
-0.00247538
-0.000390079
-0.00215095
7.52689e-05
-0.00166169
0.00037838
-0.00106041
0.000504324
-0.000375383
0.00064614
0.00148264
-0.000886785
0.00170019
-0.000844352
0.00165077
-0.000800725
0.00163357
-0.000706478
0.00165474
-0.000550843
0.00169765
-0.00039079
0.00154634
0.00147801
0.00143651
0.00140923
0.00139286
0.0013855
0.00138882
0.00141283
0.00150422
0.00124247
0.000545198
0.000921702
0.000804051
0.000521737
0.00100036
0.00188314
-0.00104515
0.00838189
-0.00174884
0.0036606
-0.00224882
0.00287507
-0.00260834
0.00213396
-0.00285663
0.00142042
-0.00295298
0.000590812
-0.00279893
-0.000453227
-0.00238912
-0.00155949
-0.00183143
-0.00244353
-0.00122755
-0.00297958
-0.000652338
-0.00313992
-0.000141582
-0.00298613
0.000290525
-0.00258305
0.000648046
-0.00201921
0.00096501
-0.00137737
0.00132203
-0.000732398
0.00217013
-0.000201962
0.00248765
-0.000309053
0.00215139
-0.000550515
0.00201473
-0.000707695
0.00188064
-0.000666637
0.00175757
-0.000583402
0.00167534
-0.000468611
0.00160432
-0.000319766
0.00173729
-0.000133125
0.00181435
-7.72143e-05
0.00187484
-6.06397e-05
0.00192199
-4.73079e-05
0.00194291
-2.10737e-05
0.00191682
2.5936e-05
0.00181838
9.82854e-05
0.00161394
0.00020429
0.00124917
0.000364609
0.00109262
0.000701755
0.000788025
0.00110864
0.0003278
0.00146059
0.00223115
-0.000729643
0.00947739
-0.00126311
0.00419407
-0.00138645
0.0029984
-0.00148027
0.00222778
-0.00154032
0.00148048
-0.00148527
0.000535769
-0.00118803
-0.00075047
-0.000734668
-0.00201285
-0.000256448
-0.00292175
0.000170873
-0.0034069
0.000517045
-0.00348608
0.000779674
-0.00324876
0.000984216
-0.00278759
0.00115899
-0.00219398
0.001337
-0.00155537
0.00156564
-0.000961044
0.00188822
-0.000524536
0.00198492
-0.000405751
0.00190417
-0.000469761
0.00172712
-0.000530649
0.00156386
-0.000503371
0.00142031
-0.000439856
0.00131055
-0.000358851
0.00125097
-0.000260186
0.00128112
-0.000163275
0.00132309
-0.00011918
0.00137053
-0.000108082
0.00142155
-9.83264e-05
0.00146714
-6.66705e-05
0.00148802
5.0592e-06
0.00146233
0.000123969
0.00137646
0.000290158
0.00123063
0.000510445
0.00109378
0.000838597
0.000938341
0.00126408
0.000585773
0.00181315
0.000484774
0.00233215
-0.000988245
0.00147281
-0.00145
0.000461549
-0.00140152
-0.000630992
0.0105243
-0.000995562
0.00455865
-0.000600053
0.0026029
-0.00030407
0.0019318
-8.5812e-05
0.00126222
0.000262689
0.000187269
0.000762753
-0.00125053
0.00120018
-0.00245027
0.00150403
-0.00322559
0.00166637
-0.00356924
0.00171735
-0.00353705
0.00168804
-0.00321944
0.00161349
-0.00271304
0.00153126
-0.00211175
0.00147359
-0.0014977
0.00146467
-0.000952127
0.00149658
-0.000556448
0.00146481
-0.000373975
0.00134058
-0.000345527
0.00116111
-0.000351184
0.000992708
-0.000334967
0.000854145
-0.000301294
0.000754286
-0.000258992
0.000704894
-0.000210795
0.000711392
-0.000169774
0.000749814
-0.000157602
0.000806582
-0.000164852
0.00087668
-0.000168426
0.000955488
-0.000145479
0.00103349
-7.29476e-05
0.00109233
6.51287e-05
0.00112262
0.00025987
0.00113314
0.00049992
0.00116719
0.000804551
0.0012711
0.00116017
0.00145871
0.00162554
0.0019056
0.00188525
0.00216287
0.00121555
0.00177815
0.000846269
0.000434857
-0.000714518
0.0116994
-0.000596812
0.00444094
0.000487309
0.00151878
0.00117911
0.00124
0.00178579
0.000655546
0.00245252
-0.000479458
0.00299213
-0.00179014
0.00327923
-0.00273737
0.00331174
-0.0032581
0.00313762
-0.00339511
0.00282312
-0.00322255
0.0024323
-0.00282862
0.00202133
-0.00230206
0.00163844
-0.00172887
0.00131481
-0.00117407
0.00107022
-0.000707535
0.000899756
-0.00038598
0.000754299
-0.000228518
0.000597469
-0.000188697
0.000436409
-0.000190124
0.00029372
-0.000192278
0.000181268
-0.000188843
0.000104744
-0.000182469
6.98753e-05
-0.000175927
7.65457e-05
-0.000176445
0.000111721
-0.000192778
0.000164855
-0.000217988
0.000233971
-0.000237543
0.000323298
-0.000234808
0.000439413
-0.000189064
0.000576465
-7.19252e-05
0.000719107
0.000117226
0.000873122
0.000345903
0.00107759
0.00060008
0.00138025
0.000857511
0.00184636
0.00115943
0.00252238
0.00120924
0.00304565
0.000692276
0.00306568
0.000826234
0.00356359
0.00261434
0.00959971
0.00329751
0.00375777
0.00347461
0.00134168
0.00396176
0.000752852
0.00468427
-6.69604e-05
0.00536212
-0.00115731
0.00561703
-0.00204505
0.00546312
-0.00258345
0.00499302
-0.002788
0.00431405
-0.00271614
0.00352953
-0.00243802
0.00272451
-0.0020236
0.0019615
-0.00153905
0.00129471
-0.00106207
0.000748167
-0.000627531
0.000345433
-0.000304801
8.11272e-05
-0.000121675
-9.3952e-05
-5.34387e-05
-0.000230251
-5.23988e-05
-0.000347993
-7.23824e-05
-0.000447726
-9.25454e-05
-0.000526248
-0.000110322
-0.000581221
-0.000127497
-0.000611235
-0.000145915
-0.000618791
-0.00016889
-0.000612762
-0.000198809
-0.00059956
-0.000231192
-0.000579197
-0.000257909
-0.000544499
-0.000269508
-0.00047836
-0.000255205
-0.000349363
-0.000200924
-0.000152816
-7.93228e-05
8.92407e-05
0.000103845
0.000383631
0.000305688
0.00074697
0.000494171
0.00122362
0.000682781
0.00172372
0.000709132
0.00185809
0.000557913
0.000916885
0.00176743
0.0047417
0.0101648
0.0139155
0.0122548
0.00300239
0.0113662
0.00164142
0.0106229
0.000676403
0.00970493
-0.000239378
0.00853189
-0.000871998
0.00721148
-0.00126302
0.00583952
-0.00141603
0.0044873
-0.00136391
0.00321906
-0.00116978
0.00208012
-0.000884664
0.00108804
-0.000546966
0.000281279
-0.000255312
-0.000305903
-4.03503e-05
-0.000663873
5.31684e-05
-0.00085441
6.88611e-05
-0.000961501
5.36508e-05
-0.00103993
2.60337e-05
-0.00111081
-1.50986e-06
-0.00117746
-2.58943e-05
-0.00123848
-4.93048e-05
-0.00129283
-7.31443e-05
-0.00134142
-9.73301e-05
-0.00138837
-0.000121943
-0.00144132
-0.000145859
-0.00150778
-0.000164731
-0.00159484
-0.000170854
-0.00171065
-0.000153698
-0.0018656
-0.00010026
-0.00206874
2.21027e-06
-0.00231121
0.000163147
-0.00260297
0.000395602
-0.00301394
0.00071666
-0.00364758
0.00112781
-0.00457594
0.00161114
-0.00592527
0.00205847
-0.00763312
0.00226576
-0.00744837
0.00158268
-0.00241756
0.00509727
0.0045384
0.00406628
0.00267243
0.00444116
0.000301544
0.0044663
-0.000264496
0.00404195
-0.000447642
0.00333783
-0.000558905
0.00247721
-0.000555406
0.00155334
-0.000440039
0.000637364
-0.000253806
-0.00021017
-3.71333e-05
-0.000882048
0.000124909
-0.00131098
0.000173615
-0.00153397
0.000182646
-0.00164137
0.000160558
-0.0017013
0.000128793
-0.00174431
9.66624e-05
-0.00178527
6.69907e-05
-0.00182849
4.17041e-05
-0.00187498
2.0603e-05
-0.00192704
2.7474e-06
-0.00198548
-1.47058e-05
-0.0020507
-3.21091e-05
-0.00212461
-4.80406e-05
-0.00220988
-6.05891e-05
-0.00230767
-6.69426e-05
-0.00241733
-6.11943e-05
-0.00253529
-3.57433e-05
-0.00265425
1.86964e-05
-0.00276255
0.000110516
-0.00285505
0.000255643
-0.00293673
0.000477277
-0.00300916
0.000789089
-0.0030676
0.00118625
-0.00307146
0.001615
-0.00295094
0.00193795
-0.002248
0.00156283
-0.000561803
-0.000103524
-0.00290118
-0.000436352
0.00503177
0.000842024
0.00139407
0.000771814
0.000371764
0.000464253
4.30683e-05
5.15157e-05
-3.49078e-05
-0.000491354
-1.60437e-05
-0.00107881
3.20459e-05
-0.0016117
9.28483e-05
-0.00201512
0.000149606
-0.00224375
0.000191495
-0.00232634
0.0002075
-0.00234681
0.00019408
-0.00233306
0.000168897
-0.00231356
0.00014105
-0.00230165
0.000116889
-0.00230154
9.65457e-05
-0.00231305
7.84974e-05
-0.00233341
6.20705e-05
-0.00235975
4.69355e-05
-0.00238979
3.27905e-05
-0.00242453
2.0031e-05
-0.00246455
7.90249e-06
-0.00250949
-3.10333e-06
-0.00255851
-1.15688e-05
-0.00260938
-1.60769e-05
-0.00265673
-1.38374e-05
-0.00269144
-1.03504e-06
-0.00270268
2.99262e-05
-0.00267933
8.7171e-05
-0.00260124
0.00017755
-0.00243811
0.000314141
-0.00216189
0.000512873
-0.00175233
0.000776685
-0.00116515
0.00102781
-9.66458e-05
0.000869443
0.00177959
-0.000313405
0.00337614
-0.00170008
0.000560447
-0.0079365
-0.0107995
-0.00572354
-0.00430673
-0.00392113
-0.00386909
-0.00389807
-0.00391043
-0.00387635
-0.00378275
-0.00363346
-0.00344319
-0.00323772
-0.00304636
-0.00288073
-0.00274342
-0.00263063
-0.00253848
-0.00246461
-0.00240733
-0.0023653
-0.00233745
-0.00232238
-0.00231941
-0.00232738
-0.00234374
-0.00236451
-0.00238291
-0.00238837
-0.00236272
-0.00227966
-0.00210605
-0.0017957
-0.00128647
-0.000513304
0.000511049
0.00137691
0.00105944
-0.00064607
)
;

boundaryField
{
    floor
    {
        type            calculated;
        value           nonuniform List<scalar> 
29
(
0
0
0
0
0
0
0
0
0
0
0
0
0
0
0
0
0
0
0
0
-4.03263e-06
-1.02702e-05
-1.5521e-05
-2.02137e-05
-1.69207e-06
-3.00972e-06
-8.79763e-06
-9.71032e-06
-8.46902e-06
)
;
    }
    ceiling
    {
        type            calculated;
        value           nonuniform List<scalar> 
43
(
-4.67067e-05
-4.54349e-05
-4.41688e-05
-2.27555e-05
-1.38409e-05
-8.97333e-06
-5.9377e-06
-3.68508e-06
-2.03502e-06
-7.55039e-07
3.10853e-07
1.22944e-06
2.02768e-06
2.71208e-06
3.27453e-06
3.72876e-06
4.09738e-06
4.3953e-06
4.62672e-06
4.79219e-06
4.89608e-06
4.94725e-06
4.95525e-06
4.92821e-06
4.87061e-06
4.78723e-06
4.68432e-06
4.56362e-06
4.42603e-06
4.2708e-06
4.1078e-06
3.94408e-06
3.78567e-06
3.6404e-06
3.52133e-06
3.45409e-06
3.57679e-06
4.06282e-06
5.43711e-06
6.39694e-06
1.01117e-05
7.08947e-06
-5.70065e-05
)
;
    }
    sWall
    {
        type            calculated;
        value           uniform -0.000271983;
    }
    nWall
    {
        type            calculated;
        value           nonuniform List<scalar> 6(-4.86859e-05 -5.82248e-05 -6.30491e-05 -7.81898e-05 -8.54887e-05 -9.20216e-05);
    }
    sideWalls
    {
        type            empty;
        value           nonuniform 0();
    }
    glass1
    {
        type            calculated;
        value           nonuniform List<scalar> 9(-5.73821e-05 -0.000154657 -0.000236666 -0.000306521 -0.000365852 -0.000415867 -0.000460596 -0.000514685 -0.000575195);
    }
    glass2
    {
        type            calculated;
        value           nonuniform List<scalar> 2(-0.000261224 -0.000289113);
    }
    sun
    {
        type            calculated;
        value           uniform 0;
    }
    heatsource1
    {
        type            calculated;
        value           nonuniform List<scalar> 3(2.04225e-07 2.04153e-07 2.04171e-07);
    }
    heatsource2
    {
        type            calculated;
        value           nonuniform List<scalar> 4(5.12049e-08 5.12834e-08 0 0);
    }
    Table_master
    {
        type            calculated;
        value           nonuniform List<scalar> 9(-1.53173e-07 -1.53266e-07 -1.53299e-07 -1.53321e-07 -1.53337e-07 -1.53348e-07 -1.53354e-07 -1.5335e-07 -1.53322e-07);
    }
    Table_slave
    {
        type            calculated;
        value           nonuniform List<scalar> 9(1.53052e-07 1.53074e-07 1.53055e-07 1.5304e-07 1.53033e-07 1.53036e-07 1.53049e-07 1.5309e-07 1.53168e-07);
    }
    inlet
    {
        type            calculated;
        value           uniform -0.00663328;
    }
    outlet
    {
        type            calculated;
        value           nonuniform List<scalar> 2(0.00825519 0.00290841);
    }
}


// ************************************************************************* //
