/*--------------------------------*- C++ -*----------------------------------*\
  =========                 |
  \\      /  F ield         | OpenFOAM: The Open Source CFD Toolbox
   \\    /   O peration     | Website:  https://openfoam.org
    \\  /    A nd           | Version:  6
     \\/     M anipulation  |
\*---------------------------------------------------------------------------*/
FoamFile
{
    version     2.0;
    format      ascii;
    class       volScalarField;
    location    "300";
    object      nut;
}
// * * * * * * * * * * * * * * * * * * * * * * * * * * * * * * * * * * * * * //

dimensions      [0 2 -1 0 0 0 0];

internalField   nonuniform List<scalar> 
459
(
0.000719928
0.000759729
0.000725037
0.000724882
0.000726623
0.00071966
0.000700388
0.000676916
0.000655552
0.000640191
0.000632402
0.000631477
0.000635217
0.000640585
0.000644268
0.000251661
0.000246822
0.000221948
0.000192908
0.000172902
0.000166097
0.000180232
0.000187767
0.000195197
0.000205501
0.000219743
0.000241057
0.00026718
0.000279048
0.000274967
0.000284518
0.000294343
0.000331893
0.000267462
0.00112862
0.00271115
0.00264955
0.00288828
0.0029965
0.0031148
0.00335021
0.00340458
0.00325399
0.00299981
0.00273078
0.00247707
0.00221451
0.00188108
0.00139155
0.000750949
0.000488756
0.00040981
0.0011531
0.00105769
0.000828191
0.000533546
0.000338397
0.000275802
0.000294438
0.000367741
0.000472864
0.000605026
0.000740046
0.000835514
0.000838605
0.000826131
0.00112584
0.00113884
0.00130355
0.000483424
0.00138337
0.00441598
0.00419356
0.00434174
0.00398019
0.00364124
0.00402561
0.00447848
0.00458854
0.00438772
0.00404869
0.00368063
0.00329718
0.00284387
0.00225498
0.00155116
0.00085419
0.000687072
0.0020456
0.00181904
0.00142469
0.00103362
0.000711724
0.000292822
0.000319133
0.000355565
0.000391479
0.000430791
0.000477251
0.000535428
0.000612897
0.000727426
0.00194924
0.00210541
0.00250604
0.000777843
0.00156793
0.00272305
0.00308449
0.00362236
0.0042161
0.00423248
0.00410941
0.00469395
0.00521408
0.00531147
0.0051491
0.00489211
0.00459377
0.00420717
0.00363197
0.00277028
0.00168269
0.000891165
0.00226545
0.0025879
0.00210727
0.00162113
0.00122792
0.000926509
0.000717526
0.000731725
0.000747784
0.000766026
0.000788818
0.000818826
0.000859767
0.000918068
0.00100684
0.00259041
0.00269219
0.00283449
0.00102661
0.00255334
0.00244285
0.00256102
0.00297763
0.00369266
0.00420641
0.00414626
0.00453459
0.00533859
0.00579133
0.00592898
0.00594378
0.00594102
0.00593413
0.00588455
0.0057328
0.00543968
0.00507726
0.00497637
0.00473431
0.00448082
0.00429801
0.00417613
0.00409098
0.00401648
0.00397461
0.00391502
0.00384221
0.00375844
0.0036668
0.00357095
0.00347452
0.0033773
0.00326728
0.00294138
0.00253445
0.00208742
0.00146229
0.00154528
0.00151704
0.00309603
0.00290773
0.00258364
0.00269988
0.00335805
0.00402793
0.004152
0.00435319
0.00511538
0.00577309
0.00616011
0.00641318
0.00663293
0.00684341
0.00702191
0.00712347
0.00710492
0.0069544
0.00675079
0.00655895
0.00640041
0.00627686
0.00618689
0.00611252
0.00603194
0.00594577
0.00585068
0.00574486
0.00562757
0.00549849
0.00535705
0.00520282
0.00503678
0.00486288
0.00469427
0.00458708
0.00460391
0.00479622
0.00506973
0.00192164
0.00365641
0.00377173
0.00297686
0.00260136
0.00319956
0.0040535
0.00429993
0.00428685
0.00472692
0.00531275
0.00579955
0.00622691
0.00666072
0.00709467
0.00748991
0.00779544
0.00798651
0.00803899
0.0079904
0.00789751
0.00779177
0.00768346
0.0075769
0.00747028
0.00735935
0.00724194
0.0071164
0.00698158
0.00683805
0.00668802
0.00653488
0.00638341
0.00624005
0.006111
0.00599831
0.00590638
0.00588876
0.00622238
0.00732579
0.00227103
0.00430235
0.00496196
0.00420123
0.00268621
0.00352213
0.00457364
0.00475258
0.00448934
0.004384
0.00461374
0.00507486
0.00563804
0.00623861
0.00685363
0.00744803
0.00797512
0.00837728
0.00862653
0.00874864
0.0087786
0.00874985
0.00868183
0.00858924
0.0084806
0.00835968
0.00822646
0.00807945
0.00791733
0.00774018
0.00754968
0.00734913
0.00714415
0.00694405
0.00676308
0.00662195
0.00655104
0.00656361
0.00673223
0.00819832
0.00262712
0.00521692
0.00671425
0.0108086
0.0033758
0.00366868
0.00494334
0.00478845
0.00432777
0.00428223
0.00459041
0.00508042
0.00565943
0.00626607
0.00687842
0.00746843
0.00801173
0.00847953
0.00884192
0.00908937
0.00923056
0.00929324
0.00929332
0.00924893
0.00917303
0.00907363
0.00895332
0.00881218
0.00864991
0.00846657
0.00826265
0.00803923
0.00779844
0.00754461
0.0072861
0.00703994
0.00684468
0.00677479
0.00692591
0.00784731
0.00257747
0.0176767
0.00947709
0.00368525
0.00506563
0.00510373
0.00517447
0.00543204
0.00585258
0.00639771
0.00700101
0.00758779
0.00810278
0.00852233
0.0088626
0.0091448
0.00937704
0.00956035
0.00969452
0.00978279
0.00982094
0.00981923
0.00978469
0.00971993
0.00962641
0.00950643
0.0093624
0.00919605
0.00900813
0.0087986
0.00856707
0.00831373
0.00804089
0.00775554
0.0074733
0.00722069
0.00700479
0.00642055
0.00180101
0.0078811
0.0108158
0.00785904
0.00655854
0.00587663
0.00564337
0.00575893
0.00616647
0.00681191
0.00759527
0.00837401
0.00898151
0.009392
0.00964755
0.00980292
0.00990032
0.00996528
0.0100109
0.0100434
0.010065
0.0100762
0.010075
0.0100475
0.00999075
0.00990954
0.00980877
0.00969179
0.00956019
0.00941397
0.00925205
0.00907291
0.00887507
0.00865722
0.00841792
0.00814836
0.00779628
0.0065705
0.00198193
0.000826079
0.00137036
0.00434423
0.00416886
0.00383093
0.00348568
0.00318137
0.00291924
0.00270147
0.00253126
0.0024114
0.00234165
0.00231523
0.00232321
0.00234407
0.00236263
0.00237288
0.00237457
0.00236963
0.00236023
0.00234816
0.00233479
0.00232062
0.00230589
0.00229171
0.00227769
0.00226304
0.00224745
0.00223088
0.00221341
0.00219509
0.00217596
0.00215598
0.00213515
0.00211346
0.00209102
0.00206852
0.00204622
0.00193148
0.00169993
)
;

boundaryField
{
    floor
    {
        type            nutkWallFunction;
        Cmu             0.09;
        kappa           0.41;
        E               9.8;
        value           nonuniform List<scalar> 
29
(
7.78321e-05
2.66604e-05
2.59785e-05
2.24753e-05
1.83095e-05
1.53859e-05
1.43808e-05
1.64645e-05
1.75664e-05
1.8647e-05
2.01338e-05
2.21692e-05
2.51799e-05
2.88236e-05
3.04648e-05
2.99017e-05
3.12167e-05
3.25631e-05
3.76582e-05
2.88542e-05
2.88541e-05
5.75367e-05
9.41995e-05
0.000123885
7.78321e-05
2.66603e-05
4.799e-05
8.31096e-05
0.000107851
)
;
    }
    ceiling
    {
        type            nutkWallFunction;
        Cmu             0.09;
        kappa           0.41;
        E               9.8;
        value           nonuniform List<scalar> 
43
(
0.000100077
0.000163793
0.000479323
0.000461525
0.000427054
0.000391536
0.00035994
0.000332479
0.000309473
0.000291358
0.000278524
0.000271023
0.000268169
0.000269019
0.000271252
0.000273235
0.000274324
0.000274492
0.00027395
0.00027293
0.000271623
0.000270176
0.000268642
0.000267047
0.000265512
0.000263992
0.000262404
0.000260713
0.000258916
0.00025702
0.000255032
0.000252954
0.000250783
0.000248517
0.000246155
0.000243711
0.000241255
0.000238818
0.000226265
0.000200691
0.000566268
0.000712879
0.000825667
)
;
    }
    sWall
    {
        type            nutkWallFunction;
        Cmu             0.09;
        kappa           0.41;
        E               9.8;
        value           uniform 0.000100078;
    }
    nWall
    {
        type            nutkWallFunction;
        Cmu             0.09;
        kappa           0.41;
        E               9.8;
        value           nonuniform List<scalar> 6(0.000180217 0.000225143 0.000263117 0.000211889 0.000231788 0.000200698);
    }
    sideWalls
    {
        type            empty;
    }
    glass1
    {
        type            nutkWallFunction;
        Cmu             0.09;
        kappa           0.41;
        E               9.8;
        value           nonuniform List<scalar> 9(8.71342e-05 0.000135898 0.000165223 0.000186067 0.000293727 0.000350998 0.000409045 0.00047485 0.000566387);
    }
    glass2
    {
        type            nutkWallFunction;
        Cmu             0.09;
        kappa           0.41;
        E               9.8;
        value           nonuniform List<scalar> 2(0.0003011 0.000295825);
    }
    sun
    {
        type            nutkWallFunction;
        Cmu             0.09;
        kappa           0.41;
        E               9.8;
        value           nonuniform List<scalar> 
14
(
8.71557e-05
9.2014e-05
8.77807e-05
8.77609e-05
8.79731e-05
8.71212e-05
8.47579e-05
8.18691e-05
7.92294e-05
7.73251e-05
7.63575e-05
7.62426e-05
7.67078e-05
7.73748e-05
)
;
    }
    heatsource1
    {
        type            nutkWallFunction;
        Cmu             0.09;
        kappa           0.41;
        E               9.8;
        value           nonuniform List<scalar> 3(0.000174054 0.000183403 0.000180226);
    }
    heatsource2
    {
        type            nutkWallFunction;
        Cmu             0.09;
        kappa           0.41;
        E               9.8;
        value           nonuniform List<scalar> 4(9.09412e-05 5.82248e-05 5.82248e-05 0.000103428);
    }
    Table_master
    {
        type            nutkWallFunction;
        Cmu             0.09;
        kappa           0.41;
        E               9.8;
        value           nonuniform List<scalar> 9(3.23298e-05 3.59107e-05 4.08107e-05 4.55778e-05 5.07317e-05 5.67466e-05 6.41771e-05 7.39208e-05 8.8062e-05);
    }
    Table_slave
    {
        type            nutkWallFunction;
        Cmu             0.09;
        kappa           0.41;
        E               9.8;
        value           nonuniform List<scalar> 9(8.68428e-05 8.85804e-05 9.0541e-05 9.27624e-05 9.55293e-05 9.91584e-05 0.000104085 0.000111054 0.000121567);
    }
    inlet
    {
        type            calculated;
        value           uniform 0.0176767;
    }
    outlet
    {
        type            calculated;
        value           nonuniform List<scalar> 2(0.000826079 0.00137036);
    }
}


// ************************************************************************* //
