/*--------------------------------*- C++ -*----------------------------------*\
  =========                 |
  \\      /  F ield         | OpenFOAM: The Open Source CFD Toolbox
   \\    /   O peration     | Website:  https://openfoam.org
    \\  /    A nd           | Version:  6
     \\/     M anipulation  |
\*---------------------------------------------------------------------------*/
FoamFile
{
    version     2.0;
    format      ascii;
    class       volScalarField;
    location    "1900";
    object      alphat;
}
// * * * * * * * * * * * * * * * * * * * * * * * * * * * * * * * * * * * * * //

dimensions      [1 -1 -1 0 0 0 0];

internalField   nonuniform List<scalar> 
459
(
0.00123689
0.00134977
0.00137537
0.00144105
0.00150193
0.00155937
0.00161647
0.00167091
0.0017091
0.00172371
0.00170775
0.00165628
0.00156694
0.00144229
0.00129608
0.000535746
0.000638355
0.000721094
0.000728239
0.000706768
0.000676172
0.000633764
0.000590642
0.000551505
0.00051693
0.000486463
0.00045953
0.00043562
0.000414301
0.000394791
0.000376124
0.00035702
0.000345881
0.000317375
0.00168354
0.00399997
0.00378532
0.00439027
0.00498325
0.00557755
0.00609346
0.00649566
0.00686962
0.00718091
0.00738683
0.00744344
0.00729781
0.00682469
0.00549749
0.00131951
0.000820264
0.000558264
0.00117542
0.00164628
0.00200248
0.00221335
0.00222296
0.00175343
0.00150358
0.00132639
0.00119122
0.00108441
0.000997864
0.000925055
0.000857436
0.000792071
0.000733888
0.000682631
0.00081893
0.000424626
0.00205468
0.00542644
0.00461783
0.00574899
0.00626794
0.00664514
0.00694
0.00720091
0.00750467
0.00783453
0.0081515
0.00839664
0.00851645
0.00842127
0.00785313
0.00602253
0.00135983
0.00104659
0.00152399
0.00198456
0.0024331
0.00276715
0.00273526
0.000903962
0.000798535
0.000713009
0.000643654
0.00058702
0.00054035
0.000501593
0.000469419
0.000443203
0.000477048
0.000548436
0.000930695
0.00049804
0.00241104
0.0069409
0.00456022
0.00600338
0.00639276
0.00648525
0.00656382
0.0067126
0.00696863
0.00731297
0.00770852
0.00807168
0.00834489
0.00845017
0.00832978
0.00767559
0.0051415
0.0015898
0.00189838
0.0024141
0.00298117
0.00348825
0.00383886
0.00366006
0.00102438
0.000935236
0.000871303
0.000822589
0.000781221
0.000742893
0.000706091
0.000667444
0.000622691
0.000584966
0.000592062
0.0010915
0.000555942
0.00277415
0.00891546
0.00493067
0.00572628
0.00626023
0.00620053
0.0061472
0.00626157
0.00650229
0.0068548
0.00729179
0.00769121
0.00797102
0.00807961
0.00801784
0.00775632
0.00709318
0.0060021
0.00562274
0.00555321
0.00559913
0.00565666
0.005658
0.00547469
0.00465102
0.00424292
0.00400253
0.00381606
0.00362107
0.00334676
0.00297201
0.00251395
0.00200482
0.00150098
0.00111391
0.00110469
0.000763434
0.000690595
0.000831515
0.000933978
0.0031597
0.0110797
0.00677977
0.00553989
0.00605516
0.0062184
0.00605343
0.00616061
0.00636061
0.00668746
0.00711285
0.00752903
0.00780692
0.00786979
0.00773517
0.00750075
0.00727454
0.00712388
0.00712347
0.00714763
0.00711265
0.00700572
0.00682911
0.00656841
0.00617497
0.00581591
0.0054941
0.00518516
0.00487382
0.00454599
0.00414407
0.00364997
0.0030637
0.00241826
0.00184224
0.00135862
0.00106129
0.000908036
0.00128392
0.0009772
0.00352119
0.0126379
0.00971139
0.00703192
0.00656742
0.00659776
0.00643163
0.00633985
0.00643799
0.00674941
0.00719782
0.0076344
0.00789863
0.00790293
0.00768836
0.00743214
0.00736669
0.00756312
0.00780935
0.00789033
0.00777258
0.00750973
0.00714951
0.00672343
0.0062632
0.00583099
0.00543645
0.00507293
0.00474101
0.0044476
0.00419483
0.00389119
0.00346465
0.00293488
0.00242269
0.00193999
0.00160329
0.00148099
0.00146363
0.00110851
0.00359698
0.0114479
0.00994004
0.00881463
0.00812836
0.00735752
0.0067153
0.00644929
0.00657604
0.00699628
0.0075371
0.00799539
0.00819443
0.00807692
0.00775379
0.00750432
0.0076
0.00793806
0.00808338
0.00792899
0.00755572
0.0070444
0.00646382
0.00588223
0.00535902
0.00492051
0.0045575
0.00426019
0.00402832
0.00386606
0.00377671
0.0037423
0.00360793
0.00330246
0.00303382
0.00290934
0.00301418
0.00333122
0.00412675
0.0016867
0.0035066
0.00419088
0.00473757
0.00491183
0.00492891
0.00504922
0.00538812
0.00597615
0.00676015
0.00758539
0.00825773
0.00860942
0.00853027
0.00810057
0.00764437
0.00755991
0.00763687
0.00763945
0.00740978
0.00695139
0.00633603
0.00565703
0.00500613
0.0044522
0.00401835
0.00368869
0.00343579
0.00323915
0.00308423
0.00295804
0.00284841
0.0027463
0.00266802
0.00261041
0.00258911
0.00259877
0.00258077
0.00248245
0.00231509
0.00156669
0.00216571
0.00383543
0.00529723
0.00651756
0.00750751
0.00839507
0.00908251
0.00942428
0.00937406
0.00895431
0.00822693
0.00741504
0.00692504
0.00674802
0.00655695
0.0061963
0.00566719
0.005042
0.00440978
0.00384298
0.00338743
0.003053
0.00281791
0.00265509
0.00254406
0.00247148
0.00242873
0.00241046
0.0024158
0.00244815
0.00249202
0.0025439
0.00259849
0.0026362
0.00262465
0.00254561
0.00224916
0.00124994
0.00251839
0.0053693
0.00734091
0.00825725
0.00887209
0.00929693
0.00924793
0.00865949
0.00776974
0.00682282
0.00603143
0.00546383
0.00508824
0.00475206
0.00434364
0.00387535
0.00340233
0.0029817
0.00264921
0.00241039
0.00224944
0.00214292
0.00207601
0.0020428
0.00203904
0.00205974
0.00210057
0.00215653
0.00223199
0.00232399
0.00242952
0.00254213
0.00264606
0.00271662
0.0027367
0.002706
0.00194586
0.00127874
0.0021508
0.00226556
0.0023501
0.00241748
0.00218738
0.00200841
0.00192362
0.00183667
0.00171078
0.0015555
0.00137933
0.00120519
0.00105158
0.000929954
0.000841855
0.000779249
0.000733438
0.000699453
0.000675418
0.000660703
0.000654523
0.00065573
0.00066322
0.000676255
0.000694596
0.000717676
0.000745273
0.000777702
0.000815576
0.000860043
0.000910626
0.000967336
0.00103067
0.00110099
0.0011777
0.00125968
0.00127683
0.00114014
0.00108149
0.00128007
)
;

boundaryField
{
    floor
    {
        type            compressible::alphatWallFunction;
        Prt             0.85;
        value           nonuniform List<scalar> 
29
(
0.000183348
7.46918e-05
9.00962e-05
0.000102296
0.000103342
0.000100197
9.56952e-05
8.94142e-05
8.29744e-05
7.70796e-05
7.18286e-05
6.71651e-05
6.30117e-05
5.92988e-05
5.59663e-05
5.28972e-05
4.99425e-05
4.68987e-05
4.51145e-05
4.05135e-05
4.05129e-05
5.75834e-05
6.89418e-05
7.77513e-05
0.000183346
7.46908e-05
7.81008e-05
0.000148839
0.000223025
)
;
    }
    ceiling
    {
        type            compressible::alphatWallFunction;
        Prt             0.85;
        value           nonuniform List<scalar> 
43
(
0.00029658
0.000311367
0.000322212
0.000330943
0.00030147
0.0002783
0.000267249
0.000255855
0.000239245
0.000218564
0.000194817
0.000171003
0.000149667
0.000132518
0.000119932
0.000110893
0.000104224
9.92442e-05
9.57047e-05
9.35302e-05
9.26152e-05
9.27942e-05
9.3903e-05
9.58289e-05
9.8531e-05
0.000101919
0.000105953
0.00011067
0.00011615
0.000122545
0.000129773
0.000137819
0.000146741
0.000156573
0.000167215
0.000178503
0.000180853
0.000162016
0.000153859
0.000181306
0.000467379
0.00055061
0.000343551
)
;
    }
    sWall
    {
        type            compressible::alphatWallFunction;
        Prt             0.85;
        value           uniform 0.00029536;
    }
    nWall
    {
        type            compressible::alphatWallFunction;
        Prt             0.85;
        value           nonuniform List<scalar> 6(0.000132766 0.00013888 0.000157277 0.000176841 0.000180787 0.000180976);
    }
    sideWalls
    {
        type            empty;
    }
    glass1
    {
        type            compressible::alphatWallFunction;
        Prt             0.85;
        value           nonuniform List<scalar> 9(0.000170931 0.000230389 0.000278592 0.000324079 0.000369763 0.000417634 0.000462011 0.000471386 0.000460587);
    }
    glass2
    {
        type            compressible::alphatWallFunction;
        Prt             0.85;
        value           nonuniform List<scalar> 2(0.000234317 0.000218462);
    }
    sun
    {
        type            compressible::alphatWallFunction;
        Prt             0.85;
        value           nonuniform List<scalar> 
14
(
0.000175255
0.000190675
0.000194154
0.000203048
0.000211252
0.000218958
0.000226588
0.000233834
0.000238901
0.000240836
0.000238721
0.000231887
0.000219968
0.000203211
)
;
    }
    heatsource1
    {
        type            compressible::alphatWallFunction;
        Prt             0.85;
        value           nonuniform List<scalar> 3(9.79341e-05 0.000118439 0.000133084);
    }
    heatsource2
    {
        type            compressible::alphatWallFunction;
        Prt             0.85;
        value           nonuniform List<scalar> 4(0.000186677 0.000116818 0.000116816 0.000192167);
    }
    Table_master
    {
        type            compressible::alphatWallFunction;
        Prt             0.85;
        value           nonuniform List<scalar> 9(0.000128812 0.000113677 0.000101224 9.09934e-05 8.25388e-05 7.54958e-05 6.95892e-05 6.46422e-05 6.05796e-05);
    }
    Table_slave
    {
        type            compressible::alphatWallFunction;
        Prt             0.85;
        value           nonuniform List<scalar> 9(0.000145848 0.000133263 0.00012415 0.000117153 0.000111172 0.000105598 0.000100212 9.45195e-05 8.78771e-05);
    }
    inlet
    {
        type            fixedValue;
        value           uniform 1.94e-05;
    }
    outlet
    {
        type            zeroGradient;
    }
}


// ************************************************************************* //
