/*--------------------------------*- C++ -*----------------------------------*\
  =========                 |
  \\      /  F ield         | OpenFOAM: The Open Source CFD Toolbox
   \\    /   O peration     | Website:  https://openfoam.org
    \\  /    A nd           | Version:  6
     \\/     M anipulation  |
\*---------------------------------------------------------------------------*/
FoamFile
{
    version     2.0;
    format      ascii;
    class       volScalarField;
    location    "300";
    object      alphat;
}
// * * * * * * * * * * * * * * * * * * * * * * * * * * * * * * * * * * * * * //

dimensions      [1 -1 -1 0 0 0 0];

internalField   nonuniform List<scalar> 
459
(
0.00104903
0.00112393
0.00113283
0.00117925
0.00122057
0.0012579
0.00129313
0.00132852
0.0013586
0.00137644
0.00137543
0.00134941
0.001295
0.00121431
0.00111994
0.000408696
0.000465212
0.000489378
0.000488766
0.000470967
0.000455357
0.000445852
0.000436146
0.000421986
0.000400898
0.000372711
0.000339046
0.000303966
0.000277571
0.000275755
0.00031148
0.000453146
0.000718955
0.000570071
0.0014805
0.00291253
0.00260579
0.00299368
0.00332214
0.00366759
0.00399474
0.00424658
0.00446552
0.0046648
0.00480833
0.00486334
0.00479548
0.0045104
0.00361483
0.00109939
0.000623214
0.000480073
0.00131267
0.0013454
0.00149897
0.00165589
0.00176064
0.00173948
0.00171513
0.0016733
0.00158943
0.00144828
0.00124833
0.00100354
0.000751872
0.000579376
0.00062374
0.000949319
0.00188523
0.000747765
0.00185048
0.0039587
0.00294547
0.00381732
0.0040743
0.0042465
0.00437591
0.00448807
0.00462291
0.00477482
0.00491016
0.00501455
0.00509998
0.00516314
0.00507808
0.00420359
0.00102901
0.000771119
0.000980525
0.00105336
0.00112824
0.00120983
0.00126353
0.000637836
0.0005996
0.000568236
0.00054056
0.00051359
0.000485305
0.000455025
0.000423588
0.000394879
0.000528883
0.000946301
0.0025299
0.000867455
0.00221963
0.00535846
0.00276792
0.00394854
0.00413023
0.00412059
0.00410099
0.00414365
0.00426024
0.00440673
0.00452919
0.00462046
0.00473128
0.00490838
0.00509164
0.00496359
0.00378544
0.00122208
0.00140208
0.00151353
0.00160703
0.00169767
0.00180714
0.00185002
0.000722303
0.000701996
0.000705977
0.000727169
0.00075722
0.0007853
0.000797371
0.000778611
0.000751546
0.000840038
0.00114561
0.00233157
0.000968316
0.00260077
0.00729045
0.00299073
0.00367487
0.00399972
0.00389504
0.00379927
0.00385019
0.00401923
0.00420495
0.00432105
0.00437198
0.00444217
0.004588
0.00472406
0.00472302
0.00442233
0.00378456
0.00342275
0.00329349
0.00327414
0.00335412
0.00353841
0.00376126
0.00375644
0.0038938
0.00406105
0.00420054
0.00428837
0.00430742
0.00423242
0.00402479
0.00349106
0.00289082
0.0023079
0.00196745
0.00232699
0.00121355
0.00110797
0.00107115
0.00300363
0.00944734
0.00448507
0.00325277
0.00373715
0.00374058
0.00363417
0.0036969
0.00395787
0.00417836
0.0042759
0.00427989
0.00430348
0.00440442
0.00450066
0.00447714
0.00435986
0.00427619
0.00433314
0.00447291
0.00464998
0.00487234
0.00511767
0.00533017
0.00544947
0.00551253
0.0055283
0.00551938
0.00550424
0.00547053
0.00538972
0.0052302
0.00492573
0.00442722
0.00384215
0.00322307
0.00304872
0.00281974
0.00292704
0.00138067
0.00341512
0.0111754
0.00751198
0.00417976
0.00337795
0.00337732
0.00368831
0.0038543
0.00410841
0.00427218
0.00431251
0.00425492
0.00424174
0.00434389
0.00445576
0.0044475
0.00443639
0.00466602
0.00507524
0.00543873
0.00569142
0.00585711
0.00594963
0.0059788
0.0059424
0.0058703
0.00580536
0.00578536
0.00580882
0.005837
0.00584271
0.00582211
0.00578239
0.00563664
0.00531602
0.00500064
0.00477354
0.00443955
0.00401309
0.00164697
0.00352196
0.0108946
0.00891123
0.00701148
0.00549917
0.00468702
0.00457436
0.00446887
0.00446258
0.00447181
0.00438575
0.00422317
0.00418912
0.00435144
0.0045383
0.00459869
0.00478595
0.00534921
0.00576731
0.00596571
0.00600509
0.00594816
0.0058349
0.00569697
0.00557436
0.00549929
0.00549397
0.00555278
0.00563926
0.00572008
0.00578888
0.00587807
0.00604947
0.00635548
0.00670629
0.00692863
0.00698865
0.00628162
0.00598684
0.00181198
0.00345782
0.00420549
0.0047582
0.00492928
0.00483952
0.00465451
0.00455127
0.00455313
0.00463844
0.00459964
0.00436544
0.00407125
0.00409024
0.00441836
0.00473447
0.00495613
0.00530744
0.00562919
0.00573752
0.00569098
0.00555854
0.00537874
0.00518474
0.00501765
0.00492064
0.00491594
0.00498325
0.00507283
0.00514499
0.00516836
0.00512257
0.00499958
0.00480721
0.00457032
0.00429486
0.00398426
0.00354395
0.00306405
0.0027489
0.00171164
0.00252798
0.004099
0.00469728
0.00492842
0.00509738
0.00522172
0.00515903
0.00467657
0.00408246
0.00362784
0.00392332
0.004546
0.00508835
0.00519783
0.00522031
0.0051286
0.00499745
0.00486105
0.00472861
0.00460629
0.0045051
0.00444142
0.00443022
0.00447532
0.00456624
0.00468679
0.00481202
0.00492271
0.0050095
0.00505426
0.00503497
0.00491516
0.00467863
0.00431128
0.00381441
0.00325691
0.00269132
0.00150736
0.00270539
0.00485931
0.00539026
0.00538592
0.00528691
0.00518544
0.00469186
0.00363607
0.00293963
0.00256344
0.00356853
0.00402101
0.00425059
0.00425332
0.00414106
0.00401683
0.00391975
0.00384929
0.0038001
0.00376956
0.00375768
0.00376545
0.00379299
0.00383884
0.00390167
0.00398376
0.00409223
0.00423712
0.00441578
0.0046183
0.00481229
0.00495705
0.00501486
0.00493338
0.00464999
0.00425708
0.00350096
0.00154198
0.00236157
0.00247952
0.00257848
0.00271006
0.00252029
0.00230597
0.00204246
0.00179973
0.00157986
0.00128462
0.00091529
0.000856366
0.000866044
0.000870953
0.000849458
0.000825589
0.000809354
0.000801124
0.000798498
0.000800063
0.000805129
0.000813402
0.000824773
0.000839149
0.000856383
0.000876364
0.000899398
0.000926966
0.000962766
0.00101307
0.00108493
0.00118169
0.00130099
0.00144049
0.00157935
0.00167414
0.00170538
0.001639
0.00152055
0.001384
)
;

boundaryField
{
    floor
    {
        type            compressible::alphatWallFunction;
        Prt             0.85;
        value           nonuniform List<scalar> 
29
(
0.000159054
5.50055e-05
6.3804e-05
6.75241e-05
6.74279e-05
6.46894e-05
6.22787e-05
6.08067e-05
5.92968e-05
5.70833e-05
5.37694e-05
4.93057e-05
4.39187e-05
3.8234e-05
3.39058e-05
3.36143e-05
3.94791e-05
6.19423e-05
0.000101873
7.97739e-05
7.97729e-05
0.000106087
0.000123387
0.000137735
0.000159052
5.50048e-05
6.60853e-05
0.000109532
0.000173182
)
;
    }
    ceiling
    {
        type            compressible::alphatWallFunction;
        Prt             0.85;
        value           nonuniform List<scalar> 
43
(
0.000323688
0.000338739
0.000351311
0.00036804
0.000344051
0.000316699
0.000282693
0.00025094
0.000221766
0.00018192
0.000130404
0.000121972
0.000123357
0.000124066
0.00012099
0.000117558
0.000115216
0.000114027
0.000113647
0.000113873
0.000114604
0.000115798
0.000117437
0.000119507
0.000121985
0.000124851
0.000128148
0.00013208
0.000137163
0.000144263
0.00015433
0.000167761
0.000184152
0.00020311
0.000221759
0.000234393
0.000238539
0.000229721
0.000213885
0.000195451
0.000461361
0.000552347
0.000367283
)
;
    }
    sWall
    {
        type            compressible::alphatWallFunction;
        Prt             0.85;
        value           uniform 0.000322455;
    }
    nWall
    {
        type            compressible::alphatWallFunction;
        Prt             0.85;
        value           nonuniform List<scalar> 6(0.000151968 0.000194602 0.000230352 0.000211756 0.000216405 0.000195097);
    }
    sideWalls
    {
        type            empty;
    }
    glass1
    {
        type            compressible::alphatWallFunction;
        Prt             0.85;
        value           nonuniform List<scalar> 9(0.000145154 0.000203436 0.000252035 0.000299575 0.000347856 0.000398138 0.000448818 0.000462007 0.000454397);
    }
    glass2
    {
        type            compressible::alphatWallFunction;
        Prt             0.85;
        value           nonuniform List<scalar> 2(0.000250212 0.000237258);
    }
    sun
    {
        type            compressible::alphatWallFunction;
        Prt             0.85;
        value           nonuniform List<scalar> 
14
(
0.000149169
0.000159599
0.000160835
0.000167264
0.000172962
0.000178091
0.000182914
0.000187745
0.00019184
0.000194265
0.000194129
0.000190594
0.000183174
0.000172106
)
;
    }
    heatsource1
    {
        type            compressible::alphatWallFunction;
        Prt             0.85;
        value           nonuniform List<scalar> 3(0.00017217 0.000157572 0.000152384);
    }
    heatsource2
    {
        type            compressible::alphatWallFunction;
        Prt             0.85;
        value           nonuniform List<scalar> 4(0.000156351 8.79642e-05 8.79631e-05 0.000146503);
    }
    Table_master
    {
        type            compressible::alphatWallFunction;
        Prt             0.85;
        value           nonuniform List<scalar> 9(9.01262e-05 8.44216e-05 7.97087e-05 7.55223e-05 7.14163e-05 6.70804e-05 6.24036e-05 5.75068e-05 5.29955e-05);
    }
    Table_slave
    {
        type            compressible::alphatWallFunction;
        Prt             0.85;
        value           nonuniform List<scalar> 9(0.000102583 9.96061e-05 0.000100189 0.000103289 0.000107667 0.000111739 0.000113481 0.000110762 0.000106829);
    }
    inlet
    {
        type            fixedValue;
        value           uniform 1.94e-05;
    }
    outlet
    {
        type            zeroGradient;
    }
}


// ************************************************************************* //
