/*--------------------------------*- C++ -*----------------------------------*\
  =========                 |
  \\      /  F ield         | OpenFOAM: The Open Source CFD Toolbox
   \\    /   O peration     | Website:  https://openfoam.org
    \\  /    A nd           | Version:  6
     \\/     M anipulation  |
\*---------------------------------------------------------------------------*/
FoamFile
{
    version     2.0;
    format      ascii;
    class       surfaceScalarField;
    location    "300";
    object      phi;
}
// * * * * * * * * * * * * * * * * * * * * * * * * * * * * * * * * * * * * * //

dimensions      [1 0 -1 0 0 0 0];

internalField   nonuniform List<scalar> 
852
(
-0.00291271
0.0029748
-0.00377817
0.000865521
-0.00453912
0.000761015
-0.00518095
0.0006419
-0.00566284
0.00048196
-0.00595576
0.000292984
-0.00602815
7.24496e-05
-0.00584425
-0.000183836
-0.00537738
-0.000466804
-0.00464113
-0.000736192
-0.00370296
-0.000938103
-0.00267196
-0.00103095
-0.00167094
-0.00100096
-0.000785917
-0.000884966
-0.000783599
-0.000938835
0.000944902
-0.000998709
6.00096e-05
-0.000886283
-0.000112268
-0.00075936
-0.000126744
-0.000687717
-7.14706e-05
-0.000655558
-3.20082e-05
-0.000632451
-2.29732e-05
-0.000607258
-2.50641e-05
-0.000574339
-3.27853e-05
-0.000531478
-4.27233e-05
-0.000476688
-5.46498e-05
-0.000408457
-6.80894e-05
-0.000329325
-7.89934e-05
-0.000246799
-8.23973e-05
-0.000152595
-9.40837e-05
-1.54902e-05
-0.000136961
0.000178754
-0.000194076
0.000482455
-0.000303502
0.000487908
-0.00210257
0.00524406
-0.00304471
0.00180773
-0.00387981
0.00159618
-0.00453608
0.00129824
-0.00502344
0.000969384
-0.00532761
0.000597219
-0.00541845
0.000163351
-0.00526075
-0.00034147
-0.00483329
-0.000894203
-0.00415796
-0.00141147
-0.00331078
-0.00178523
-0.00239514
-0.00194653
-0.00151915
-0.00187689
-0.000806527
-0.00159753
-0.000448317
-0.00114175
2.69967e-05
-0.00047531
2.69897e-05
-8.86612e-05
0.00104963
9.80122e-05
-0.000126573
0.000412431
-0.000426614
0.000526601
-0.000240833
0.000543838
-8.86111e-05
0.000534611
-2.26792e-05
0.000513446
-1.71049e-06
0.000487266
1.22061e-06
0.000459568
-4.96835e-06
0.000432702
-1.57236e-05
0.000407481
-2.92855e-05
0.000384086
-4.45448e-05
0.000365195
-5.99556e-05
0.00035771
-7.47814e-05
0.000351424
-8.76866e-05
0.000293531
-7.89508e-05
0.000275392
-0.000175798
0.000270278
-0.000298196
0.000771371
-0.00150433
0.0070023
-0.00237472
0.00267818
-0.00315227
0.0023738
-0.0037409
0.00188694
-0.00419075
0.0014193
-0.00448797
0.000894496
-0.00459438
0.00026983
-0.00446037
-0.000475421
-0.00406018
-0.00129434
-0.00343032
-0.00204128
-0.00266461
-0.00255088
-0.00186327
-0.00274782
-0.00111559
-0.00262452
-0.000501374
-0.00221169
-7.84571e-05
-0.00156461
0.000215407
-0.000769119
0.000242453
0.00174613
-0.000679025
0.00198074
-0.000361151
0.00173466
-0.000180512
0.00159665
-0.00010281
0.00155121
-4.31419e-05
0.00156071
-3.21487e-05
0.00155918
0.00156059
0.00155582
0.00154032
0.00151128
0.00146698
0.0014073
0.00133279
0.00124541
0.000889119
0.00027751
0.0004724
0.000241105
5.06382e-05
0.000123797
0.000841492
-0.00108265
0.00841184
-0.00183261
0.00342822
-0.00238746
0.00292872
-0.00281986
0.00231941
-0.00317347
0.00177298
-0.00342556
0.00114665
-0.00352724
0.000371579
-0.00340012
-0.000602487
-0.0030156
-0.0016788
-0.00243943
-0.0026174
-0.00178591
-0.00320436
-0.00114017
-0.00339351
-0.000559835
-0.0032048
-7.86452e-05
-0.00269282
0.000317661
-0.00196086
0.000716922
-0.00116833
0.00143919
-0.000479767
0.00176146
-0.000309742
0.00136456
-0.000282077
0.00135282
-0.000349364
0.00136676
-0.000194415
0.00136173
-9.77499e-05
0.00137382
-5.51983e-05
0.00138228
-4.05556e-05
0.00142113
-3.89427e-05
0.001494
-7.2967e-05
0.00160498
-0.000111067
0.00175528
-0.000150389
0.00193793
-0.000182731
0.00212878
-0.000190937
0.0022733
-0.000144606
0.00227639
-3.16887e-06
0.00202008
0.000256225
0.00166155
0.000636093
0.000812208
0.0010905
-0.000348048
0.00128439
0.000517824
-0.000772043
0.0095718
-0.00139817
0.00405441
-0.00159208
0.0031227
-0.00180394
0.00253133
-0.00200644
0.00197554
-0.00215954
0.00129982
-0.00221535
0.000427452
-0.00205106
-0.000766713
-0.00167482
-0.00205499
-0.00118936
-0.00310283
-0.000703256
-0.00369042
-0.000268681
-0.00382804
8.8273e-05
-0.0035617
0.000367257
-0.00297175
0.000607004
-0.00220056
0.000846866
-0.00140814
0.00112932
-0.000762169
0.00122558
-0.000405964
0.00122902
-0.000285472
0.00112055
-0.000240852
0.00106333
-0.000137149
0.00102551
-5.98944e-05
0.00100218
-3.18218e-05
0.000998313
-3.66486e-05
0.00102582
-6.64001e-05
0.00107591
-0.000123011
0.00115871
-0.000193813
0.00128007
-0.000271701
0.00144197
-0.000344579
0.00163692
-0.000385845
0.00183978
-0.000347411
0.00200382
-0.000167162
0.0020776
0.000182488
0.00207058
0.000643172
0.00207232
0.00108881
0.00208749
0.00126936
0.00169121
0.000914176
0.00114788
0.000543212
0.000180727
0.000967036
0.000237441
-0.000666048
0.0106767
-0.00114366
0.00453209
-0.000818257
0.00279737
-0.000735894
0.00244904
-0.000766369
0.00200609
-0.000782667
0.00131618
-0.00070431
0.000349162
-0.000429695
-0.00104126
-7.3035e-05
-0.00241159
0.000255947
-0.00343177
0.000514376
-0.00394881
0.000684951
-0.00399857
0.000770894
-0.0036476
0.000807029
-0.00300784
0.000820914
-0.0022144
0.000835947
-0.00142313
0.000862797
-0.000788978
0.000854355
-0.000397484
0.000791395
-0.000222475
0.000682495
-0.000131917
0.000604305
-5.8924e-05
0.000558196
-1.37509e-05
0.000531903
-5.49321e-06
0.000521992
-2.6702e-05
0.000527994
-7.23658e-05
0.000548699
-0.00014368
0.000592967
-0.000238047
0.000672475
-0.000351178
0.000798042
-0.000470121
0.000977756
-0.000565541
0.00121375
-0.000583393
0.00150223
-0.000455628
0.00180382
-0.000119076
0.00208387
0.000363157
0.00239145
0.00078126
0.00268373
0.000977135
0.00273392
0.000863997
0.00247668
0.000800452
0.00203199
0.00141172
0.00232621
-0.000880935
0.0120403
-0.000830525
0.00448175
0.000150492
0.00181642
0.000498731
0.00210087
0.000604069
0.00190082
0.000736032
0.00118429
0.00106204
2.32285e-05
0.00145926
-0.00143841
0.00171002
-0.0026623
0.00180133
-0.00352304
0.00177271
-0.00392015
0.00163754
-0.00386335
0.00141742
-0.00342743
0.00115688
-0.00274725
0.000896469
-0.00195394
0.000663805
-0.00119043
0.000487002
-0.000612143
0.000357338
-0.00026779
0.000246513
-0.000111624
0.000150524
-3.59014e-05
8.27502e-05
8.87515e-06
4.07289e-05
2.82949e-05
1.20031e-05
2.32567e-05
-1.42818e-05
-3.93719e-07
-4.18492e-05
-4.4776e-05
-6.77492e-05
-0.000117761
-8.22541e-05
-0.00022353
-7.22806e-05
-0.00036115
-2.43831e-05
-0.000518027
7.55407e-05
-0.00066548
0.00024595
-0.00075382
0.000513372
-0.000723063
0.000908015
-0.000513723
0.00136785
-9.66681e-05
0.00182491
0.000324219
0.00224232
0.000559746
0.00254445
0.000561871
0.00273033
0.000614568
0.00248655
0.00165551
0.00487048
0.00248062
0.0100966
0.00303191
0.00393052
0.0028844
0.001964
0.0028563
0.00212904
0.00287386
0.00188335
0.00310079
0.000957444
0.00349569
-0.000371583
0.00367336
-0.00161601
0.00359995
-0.00258884
0.00333622
-0.00325929
0.00293404
-0.00351793
0.00242826
-0.00335753
0.00184836
-0.00284748
0.00125808
-0.00215692
0.000716633
-0.00141246
0.000264063
-0.000737831
-3.91513e-05
-0.000308907
-0.00021298
-9.39444e-05
-0.000318262
-6.32653e-06
-0.000390446
3.62967e-05
-0.000440839
5.92816e-05
-0.00048199
6.94587e-05
-0.000526632
6.79095e-05
-0.000580228
5.32088e-05
-0.000645266
2.02634e-05
-0.000722362
-4.06714e-05
-0.000806274
-0.000139635
-0.000891666
-0.000275785
-0.000974628
-0.000435099
-0.00104825
-0.000591894
-0.00109186
-0.000710242
-0.00106587
-0.00074908
-0.000910821
-0.000668794
-0.00056381
-0.000443682
-0.000161146
-7.84326e-05
0.000111084
0.00028752
0.000231065
0.000441896
0.000385953
0.000459697
9.693e-05
0.00194457
0.0052773
0.0106864
0.0146118
0.0121182
0.0044576
0.0104081
0.00383927
0.00915879
0.00313268
0.00831323
0.00180307
0.00743612
0.000505584
0.00641554
-0.000595397
0.00536922
-0.00154253
0.00444588
-0.00233594
0.00357074
-0.00264275
0.0026928
-0.00247954
0.00176079
-0.00191542
0.000882018
-0.00127811
0.000128926
-0.000659341
-0.000376616
-0.000232271
-0.000638359
-4.71552e-05
-0.000763188
3.08908e-05
-0.00083308
6.35677e-05
-0.000878718
8.19371e-05
-0.000917089
9.76528e-05
-0.000959352
0.000111721
-0.00101366
0.00012221
-0.00108513
0.00012467
-0.00117646
0.000111569
-0.00129141
7.42486e-05
-0.00143964
8.55652e-06
-0.00163503
-8.04472e-05
-0.00189512
-0.000175054
-0.0022412
-0.000245872
-0.00269186
-0.000259631
-0.00325653
-0.000184455
-0.00392724
1.87055e-06
-0.00468857
0.000317605
-0.00552441
0.000757361
-0.00650965
0.00127271
-0.00784715
0.00177934
-0.00942427
0.00203676
-0.00859473
0.00111497
-0.00298126
0.00548064
0.00548225
0.00484952
0.00447033
0.00551702
0.00246513
0.00566492
0.00165513
0.00533607
0.000834382
0.00473015
1.04868e-05
0.0040276
-0.000840029
0.00344701
-0.00175532
0.00268643
-0.00188211
0.00182521
-0.00161826
0.000743792
-0.000833959
-0.000181156
-0.000353121
-0.000784744
-5.57403e-05
-0.00106091
4.38965e-05
-0.0011801
7.20332e-05
-0.00122947
8.02541e-05
-0.00125199
8.60753e-05
-0.00126467
9.46065e-05
-0.00127408
0.000107057
-0.00128458
0.000122212
-0.00130004
0.000137653
-0.00132485
0.000149452
-0.00136529
0.000151982
-0.00143027
0.000139184
-0.00152922
0.000107443
-0.0016696
5.98739e-05
-0.00185324
8.51444e-06
-0.00207542
-2.37662e-05
-0.00232645
-8.67539e-06
-0.00259702
8.60435e-05
-0.00288672
0.000291509
-0.00318048
0.000611305
-0.0034331
0.00100993
-0.00357863
0.00141819
-0.00352959
0.00173025
-0.00300551
0.00151262
-0.00143297
-0.000457645
-0.00433437
-0.000550805
0.00607855
0.00137221
0.00254727
0.0021806
0.00165671
0.0025426
0.00129308
0.00261432
0.000762622
0.00239566
0.000229105
0.00207779
-0.000522172
0.00173848
-0.00141584
0.000882207
-0.00102571
-0.000108237
-0.00062772
-0.000944595
2.41887e-06
-0.00139794
0.00010023
-0.00156003
0.000106353
-0.00159778
8.16276e-05
-0.00158964
6.38793e-05
-0.00156698
5.75787e-05
-0.00153815
5.72275e-05
-0.00150482
6.12551e-05
-0.0014666
6.88145e-05
-0.00142347
7.90605e-05
-0.00137658
9.07463e-05
-0.00132891
0.000101757
-0.00128584
0.000108877
-0.00125492
0.000108224
-0.00124414
9.66165e-05
-0.00125843
7.40984e-05
-0.00129723
4.72562e-05
-0.00135056
2.94847e-05
-0.00140405
4.47335e-05
-0.00143237
0.000114286
-0.00140241
0.000261469
-0.0012888
0.000497613
-0.00103501
0.000756066
-0.000559781
0.000942887
0.000218225
0.000952174
0.00128395
0.000446831
0.00153565
-0.000709444
-0.0027115
-0.0088702
-0.0114482
-0.00532885
-0.0027564
-0.00107896
0.000232886
0.00101402
0.00126278
0.000761605
-0.000634353
-0.00164793
-0.00226541
-0.0022534
-0.00214389
-0.00202834
-0.00193751
-0.0018644
-0.0017976
-0.00173117
-0.00166075
-0.00158283
-0.00149474
-0.00139506
-0.00128447
-0.00116688
-0.00105006
-0.000944968
-0.000862514
-0.000807029
-0.000769464
-0.000716831
-0.000594856
-0.000325926
0.000178907
0.000941901
0.00189148
0.00285021
0.00330364
0.00260096
)
;

boundaryField
{
    floor
    {
        type            calculated;
        value           nonuniform List<scalar> 
29
(
0
0
0
0
0
0
0
0
0
0
0
0
0
0
0
0
0
0
0
0
-5.25939e-06
-1.3002e-05
-1.93107e-05
-2.41724e-05
-2.25991e-06
-5.95853e-06
-1.59625e-05
-1.74353e-05
-1.24745e-05
)
;
    }
    ceiling
    {
        type            calculated;
        value           nonuniform List<scalar> 
43
(
-4.32527e-05
-4.20372e-05
-4.07669e-05
-2.52007e-05
-2.0738e-05
-1.87972e-05
-1.85195e-05
-1.9662e-05
-2.09673e-05
-1.94032e-05
-1.20161e-05
-1.02375e-05
-9.60295e-06
-9.30231e-06
-9.21655e-06
-9.22656e-06
-9.24663e-06
-9.24755e-06
-9.22805e-06
-9.18903e-06
-9.13102e-06
-9.05468e-06
-8.96167e-06
-8.85527e-06
-8.74044e-06
-8.62284e-06
-8.50673e-06
-8.39199e-06
-8.27164e-06
-8.13364e-06
-7.96704e-06
-7.77087e-06
-7.55214e-06
-7.3138e-06
-7.02724e-06
-6.78551e-06
-6.65044e-06
-6.70125e-06
-6.86568e-06
-6.51062e-06
8.21013e-06
5.21e-06
-4.55363e-05
)
;
    }
    sWall
    {
        type            calculated;
        value           uniform -0.000252327;
    }
    nWall
    {
        type            calculated;
        value           nonuniform List<scalar> 6(-5.67094e-05 -5.66803e-05 -5.76484e-05 -7.99706e-05 -8.73215e-05 -0.000104134);
    }
    sideWalls
    {
        type            empty;
        value           nonuniform 0();
    }
    glass1
    {
        type            calculated;
        value           nonuniform List<scalar> 9(-6.20217e-05 -0.000166636 -0.000253851 -0.000326843 -0.000387866 -0.000438831 -0.000482578 -0.000536867 -0.000597992);
    }
    glass2
    {
        type            calculated;
        value           nonuniform List<scalar> 2(-0.000309835 -0.000336255);
    }
    sun
    {
        type            calculated;
        value           uniform 0;
    }
    heatsource1
    {
        type            calculated;
        value           nonuniform List<scalar> 3(2.05467e-07 2.05728e-07 2.06099e-07);
    }
    heatsource2
    {
        type            calculated;
        value           nonuniform List<scalar> 4(5.13559e-08 5.14758e-08 0 0);
    }
    Table_master
    {
        type            calculated;
        value           nonuniform List<scalar> 9(-1.54141e-07 -1.54186e-07 -1.54224e-07 -1.54267e-07 -1.54318e-07 -1.54374e-07 -1.54436e-07 -1.54504e-07 -1.54576e-07);
    }
    Table_slave
    {
        type            calculated;
        value           nonuniform List<scalar> 9(1.53873e-07 1.53862e-07 1.53816e-07 1.53753e-07 1.53678e-07 1.53603e-07 1.53549e-07 1.53553e-07 1.53567e-07);
    }
    inlet
    {
        type            calculated;
        value           uniform -0.00650535;
    }
    outlet
    {
        type            calculated;
        value           nonuniform List<scalar> 2(0.00916577 0.00261997);
    }
}


// ************************************************************************* //
