/*--------------------------------*- C++ -*----------------------------------*\
  =========                 |
  \\      /  F ield         | OpenFOAM: The Open Source CFD Toolbox
   \\    /   O peration     | Website:  https://openfoam.org
    \\  /    A nd           | Version:  6
     \\/     M anipulation  |
\*---------------------------------------------------------------------------*/
FoamFile
{
    version     2.0;
    format      ascii;
    class       volScalarField;
    location    "700";
    object      epsilon;
}
// * * * * * * * * * * * * * * * * * * * * * * * * * * * * * * * * * * * * * //

dimensions      [0 2 -3 0 0 0 0];

internalField   nonuniform List<scalar> 
459
(
9.89199e-05
0.000107027
6.84053e-05
7.27589e-05
7.97013e-05
8.74407e-05
9.54852e-05
0.000103521
0.000111418
0.00011893
0.000125567
0.000130542
0.000132887
0.000131383
0.000122921
5.64413e-06
2.04906e-05
1.33195e-05
8.98032e-06
6.7507e-06
5.76894e-06
5.54343e-06
6.01438e-06
6.8631e-06
7.87097e-06
8.86243e-06
9.70951e-06
1.07647e-05
1.19673e-05
1.31712e-05
1.4522e-05
1.48144e-05
1.15972e-05
1.3093e-05
0.000607126
0.00140178
0.000134127
5.50058e-05
5.20781e-05
5.57342e-05
6.08086e-05
6.65689e-05
7.30115e-05
8.03085e-05
8.86566e-05
9.81371e-05
0.000108412
0.000118346
0.000129194
0.00017326
5.18429e-05
3.80966e-05
4.45137e-05
2.83845e-05
2.20372e-05
1.93018e-05
1.41544e-05
8.94593e-06
1.04042e-05
1.40566e-05
1.87464e-05
2.37218e-05
2.83921e-05
3.11002e-05
3.01391e-05
2.54282e-05
2.10667e-05
1.82642e-05
2.02484e-05
2.17105e-05
0.00179096
0.00525945
0.00054933
0.000102623
6.66718e-05
6.54649e-05
7.01257e-05
7.66934e-05
8.44632e-05
9.34919e-05
0.000104009
0.000116156
0.000129737
0.000144076
0.000159415
0.000182355
0.000238316
0.00011166
9.63924e-05
7.33633e-05
7.05167e-05
6.71289e-05
5.8714e-05
1.10298e-05
1.21383e-05
1.57961e-05
2.01104e-05
2.48599e-05
3.00066e-05
3.52751e-05
4.05914e-05
4.89817e-05
3.61049e-05
3.47152e-05
3.44617e-05
3.64837e-05
0.00381473
0.0119087
0.00182069
0.000296032
0.000121199
9.48072e-05
9.28837e-05
9.83389e-05
0.000106943
0.00011776
0.000130572
0.000145109
0.000160739
0.000176722
0.000193922
0.000218732
0.000271666
0.000392921
0.000138499
0.000105262
0.000102264
0.000106013
0.000115743
0.000135521
0.000177058
0.000167978
0.000161153
0.000154994
0.000149575
0.000145394
0.000143375
0.000145086
0.000154366
7.4861e-05
7.7054e-05
9.54774e-05
8.39923e-05
0.00656573
0.0200774
0.00450983
0.000993404
0.000341395
0.000188456
0.000145319
0.000136839
0.00014092
0.000151718
0.000167189
0.00018585
0.000205452
0.000222466
0.000232397
0.000230935
0.000216142
0.000188768
0.000153344
0.000139457
0.000134909
0.000134058
0.000134275
0.000134088
0.000132581
0.000128238
0.000123943
0.000119824
0.000115885
0.000112147
0.000108599
0.000105139
0.000101544
9.69252e-05
9.88521e-05
0.000106578
0.000125324
0.00012958
0.000115468
0.000112695
0.00985785
0.0265754
0.00896503
0.0029548
0.00121891
0.00056614
0.000317518
0.000226774
0.000199848
0.000198696
0.000211633
0.000234036
0.000262005
0.000290456
0.000312831
0.000321971
0.000312832
0.000288093
0.000260809
0.000241635
0.00022988
0.000222837
0.000217643
0.000212094
0.000205097
0.000197
0.000188788
0.000180662
0.000172651
0.00016478
0.000157082
0.000149604
0.000142542
0.00013657
0.000133325
0.000134248
0.000142121
0.000160195
0.000195419
0.000242672
0.0132065
0.0274841
0.0155107
0.00796825
0.00416686
0.00202884
0.000977894
0.000517577
0.000342343
0.000287139
0.000276532
0.000291929
0.00032407
0.000365454
0.000407472
0.000439625
0.000452009
0.000443923
0.000425098
0.000405504
0.000389549
0.000377479
0.000367434
0.000357113
0.000345171
0.00033185
0.000317894
0.000303707
0.000289522
0.000275529
0.000261896
0.000248742
0.000236234
0.000224931
0.000216121
0.000211848
0.000216755
0.000243411
0.00031572
0.000423736
0.0129545
0.0273215
0.0281448
0.0200535
0.01132
0.00559297
0.00271135
0.00138773
0.000791935
0.000527322
0.000425721
0.000404567
0.000425306
0.000470085
0.000527594
0.000586295
0.000628264
0.00064813
0.000649751
0.000641589
0.000630409
0.000619242
0.0006081
0.000595265
0.000579533
0.000561182
0.000541083
0.000519939
0.000498274
0.000476526
0.000455077
0.000434227
0.0004143
0.000396018
0.000380517
0.000368625
0.000361641
0.000375731
0.000481669
0.000627248
0.0110199
0.0179947
0.101904
0.0632188
0.0282
0.0117227
0.00516853
0.00256477
0.00147556
0.00100005
0.000797226
0.000726739
0.000724229
0.000757733
0.000810483
0.000871171
0.000929227
0.000974529
0.00100185
0.00101438
0.00101769
0.00101532
0.00100871
0.000996674
0.00097889
0.000956337
0.000930417
0.000902314
0.000872913
0.000842876
0.000812728
0.000782885
0.0007539
0.000726955
0.000703373
0.000683711
0.000665206
0.000652106
0.000716893
0.00088836
0.29627
0.191147
0.0362824
0.0102627
0.00518744
0.00320245
0.00230401
0.0019015
0.00174309
0.00169838
0.00170104
0.00172005
0.00174371
0.00176897
0.00179278
0.0018129
0.00182809
0.00183965
0.00184884
0.00185235
0.00184892
0.00183431
0.0018095
0.00177728
0.0017404
0.00170103
0.00166062
0.00162004
0.00157977
0.00154009
0.00150124
0.00146362
0.00142767
0.00139246
0.00135313
0.00130747
0.00130628
0.00131389
0.17683
0.0967128
0.0326214
0.0140227
0.00779289
0.00536064
0.00437248
0.00405169
0.00405617
0.00416998
0.00427538
0.0043271
0.00432601
0.00429161
0.00424355
0.00419326
0.00414591
0.00410199
0.00405937
0.00401897
0.00397983
0.00392941
0.00386702
0.0037972
0.00372497
0.00365399
0.00358616
0.00352192
0.00346053
0.00340045
0.00333965
0.00327594
0.00320649
0.00312558
0.00302475
0.00290077
0.00294178
0.0019362
0.000295927
0.00169834
0.0444004
0.0365274
0.0236266
0.0149993
0.0099422
0.00696322
0.00517871
0.00411062
0.00349437
0.0031718
0.00301998
0.00295679
0.00293202
0.00291939
0.00290724
0.0028911
0.0028693
0.0028416
0.00280812
0.00276834
0.00272243
0.00267794
0.00262929
0.00257406
0.00251232
0.00244517
0.0023739
0.00229945
0.00222219
0.00214189
0.00205766
0.00196804
0.0018708
0.0017623
0.00163661
0.00148435
0.00129782
0.000818906
)
;

boundaryField
{
    floor
    {
        Cmu             0.09;
        kappa           0.41;
        E               9.8;
        type            epsilonWallFunction;
        value           nonuniform List<scalar> 
29
(
0.000122921
5.64413e-06
2.04906e-05
1.33195e-05
8.98032e-06
6.7507e-06
5.76894e-06
5.54343e-06
6.01438e-06
6.8631e-06
7.87097e-06
8.86243e-06
9.70951e-06
1.07647e-05
1.19673e-05
1.31712e-05
1.4522e-05
1.48144e-05
1.15972e-05
1.3093e-05
1.3093e-05
2.17105e-05
3.64837e-05
8.39923e-05
0.000122921
5.64413e-06
3.80966e-05
0.00011166
0.000392921
)
;
    }
    ceiling
    {
        Cmu             0.09;
        kappa           0.41;
        E               9.8;
        type            epsilonWallFunction;
        value           nonuniform List<scalar> 
43
(
0.000295927
0.00169834
0.0444004
0.0365274
0.0236266
0.0149993
0.0099422
0.00696322
0.00517871
0.00411062
0.00349437
0.0031718
0.00301998
0.00295679
0.00293202
0.00291939
0.00290724
0.0028911
0.0028693
0.0028416
0.00280812
0.00276834
0.00272243
0.00267794
0.00262929
0.00257406
0.00251232
0.00244517
0.0023739
0.00229945
0.00222219
0.00214189
0.00205766
0.00196804
0.0018708
0.0017623
0.00163661
0.00148435
0.00129782
0.000818906
0.0110199
0.0179947
0.17683
)
;
    }
    sWall
    {
        Cmu             0.09;
        kappa           0.41;
        E               9.8;
        type            epsilonWallFunction;
        value           uniform 0.000295927;
    }
    nWall
    {
        Cmu             0.09;
        kappa           0.41;
        E               9.8;
        type            epsilonWallFunction;
        value           nonuniform List<scalar> 6(0.000112695 0.000242672 0.000423736 0.00131389 0.0019362 0.000818906);
    }
    sideWalls
    {
        type            empty;
    }
    glass1
    {
        Cmu             0.09;
        kappa           0.41;
        E               9.8;
        type            epsilonWallFunction;
        value           nonuniform List<scalar> 9(9.89199e-05 0.000607126 0.00179096 0.00381473 0.00656573 0.00985785 0.0132065 0.0129545 0.0110199);
    }
    glass2
    {
        Cmu             0.09;
        kappa           0.41;
        E               9.8;
        type            epsilonWallFunction;
        value           nonuniform List<scalar> 2(0.000627248 0.00088836);
    }
    sun
    {
        Cmu             0.09;
        kappa           0.41;
        E               9.8;
        type            epsilonWallFunction;
        value           nonuniform List<scalar> 
14
(
9.89199e-05
0.000107027
6.84053e-05
7.27589e-05
7.97013e-05
8.74407e-05
9.54852e-05
0.000103521
0.000111418
0.00011893
0.000125567
0.000130542
0.000132887
0.000131383
)
;
    }
    heatsource1
    {
        Cmu             0.09;
        kappa           0.41;
        E               9.8;
        type            epsilonWallFunction;
        value           nonuniform List<scalar> 3(0.00012958 0.000115468 0.000112695);
    }
    heatsource2
    {
        Cmu             0.09;
        kappa           0.41;
        E               9.8;
        type            epsilonWallFunction;
        value           nonuniform List<scalar> 4(0.00017326 5.18429e-05 5.18429e-05 0.000238316);
    }
    Table_master
    {
        Cmu             0.09;
        kappa           0.41;
        E               9.8;
        type            epsilonWallFunction;
        value           nonuniform List<scalar> 9(1.10298e-05 1.21383e-05 1.57961e-05 2.01104e-05 2.48599e-05 3.00066e-05 3.52751e-05 4.05914e-05 4.89817e-05);
    }
    Table_slave
    {
        Cmu             0.09;
        kappa           0.41;
        E               9.8;
        type            epsilonWallFunction;
        value           nonuniform List<scalar> 9(0.000177058 0.000167978 0.000161153 0.000154994 0.000149575 0.000145394 0.000143375 0.000145086 0.000154366);
    }
    inlet
    {
        type            turbulentMixingLengthDissipationRateInlet;
        mixingLength    0.01;
        phi             phi;
        k               k;
        value           uniform 0.29627;
    }
    outlet
    {
        type            zeroGradient;
    }
}


// ************************************************************************* //
