/*--------------------------------*- C++ -*----------------------------------*\
  =========                 |
  \\      /  F ield         | OpenFOAM: The Open Source CFD Toolbox
   \\    /   O peration     | Website:  https://openfoam.org
    \\  /    A nd           | Version:  6
     \\/     M anipulation  |
\*---------------------------------------------------------------------------*/
FoamFile
{
    version     2.0;
    format      ascii;
    class       volScalarField;
    location    "900";
    object      alphat;
}
// * * * * * * * * * * * * * * * * * * * * * * * * * * * * * * * * * * * * * //

dimensions      [1 -1 -1 0 0 0 0];

internalField   nonuniform List<scalar> 
459
(
0.00130091
0.00142569
0.00145808
0.00153025
0.00159827
0.00166419
0.00173258
0.00178732
0.00181851
0.00181821
0.001781
0.00170288
0.00157597
0.00136217
0.00105936
0.000572861
0.000678384
0.000776869
0.000810029
0.00079893
0.000771583
0.000723044
0.000671981
0.000625611
0.000584848
0.000549133
0.000517759
0.000490023
0.000465433
0.000443033
0.000421706
0.00039996
0.000384116
0.000350093
0.00175129
0.00430322
0.0041307
0.00479907
0.00546515
0.00610333
0.00658287
0.00701208
0.00738548
0.00766332
0.007811
0.00780115
0.00759283
0.00706554
0.00568132
0.00134103
0.000950356
0.000576679
0.00135075
0.00198941
0.00250615
0.00282745
0.00282407
0.00209868
0.00176215
0.00153463
0.00136588
0.0012353
0.00113115
0.00104569
0.000966132
0.000887432
0.00081573
0.000754742
0.00088236
0.0004459
0.00212109
0.00582738
0.00507402
0.00616754
0.00668089
0.00706359
0.0073627
0.007682
0.00803531
0.00839479
0.0087127
0.00894522
0.00901963
0.00881871
0.00807494
0.00590301
0.00138399
0.000983862
0.00160449
0.00229021
0.00300588
0.00354279
0.00346251
0.00101551
0.000887541
0.000784683
0.000702214
0.000635609
0.000581279
0.000536587
0.000500059
0.000471273
0.000516869
0.000608063
0.00101582
0.000514495
0.0024721
0.00735066
0.00506837
0.00639751
0.00670415
0.00681142
0.00695512
0.00719434
0.00753146
0.00794616
0.00837037
0.00874196
0.00895916
0.00899162
0.00875962
0.00783621
0.00467434
0.00159302
0.00193563
0.00260708
0.00344963
0.00425845
0.0048154
0.00452929
0.00115431
0.00104775
0.000970802
0.000910935
0.000858939
0.000811894
0.000766116
0.000717965
0.000662566
0.000615031
0.000635858
0.00119459
0.000567994
0.00282797
0.00931588
0.00548044
0.00622035
0.0065819
0.00655125
0.0066035
0.00679904
0.00711851
0.00756156
0.00802311
0.00840154
0.00861826
0.00865933
0.00855278
0.00823792
0.00736459
0.00648786
0.00628425
0.00642305
0.00667872
0.00689318
0.00695753
0.00668505
0.00550639
0.00491961
0.00456442
0.00428876
0.00401142
0.00363211
0.00315938
0.0026156
0.00203771
0.0014958
0.00111503
0.00118369
0.000771844
0.000697469
0.000839117
0.000944487
0.00320611
0.0114825
0.00740026
0.00627521
0.00669834
0.00663246
0.00663043
0.00673356
0.00699472
0.00741916
0.00790169
0.00829011
0.00847275
0.00844065
0.00829843
0.00819164
0.00818132
0.00829851
0.00851458
0.00868189
0.0087173
0.00860998
0.00836571
0.00796672
0.00735838
0.00681102
0.00633998
0.00590775
0.00548459
0.00502963
0.00449524
0.00387019
0.00316429
0.00243429
0.00183191
0.001403
0.00108541
0.000936421
0.0013315
0.000992177
0.00355413
0.0130043
0.0103208
0.00794143
0.00763846
0.00725583
0.00692468
0.00684791
0.00707138
0.0075275
0.00805271
0.00845099
0.00859289
0.00849094
0.00832964
0.00839308
0.00881933
0.00937329
0.00974008
0.00981564
0.00963635
0.00927514
0.00878598
0.00819862
0.00754282
0.00691598
0.00634762
0.0058334
0.00537292
0.00497355
0.00463429
0.00420709
0.00366103
0.00302672
0.00244892
0.00195837
0.00161523
0.00154851
0.00160559
0.00116801
0.00362287
0.0115605
0.0101764
0.00923267
0.00830892
0.0073888
0.00688319
0.00687062
0.00726549
0.00788673
0.00849488
0.00886713
0.00890721
0.00871217
0.0085995
0.00893696
0.00962064
0.0100615
0.0101354
0.00990744
0.00944516
0.00881597
0.00807566
0.00728455
0.00651901
0.00584649
0.00528365
0.00482793
0.00447997
0.00424156
0.00410891
0.00403736
0.00381081
0.00344168
0.00314799
0.00304832
0.00327417
0.0038469
0.00461377
0.00176953
0.00352895
0.00420001
0.0047117
0.00479455
0.00489805
0.00524257
0.00588886
0.00680171
0.00782831
0.00874418
0.00932264
0.00942053
0.00912572
0.00883854
0.00900897
0.00936284
0.00961383
0.00960607
0.00931902
0.00879668
0.0080936
0.00726369
0.00638198
0.00554614
0.00483669
0.0042824
0.00386557
0.00355684
0.00332887
0.00315663
0.00301855
0.00290595
0.00282501
0.00277109
0.0027556
0.00276227
0.00272097
0.00257813
0.00238872
0.00164215
0.00202382
0.00369427
0.00585483
0.00757061
0.0088874
0.00985232
0.010373
0.0104317
0.0100597
0.00936876
0.00867794
0.00836
0.00841815
0.00846607
0.00831123
0.007929
0.00734404
0.00660665
0.0057928
0.00499542
0.00429507
0.00373579
0.0033216
0.00303456
0.00284272
0.00272049
0.0026497
0.00261814
0.00262175
0.00265289
0.00269684
0.00274666
0.00278934
0.00279405
0.00271714
0.00255809
0.0023073
0.00135549
0.00245456
0.0056892
0.00817399
0.00932276
0.00998108
0.00993949
0.00938616
0.00856824
0.00773134
0.00707045
0.00662641
0.00637889
0.00618889
0.00592696
0.00556447
0.00510466
0.00457203
0.00402177
0.00352124
0.00311738
0.00282118
0.00261786
0.00248479
0.00239805
0.00234709
0.00233238
0.0023493
0.00239276
0.00246338
0.00255772
0.00267076
0.00279098
0.0028959
0.0029724
0.0029405
0.00296185
0.00290931
0.00137925
0.00211506
0.00222659
0.00230674
0.00238641
0.00219154
0.00206322
0.00198436
0.0018777
0.0017311
0.00156667
0.00140349
0.00125687
0.00113876
0.00105118
0.000985592
0.000932556
0.000885912
0.000842915
0.000803851
0.000770788
0.000745777
0.000729715
0.000722403
0.000723267
0.000731977
0.000748419
0.00077289
0.000804639
0.000843998
0.000891728
0.000946965
0.00100971
0.0010804
0.00115933
0.00124509
0.00135423
0.00137404
0.00133032
0.00124911
0.00115654
)
;

boundaryField
{
    floor
    {
        type            compressible::alphatWallFunction;
        Prt             0.85;
        value           nonuniform List<scalar> 
29
(
0.000150619
8.03002e-05
9.60186e-05
0.000110422
0.000115223
0.000113621
0.000109658
0.000102583
9.50773e-05
8.82014e-05
8.21051e-05
7.67208e-05
7.1955e-05
6.77117e-05
6.39246e-05
6.04527e-05
5.71263e-05
5.37122e-05
5.12098e-05
4.57904e-05
4.57898e-05
6.0897e-05
7.14554e-05
7.95675e-05
0.000150617
8.02993e-05
8.08726e-05
0.000140011
0.000223445
)
;
    }
    ceiling
    {
        type            compressible::alphatWallFunction;
        Prt             0.85;
        value           nonuniform List<scalar> 
43
(
0.000291957
0.000306354
0.000316656
0.000326986
0.000302024
0.000285445
0.000275196
0.000261255
0.000241943
0.000220067
0.000198101
0.000178118
0.000161829
0.000149625
0.000140409
0.000132904
0.000126261
0.000120101
0.000114471
0.000109681
0.00010604
0.000103693
0.000102622
0.000102747
0.000104019
0.000106418
0.000109977
0.000114575
0.000120246
0.000127081
0.000134938
0.000143798
0.000153703
0.000164676
0.000176501
0.000191418
0.00019411
0.000188162
0.000177055
0.000164294
0.000470115
0.000551701
0.000335399
)
;
    }
    sWall
    {
        type            compressible::alphatWallFunction;
        Prt             0.85;
        value           uniform 0.000290741;
    }
    nWall
    {
        type            compressible::alphatWallFunction;
        Prt             0.85;
        value           nonuniform List<scalar> 6(0.000134256 0.000140992 0.00016553 0.000191262 0.000194488 0.000163968);
    }
    sideWalls
    {
        type            empty;
    }
    glass1
    {
        type            compressible::alphatWallFunction;
        Prt             0.85;
        value           nonuniform List<scalar> 9(0.00017951 0.000239178 0.000287028 0.000331704 0.000376377 0.000423248 0.000465925 0.000474438 0.00046322);
    }
    glass2
    {
        type            compressible::alphatWallFunction;
        Prt             0.85;
        value           nonuniform List<scalar> 2(0.000245235 0.000228494);
    }
    sun
    {
        type            compressible::alphatWallFunction;
        Prt             0.85;
        value           nonuniform List<scalar> 
14
(
0.000184023
0.000200968
0.000205342
0.00021505
0.000224155
0.000232938
0.000242008
0.00024924
0.000253348
0.000253308
0.000248403
0.000238068
0.000221168
0.00019234
)
;
    }
    heatsource1
    {
        type            compressible::alphatWallFunction;
        Prt             0.85;
        value           nonuniform List<scalar> 3(9.89447e-05 0.000119532 0.000134575);
    }
    heatsource2
    {
        type            compressible::alphatWallFunction;
        Prt             0.85;
        value           nonuniform List<scalar> 4(0.000189611 0.000135413 0.000135411 0.000195448);
    }
    Table_master
    {
        type            compressible::alphatWallFunction;
        Prt             0.85;
        value           nonuniform List<scalar> 9(0.000144605 0.000126473 0.000111675 9.96432e-05 8.98006e-05 8.16783e-05 7.49264e-05 6.93558e-05 6.49298e-05);
    }
    Table_slave
    {
        type            compressible::alphatWallFunction;
        Prt             0.85;
        value           nonuniform List<scalar> 9(0.000163977 0.000149133 0.000138305 0.000129812 0.000122382 0.000115613 0.000108982 0.000101955 9.37993e-05);
    }
    inlet
    {
        type            fixedValue;
        value           uniform 1.94e-05;
    }
    outlet
    {
        type            zeroGradient;
    }
}


// ************************************************************************* //
