/*--------------------------------*- C++ -*----------------------------------*\
  =========                 |
  \\      /  F ield         | OpenFOAM: The Open Source CFD Toolbox
   \\    /   O peration     | Website:  https://openfoam.org
    \\  /    A nd           | Version:  6
     \\/     M anipulation  |
\*---------------------------------------------------------------------------*/
FoamFile
{
    version     2.0;
    format      ascii;
    class       volScalarField;
    location    "200";
    object      alphat;
}
// * * * * * * * * * * * * * * * * * * * * * * * * * * * * * * * * * * * * * //

dimensions      [1 -1 -1 0 0 0 0];

internalField   nonuniform List<scalar> 
459
(
0.000846255
0.000875389
0.000843084
0.000875058
0.000905138
0.000932063
0.000956441
0.000979154
0.00100125
0.00102403
0.00104335
0.0010581
0.00106773
0.00107272
0.00107144
0.000657071
0.000827833
0.000854517
0.000856449
0.000835227
0.000803354
0.00074806
0.000693558
0.000645882
0.000603459
0.000565094
0.000530101
0.000497997
0.000468367
0.000440702
0.000414312
0.000388624
0.00038182
0.000356779
0.00136517
0.00214402
0.00166675
0.00201781
0.00216135
0.00231655
0.0024747
0.0026226
0.00274191
0.00280973
0.0028391
0.00279961
0.00264849
0.00232392
0.00177812
0.00115595
0.000782862
0.000746034
0.00294677
0.00334333
0.00344628
0.00331048
0.00294805
0.00207783
0.00178575
0.00157439
0.00139641
0.00124262
0.00111075
0.000997406
0.000897288
0.000805071
0.000729811
0.000666579
0.000887972
0.00049952
0.00183625
0.00340749
0.00175366
0.00283998
0.00306869
0.00321671
0.00333998
0.00343969
0.00351524
0.00356073
0.00357314
0.0035179
0.00335113
0.00301985
0.0024983
0.0018666
0.00126908
0.00109803
0.00407893
0.00420234
0.00392893
0.00368484
0.00309782
0.00086708
0.00071156
0.000607589
0.000539968
0.000493496
0.000458761
0.000431126
0.000408832
0.000393022
0.000471783
0.000538607
0.00110384
0.000619681
0.00230367
0.00519682
0.00179896
0.00317259
0.00361497
0.0037508
0.00383994
0.00390709
0.00396045
0.00400014
0.00402974
0.00403134
0.0039701
0.00378242
0.0033827
0.00273507
0.00198128
0.00145517
0.00350972
0.00427758
0.00406319
0.0036209
0.00354161
0.0031191
0.000880174
0.000842407
0.000831039
0.000827189
0.000821973
0.000808364
0.000780761
0.000747654
0.00070981
0.000685905
0.000676952
0.00144235
0.000700775
0.00275762
0.00737207
0.00228361
0.00301502
0.0038695
0.00403453
0.00410403
0.00414602
0.0041774
0.00420732
0.00424653
0.0043157
0.0044091
0.00450394
0.00456233
0.00454317
0.0044334
0.00423914
0.00411302
0.0038152
0.0034063
0.00318966
0.00350136
0.00370719
0.00350966
0.00349051
0.00348814
0.00346986
0.00341283
0.00330097
0.00312074
0.00275894
0.00227523
0.00178909
0.00134855
0.00131647
0.00103773
0.000847552
0.000991421
0.00111575
0.00319896
0.00952715
0.00367807
0.00262607
0.00372991
0.00408354
0.00420643
0.00425041
0.00424525
0.00422249
0.00421777
0.00428355
0.00440335
0.00455382
0.00469129
0.0047432
0.0046242
0.00429441
0.00382035
0.00332255
0.00294109
0.00287224
0.00350119
0.00385937
0.0039735
0.0040177
0.00403321
0.00401062
0.0039441
0.00383741
0.00370127
0.00349668
0.00313016
0.00262671
0.00206752
0.00145548
0.00128983
0.00116106
0.00164778
0.00118496
0.00363498
0.0112194
0.00653347
0.00321082
0.00279343
0.00333423
0.0038616
0.00418757
0.00431954
0.00420223
0.00412589
0.00415368
0.00424242
0.00437335
0.00451003
0.00458087
0.00449372
0.00420137
0.00374657
0.00323646
0.00276362
0.00262754
0.00353259
0.0039641
0.00406643
0.00407314
0.00405119
0.00399493
0.00390923
0.00381511
0.0037405
0.00369472
0.00351118
0.00310888
0.00261647
0.00205955
0.00178932
0.00179073
0.00190573
0.00140793
0.00374848
0.0115281
0.00882896
0.00636306
0.00441544
0.00345598
0.00341572
0.00379229
0.00418084
0.00412259
0.00402912
0.00399909
0.0040305
0.00410585
0.00419996
0.00427104
0.00425522
0.00409949
0.00381035
0.00338912
0.00275177
0.00240169
0.00358721
0.00412598
0.00419883
0.00413966
0.00404498
0.00392237
0.00379105
0.00369736
0.00368654
0.00378369
0.00393828
0.003684
0.00340609
0.00335815
0.00379319
0.00468994
0.00574051
0.0020432
0.00366484
0.00445106
0.00494373
0.00502135
0.00470323
0.00421575
0.00383109
0.00363418
0.0035812
0.00357702
0.00361264
0.0036718
0.00374097
0.00380896
0.00386682
0.00390514
0.0039109
0.00387962
0.00381937
0.00360033
0.00281325
0.00218046
0.00362767
0.00435497
0.0044145
0.00429256
0.00412435
0.00390562
0.00365753
0.00343263
0.00327302
0.00318393
0.00314467
0.00312765
0.00315267
0.00320509
0.0031804
0.00299775
0.00274844
0.0018632
0.00270469
0.00414853
0.00448255
0.00436797
0.00415432
0.0039674
0.00383609
0.00374707
0.00369498
0.00366569
0.00364332
0.00361763
0.00358677
0.00355745
0.00354456
0.00357708
0.00368628
0.00365941
0.00281397
0.00197548
0.00358366
0.00463174
0.00470501
0.00457065
0.00442261
0.00420724
0.0039286
0.00364453
0.00342154
0.00330362
0.00326793
0.00327098
0.00327892
0.00323896
0.00307927
0.00277041
0.00235234
0.00152143
0.00283827
0.00472783
0.00493123
0.00472799
0.00450356
0.00428129
0.00407663
0.00389253
0.00369996
0.00347969
0.0032559
0.00304752
0.00287146
0.00274506
0.00268905
0.00273188
0.00289689
0.00303173
0.00244315
0.00175834
0.00323716
0.0042742
0.00431965
0.00424487
0.00418816
0.00409501
0.00396552
0.00382484
0.00368448
0.00360772
0.00360375
0.00364379
0.00368554
0.00371082
0.00367166
0.00359024
0.00298393
0.00154662
0.00250378
0.00261491
0.00271453
0.00284982
0.00266538
0.00240857
0.00223945
0.00208941
0.00195403
0.00183124
0.00172192
0.00162633
0.00153904
0.00145744
0.00138057
0.00130875
0.0012434
0.00118714
0.00114375
0.00111308
0.00107746
0.00106199
0.00114304
0.00118268
0.00118625
0.00118568
0.00118839
0.00119573
0.00121098
0.0012383
0.00128281
0.00134121
0.00141329
0.00149715
0.00158913
0.00170814
0.00173873
0.00169526
0.00157952
0.00145625
)
;

boundaryField
{
    floor
    {
        type            compressible::alphatWallFunction;
        Prt             0.85;
        value           nonuniform List<scalar> 
29
(
0.000152237
9.27824e-05
0.000117692
0.000121536
0.000121818
0.000118771
0.000114176
0.000106152
9.81733e-05
9.11315e-05
8.48121e-05
7.90503e-05
7.37524e-05
6.88536e-05
6.4297e-05
6.00097e-05
5.5888e-05
5.18436e-05
5.07662e-05
4.67819e-05
4.67812e-05
6.90815e-05
8.72261e-05
9.92243e-05
0.000152235
9.27813e-05
0.000105846
0.000155946
0.000204864
)
;
    }
    ceiling
    {
        type            compressible::alphatWallFunction;
        Prt             0.85;
        value           nonuniform List<scalar> 
43
(
0.00034182
0.000355918
0.000368504
0.000385602
0.000362415
0.000329819
0.000308144
0.000288765
0.00027115
0.000255057
0.00024063
0.000227931
0.000216265
0.000205291
0.000194891
0.000185114
0.000176165
0.000168418
0.000162415
0.000158157
0.000153194
0.000151031
0.000162317
0.000167805
0.0001683
0.000168221
0.000168596
0.000169609
0.000171711
0.000175469
0.000181573
0.000189544
0.00019933
0.000210647
0.000222976
0.000238815
0.000242866
0.000237108
0.000221695
0.000205142
0.0004867
0.000581819
0.000384006
)
;
    }
    sWall
    {
        type            compressible::alphatWallFunction;
        Prt             0.85;
        value           uniform 0.000340575;
    }
    nWall
    {
        type            compressible::alphatWallFunction;
        Prt             0.85;
        value           nonuniform List<scalar> 6(0.000158142 0.000167725 0.000198197 0.000213528 0.000216905 0.000204756);
    }
    sideWalls
    {
        type            empty;
    }
    glass1
    {
        type            compressible::alphatWallFunction;
        Prt             0.85;
        value           nonuniform List<scalar> 9(0.000116716 0.000187763 0.000249831 0.000309865 0.000367043 0.000421767 0.000475109 0.000489037 0.000479128);
    }
    glass2
    {
        type            compressible::alphatWallFunction;
        Prt             0.85;
        value           nonuniform List<scalar> 2(0.000280094 0.000256814);
    }
    sun
    {
        type            compressible::alphatWallFunction;
        Prt             0.85;
        value           nonuniform List<scalar> 
14
(
0.000120383
0.000124537
0.000119906
0.000124489
0.000128783
0.000132613
0.000136069
0.000139279
0.000142395
0.000145598
0.000148308
0.000150373
0.000151719
0.000152416
)
;
    }
    heatsource1
    {
        type            compressible::alphatWallFunction;
        Prt             0.85;
        value           nonuniform List<scalar> 3(0.000120745 0.000141212 0.000158619);
    }
    heatsource2
    {
        type            compressible::alphatWallFunction;
        Prt             0.85;
        value           nonuniform List<scalar> 4(0.000164198 0.000111412 0.000111411 0.000179779);
    }
    Table_master
    {
        type            compressible::alphatWallFunction;
        Prt             0.85;
        value           nonuniform List<scalar> 9(0.000123545 0.000101014 8.56224e-05 7.54397e-05 6.83499e-05 6.29959e-05 5.86995e-05 5.52075e-05 5.27163e-05);
    }
    Table_slave
    {
        type            compressible::alphatWallFunction;
        Prt             0.85;
        value           nonuniform List<scalar> 9(0.000125423 0.000120009 0.000118373 0.000117818 0.000117067 0.000115103 0.000111108 0.000106294 0.000100759);
    }
    inlet
    {
        type            fixedValue;
        value           uniform 1.94e-05;
    }
    outlet
    {
        type            zeroGradient;
    }
}


// ************************************************************************* //
