/*--------------------------------*- C++ -*----------------------------------*\
  =========                 |
  \\      /  F ield         | OpenFOAM: The Open Source CFD Toolbox
   \\    /   O peration     | Website:  https://openfoam.org
    \\  /    A nd           | Version:  6
     \\/     M anipulation  |
\*---------------------------------------------------------------------------*/
FoamFile
{
    version     2.0;
    format      ascii;
    class       volScalarField;
    location    "300";
    object      nut;
}
// * * * * * * * * * * * * * * * * * * * * * * * * * * * * * * * * * * * * * //

dimensions      [0 2 -1 0 0 0 0];

internalField   nonuniform List<scalar> 
459
(
0.000715545
0.000742045
0.000726174
0.000751234
0.000773287
0.000792146
0.000808488
0.000823063
0.000836667
0.000850263
0.000861546
0.000869566
0.000874024
0.000875621
0.000873566
0.000488137
0.000621125
0.000632853
0.000625407
0.000613216
0.000595602
0.000567951
0.000538494
0.000511224
0.000485896
0.000462401
0.000440588
0.000420245
0.000401078
0.000382651
0.000364322
0.000345103
0.000334416
0.000308796
0.00111485
0.00168635
0.00135553
0.00159112
0.00169383
0.00180554
0.00191857
0.0020234
0.00210676
0.00215117
0.00216587
0.00212855
0.00200815
0.00176072
0.00135226
0.000907221
0.000710459
0.000780236
0.00148857
0.00197609
0.00225244
0.00234308
0.00222924
0.00174986
0.00152926
0.00135664
0.00121692
0.00109932
0.000997882
0.000907872
0.000824051
0.000742084
0.000671118
0.000608526
0.00074308
0.000411521
0.00148718
0.00262053
0.00143981
0.00223049
0.00239316
0.00250796
0.00259995
0.00267108
0.0027229
0.0027524
0.00275706
0.00271169
0.00258489
0.00233901
0.00195479
0.00148832
0.00101341
0.000934131
0.00276366
0.00318324
0.00319514
0.00309899
0.00264241
0.00071441
0.000617976
0.000546478
0.000492688
0.000451345
0.000418826
0.00039283
0.000372225
0.000357531
0.000413884
0.000482273
0.000854472
0.000490262
0.0018696
0.0040367
0.00142876
0.00252514
0.00282668
0.0029357
0.00300386
0.00304938
0.00308135
0.00310199
0.0031135
0.00310326
0.00304901
0.00291185
0.00263283
0.00216105
0.00155461
0.0010933
0.00297298
0.00312681
0.00321413
0.0032619
0.00318499
0.00274095
0.000705458
0.000664816
0.000651867
0.000646951
0.000640706
0.000627185
0.000604154
0.000579886
0.00055029
0.000524306
0.000523192
0.00105099
0.000551169
0.002253
0.00585886
0.00177853
0.00242579
0.00303784
0.00316792
0.00322303
0.00324917
0.00326197
0.00327204
0.00328377
0.00330816
0.00333501
0.0033441
0.00331019
0.00321363
0.00305783
0.00284812
0.00274228
0.00267283
0.00287626
0.00310251
0.00315876
0.00307927
0.00275279
0.00271587
0.00272075
0.00271048
0.00266374
0.00256873
0.00239875
0.0020877
0.00170282
0.00130857
0.000970526
0.000997333
0.000736183
0.000690286
0.000816022
0.000912269
0.00263495
0.00774335
0.00295912
0.00209013
0.00294422
0.00322263
0.0033261
0.00336172
0.00334925
0.00331911
0.00330065
0.00333211
0.0033842
0.00343006
0.00343394
0.00334676
0.00312087
0.0027612
0.00239283
0.00224131
0.00263247
0.00303326
0.00313541
0.00314777
0.00313557
0.00316073
0.00317997
0.00316833
0.00312197
0.00304362
0.0029365
0.00272503
0.00239203
0.00195362
0.00150224
0.00108721
0.000929637
0.000855226
0.00125842
0.000959465
0.00302166
0.00926321
0.00546576
0.00261294
0.00219518
0.00259769
0.00302491
0.00330854
0.00344241
0.00332666
0.00326591
0.00329081
0.00334178
0.0033967
0.00342357
0.00336886
0.00316709
0.00278692
0.00229237
0.00197082
0.0025007
0.00306779
0.00317519
0.00316793
0.00315961
0.00316893
0.00316961
0.0031439
0.00309941
0.00304908
0.0030054
0.00295212
0.00272037
0.00233749
0.00192202
0.0014953
0.0012735
0.00127342
0.00138828
0.0011127
0.00313005
0.00957596
0.00738507
0.0053221
0.00367027
0.00282376
0.00270934
0.00296286
0.00328088
0.00327621
0.00323274
0.00322434
0.00324725
0.0032835
0.00330763
0.00328378
0.00316235
0.00287508
0.0023308
0.00178219
0.00240777
0.00316892
0.0032805
0.00322834
0.00317559
0.00313267
0.00307959
0.00301513
0.00295793
0.00293398
0.00296372
0.00304814
0.00305554
0.00274843
0.00248752
0.00242068
0.00272066
0.00349854
0.00449393
0.0016897
0.00307458
0.00375232
0.00417573
0.0042385
0.00396791
0.00355315
0.00321876
0.00303836
0.0029844
0.00297261
0.00299742
0.00304217
0.00309049
0.003127
0.00313818
0.00311174
0.00303241
0.00285314
0.00238193
0.00163418
0.00230992
0.0033106
0.00344668
0.00334011
0.00323718
0.00313548
0.00300991
0.00286441
0.00272008
0.00259834
0.00250913
0.0024491
0.00240978
0.00238789
0.00241983
0.00248836
0.00250905
0.00240517
0.00222546
0.00154442
0.00225361
0.00350401
0.00378949
0.00369633
0.00351876
0.00336228
0.00325309
0.00317724
0.00312757
0.00309101
0.00305303
0.00300299
0.00293661
0.00285727
0.00277302
0.00264747
0.00222853
0.00148453
0.00217978
0.00347618
0.00366617
0.00350807
0.00339619
0.00328916
0.00314363
0.00296727
0.00278629
0.00262956
0.00252227
0.00247972
0.00248126
0.00250609
0.00253904
0.00254051
0.00245218
0.00224648
0.00194259
0.00125452
0.00236975
0.00400275
0.00417709
0.00400951
0.00382371
0.00363784
0.00346456
0.00330574
0.00312853
0.00292395
0.00271118
0.00250421
0.00231458
0.00215391
0.00203434
0.00194011
0.00172495
0.00124718
0.00196787
0.00317594
0.0033034
0.00317821
0.00310858
0.00304662
0.00296483
0.00287766
0.00280216
0.00274385
0.00269369
0.00269135
0.00272923
0.00278983
0.00285041
0.00289865
0.00289119
0.00287411
0.00245363
0.00127223
0.00209565
0.00219096
0.00227591
0.00240448
0.00225448
0.00204404
0.00190246
0.0017754
0.00165946
0.00155305
0.00145833
0.00137446
0.00129668
0.00122254
0.00115104
0.00108224
0.00101718
0.000957414
0.000902818
0.000846318
0.000862392
0.0009035
0.000907891
0.000904444
0.000904843
0.000908904
0.00091719
0.000931304
0.000952754
0.000983218
0.00102561
0.00107617
0.0011359
0.00120357
0.0012779
0.00137603
0.00140549
0.00137246
0.00128052
0.0011817
)
;

boundaryField
{
    floor
    {
        type            nutkWallFunction;
        Cmu             0.09;
        kappa           0.41;
        E               9.8;
        value           nonuniform List<scalar> 
29
(
0.000105735
5.81747e-05
7.50025e-05
7.64569e-05
7.55287e-05
7.40097e-05
7.18101e-05
6.83413e-05
6.46233e-05
6.1159e-05
5.79211e-05
5.48986e-05
5.20754e-05
4.94265e-05
4.6916e-05
4.44879e-05
4.20577e-05
3.94926e-05
3.80585e-05
3.45952e-05
3.45951e-05
4.8285e-05
5.84793e-05
6.62235e-05
0.000105736
5.81746e-05
9.45006e-05
0.000112939
0.000131643
)
;
    }
    ceiling
    {
        type            nutkWallFunction;
        Cmu             0.09;
        kappa           0.41;
        E               9.8;
        value           nonuniform List<scalar> 
43
(
0.00024365
0.000253945
0.000263083
0.000276928
0.000260887
0.00023816
0.000222721
0.000208757
0.00019592
0.000184052
0.000173412
0.000163928
0.000155074
0.00014658
0.000138333
0.000130342
0.000122733
0.000115694
0.00010922
0.000102472
0.00010439
0.0001093
0.000109824
0.000109414
0.000109461
0.000109944
0.000110929
0.000112604
0.000115144
0.00011874
0.000123724
0.000129637
0.000136583
0.000144402
0.000152934
0.000164115
0.000167453
0.000163709
0.000153234
0.000141882
0.000347839
0.000417703
0.000273068
)
;
    }
    sWall
    {
        type            nutkWallFunction;
        Cmu             0.09;
        kappa           0.41;
        E               9.8;
        value           uniform 0.000243716;
    }
    nWall
    {
        type            nutkWallFunction;
        Cmu             0.09;
        kappa           0.41;
        E               9.8;
        value           nonuniform List<scalar> 6(0.000110346 0.000115941 0.000133899 0.00015027 0.000152299 0.000141893);
    }
    sideWalls
    {
        type            empty;
    }
    glass1
    {
        type            nutkWallFunction;
        Cmu             0.09;
        kappa           0.41;
        E               9.8;
        value           nonuniform List<scalar> 9(8.66003e-05 0.000134268 0.000176919 0.00021949 0.000261222 0.000302046 0.000342747 0.000354066 0.0003483);
    }
    glass2
    {
        type            nutkWallFunction;
        Cmu             0.09;
        kappa           0.41;
        E               9.8;
        value           nonuniform List<scalar> 2(0.000199402 0.000183196);
    }
    sun
    {
        type            nutkWallFunction;
        Cmu             0.09;
        kappa           0.41;
        E               9.8;
        value           nonuniform List<scalar> 
14
(
8.66327e-05
8.98682e-05
8.79329e-05
9.09872e-05
9.36649e-05
9.59478e-05
9.79207e-05
9.96766e-05
0.000101312
0.000102944
0.000104295
0.000105255
0.000105789
0.00010598
)
;
    }
    heatsource1
    {
        type            nutkWallFunction;
        Cmu             0.09;
        kappa           0.41;
        E               9.8;
        value           nonuniform List<scalar> 3(8.35402e-05 9.88265e-05 0.00011034);
    }
    heatsource2
    {
        type            nutkWallFunction;
        Cmu             0.09;
        kappa           0.41;
        E               9.8;
        value           nonuniform List<scalar> 4(0.000109751 8.59875e-05 8.59875e-05 0.000122294);
    }
    Table_master
    {
        type            nutkWallFunction;
        Cmu             0.09;
        kappa           0.41;
        E               9.8;
        value           nonuniform List<scalar> 9(8.64969e-05 7.45997e-05 6.56345e-05 5.87955e-05 5.34766e-05 4.92504e-05 4.58423e-05 4.31208e-05 4.11684e-05);
    }
    Table_slave
    {
        type            nutkWallFunction;
        Cmu             0.09;
        kappa           0.41;
        E               9.8;
        value           nonuniform List<scalar> 9(8.54004e-05 8.04046e-05 7.88057e-05 7.81978e-05 7.74248e-05 7.57473e-05 7.28795e-05 6.98433e-05 6.61195e-05);
    }
    inlet
    {
        type            calculated;
        value           uniform 0.000100623;
    }
    outlet
    {
        type            calculated;
        value           nonuniform List<scalar> 2(0.00209565 0.00219096);
    }
}


// ************************************************************************* //
