/*--------------------------------*- C++ -*----------------------------------*\
  =========                 |
  \\      /  F ield         | OpenFOAM: The Open Source CFD Toolbox
   \\    /   O peration     | Website:  https://openfoam.org
    \\  /    A nd           | Version:  6
     \\/     M anipulation  |
\*---------------------------------------------------------------------------*/
FoamFile
{
    version     2.0;
    format      ascii;
    class       surfaceScalarField;
    location    "900";
    object      phi;
}
// * * * * * * * * * * * * * * * * * * * * * * * * * * * * * * * * * * * * * //

dimensions      [1 0 -1 0 0 0 0];

internalField   nonuniform List<scalar> 
852
(
-0.00296113
0.00301876
-0.00399837
0.00103725
-0.00479508
0.000796718
-0.00541404
0.000618966
-0.00582067
0.000406645
-0.00598616
0.000165501
-0.00588204
-0.00010411
-0.00548737
-0.000394665
-0.00482078
-0.000666585
-0.00395039
-0.000870374
-0.00297845
-0.000971929
-0.00201799
-0.000960453
-0.00117253
-0.000845453
-0.00050559
-0.000666932
-0.000503852
-0.000786075
0.000789164
-0.00053402
-0.000252048
5.92285e-05
-0.000593242
0.000560606
-0.000501371
0.000909543
-0.000348931
0.0011374
-0.000227848
0.00126406
-0.000126654
0.00132467
-6.06085e-05
0.0013577
-3.30223e-05
0.00137766
-1.99525e-05
0.0013886
-1.09391e-05
0.00139213
-3.52373e-06
0.00138704
5.10066e-06
0.00136598
2.10638e-05
0.00130821
5.77781e-05
0.00117896
0.000129249
0.000968135
0.000210833
0.00071473
0.00025341
0.000718862
-0.0021225
0.00529647
-0.00314383
0.00205859
-0.00397188
0.00162478
-0.00458892
0.00123602
-0.00499546
0.000813193
-0.00517158
0.000341636
-0.00508569
-0.000189989
-0.00472161
-0.000758739
-0.00411087
-0.00127732
-0.00333185
-0.00164938
-0.00248402
-0.00181975
-0.00166191
-0.00178256
-0.000945288
-0.00156206
-0.000405546
-0.00120667
-0.000138361
-0.000771029
0.000124931
-0.000263336
0.000124888
0.000246096
0.00055207
0.000641804
-0.000647748
0.00090764
-0.000859072
0.00113194
-0.000725664
0.00131107
-0.000528054
0.00142734
-0.000344111
0.00144818
-0.000147497
0.00145316
-6.55801e-05
0.00145925
-3.91089e-05
0.00146438
-2.50774e-05
0.00146777
-1.43155e-05
0.00146955
-5.30364e-06
0.00146914
5.51237e-06
0.00146343
2.67844e-05
0.00142493
9.62802e-05
0.00125909
0.000295099
0.000972981
0.000496943
0.00061938
0.000607017
0.00134871
-0.00149296
0.00702685
-0.00237911
0.00294474
-0.00312134
0.00236702
-0.00365711
0.00177179
-0.00401975
0.00117584
-0.00418394
0.000505837
-0.00409473
-0.000279192
-0.00372944
-0.00112402
-0.00314615
-0.0018606
-0.00244028
-0.00235523
-0.00170705
-0.00255297
-0.00101776
-0.00247185
-0.000423004
-0.00215681
4.52177e-05
-0.00167488
0.000352491
-0.00107829
0.000486897
-0.000397734
0.000611793
0.00148634
-0.000924392
0.00170278
-0.000864177
0.0016546
-0.000810883
0.00164054
-0.0007116
0.00166505
-0.000552557
0.00170905
-0.000388112
0.00156171
0.00149629
0.00145734
0.00143242
0.00141826
0.00141312
0.00141879
0.00144573
0.00154217
0.00126776
0.000569517
0.000936207
0.000828498
0.000526745
0.00101648
0.00189126
-0.00104612
0.00838038
-0.00175251
0.00365114
-0.00225408
0.0028686
-0.00261539
0.00213311
-0.00286681
0.00142728
-0.00296987
0.000608901
-0.00282614
-0.000422913
-0.00242548
-0.00152466
-0.00187289
-0.00241317
-0.00127095
-0.00295716
-0.000694361
-0.00312955
-0.000181137
-0.00298506
0.000254214
-0.00259215
0.000614243
-0.0020349
0.000933898
-0.00139794
0.00129321
-0.000757035
0.0021342
-0.000229188
0.00247108
-0.000328201
0.00211986
-0.000573161
0.00198484
-0.000729149
0.00185684
-0.000682882
0.00174175
-0.000596504
0.00166909
-0.000479888
0.00161098
-0.000329996
0.001756
-0.000145176
0.00184695
-9.10983e-05
0.00192131
-7.4514e-05
0.00198057
-5.94051e-05
0.00200982
-2.93994e-05
0.00198618
2.34853e-05
0.00188323
0.000102794
0.00166696
0.000216118
0.00128196
0.000384851
0.00111743
0.00073405
0.000799959
0.00114597
0.000326232
0.00149022
0.00223809
-0.000730984
0.00947823
-0.0012686
0.00418877
-0.0013953
0.00299531
-0.00149232
0.00223013
-0.00155599
0.00149096
-0.00151353
0.000566447
-0.00123016
-0.000706282
-0.000784309
-0.0019705
-0.000307874
-0.00288959
0.000122011
-0.00338703
0.000472503
-0.00348003
0.000739733
-0.00325228
0.000947025
-0.00279943
0.00112379
-0.00221166
0.0013028
-0.00157694
0.00153067
-0.000984902
0.00185049
-0.000548997
0.00194994
-0.000427651
0.00186859
-0.000491805
0.00169245
-0.000553004
0.00153416
-0.000524588
0.00139856
-0.000460898
0.00129938
-0.000380701
0.00125286
-0.000283477
0.00129722
-0.000189531
0.00135394
-0.000147819
0.00141591
-0.000136477
0.0014795
-0.000123
0.00153369
-8.35907e-05
0.00155697
2.1019e-07
0.00152663
0.000133128
0.00143056
0.000312185
0.00127085
0.000544566
0.00112055
0.000884352
0.00095133
0.00131519
0.000584042
0.00185751
0.00046777
0.00235436
-0.00100043
0.00146799
-0.00145946
0.00045883
-0.00141055
-0.000632491
0.0105277
-0.00100142
0.0045577
-0.000610279
0.00260418
-0.000320119
0.00193998
-0.000108036
0.00127889
0.000222015
0.000236401
0.000707371
-0.00119163
0.0011427
-0.00240581
0.00145047
-0.00319736
0.00161905
-0.00355559
0.00167521
-0.00353618
0.0016512
-0.00322826
0.00158046
-0.00272868
0.00150043
-0.00213162
0.00144335
-0.00151986
0.00143333
-0.000974872
0.00146313
-0.000578795
0.00143085
-0.000395368
0.00130684
-0.000367787
0.00112896
-0.00037512
0.000965221
-0.000360847
0.000834265
-0.000329939
0.000744576
-0.000291009
0.000707511
-0.000246411
0.000727237
-0.000209258
0.000778958
-0.00019954
0.000848463
-0.000205983
0.000929675
-0.000204213
0.00101622
-0.000170135
0.00109645
-8.00227e-05
0.00115084
7.87352e-05
0.00117277
0.000290248
0.00117203
0.000545308
0.00119321
0.000863176
0.00128288
0.00122552
0.00145667
0.00168372
0.00189873
0.0019123
0.00216395
0.00120278
0.00178138
0.000841405
0.000429492
-0.000717259
0.0117068
-0.000603053
0.00444351
0.0004733
0.00152784
0.00115271
0.00126057
0.00173584
0.00069577
0.00238499
-0.00041275
0.00292792
-0.00173455
0.00322243
-0.00270031
0.00326382
-0.00323873
0.00309871
-0.00339047
0.00279194
-0.00322939
0.00240757
-0.00284387
0.0020009
-0.00232201
0.00161998
-0.00175069
0.00129626
-0.00119613
0.00104966
-0.000728269
0.000876425
-0.000405556
0.000729236
-0.000248175
0.000572129
-0.000210678
0.00041251
-0.000215498
0.000273492
-0.000221827
0.000166791
-0.000223237
9.7621e-05
-0.000221839
7.12592e-05
-0.000220049
8.67454e-05
-0.000224745
0.000130555
-0.000243351
0.000192042
-0.000267472
0.000269213
-0.000281386
0.000366068
-0.000266991
0.000487656
-0.000201614
0.000622747
-5.6358e-05
0.000758372
0.000154621
0.000903403
0.000400275
0.00109614
0.000670435
0.00138304
0.00093862
0.00183158
0.00123518
0.00250544
0.00123845
0.00305432
0.000653898
0.0030753
0.000820429
0.00356747
0.00261051
0.00961241
0.00329079
0.00376323
0.00345429
0.00136435
0.00390894
0.000805929
0.00460497
-2.58739e-07
0.0052919
-0.00109967
0.00556196
-0.0020046
0.00542294
-0.00256127
0.00496609
-0.00278186
0.0042981
-0.00272246
0.00352196
-0.00245323
0.00272332
-0.00204522
0.00196351
-0.0015622
0.00129696
-0.00108413
0.000748512
-0.000647683
0.000341819
-0.000321575
7.34771e-05
-0.000137212
-0.00010433
-7.03667e-05
-0.000242045
-7.29613e-05
-0.000360286
-9.72565e-05
-0.000459443
-0.00012267
-0.000536472
-0.000146208
-0.000589595
-0.000168717
-0.000617766
-0.000191879
-0.000623782
-0.000218731
-0.000616515
-0.00025062
-0.000602084
-0.000281905
-0.000579922
-0.00030355
-0.000541669
-0.000305247
-0.000468135
-0.00027515
-0.000327796
-0.000196699
-0.000133097
-4.00808e-05
9.56736e-05
0.000171503
0.000375361
0.000390747
0.000713388
0.000600592
0.00114725
0.00080131
0.00160075
0.000784953
0.00176759
0.000487056
0.00101983
0.00156819
0.00484885
0.0101793
0.0139357
0.012249
0.00305102
0.0113481
0.00170693
0.0106068
0.000741019
0.00969927
-0.000192138
0.00853507
-0.000840371
0.00722327
-0.00124944
0.00585939
-0.00141796
0.00451341
-0.00137646
0.00324859
-0.00118841
0.00211243
-0.000909054
0.00111887
-0.000568636
0.000308079
-0.000273343
-0.000284777
-5.48288e-05
-0.000648152
4.17999e-05
-0.00084243
5.7066e-05
-0.000953041
4.02437e-05
-0.00103627
1.02648e-05
-0.0011122
-2.13267e-05
-0.00118329
-5.15772e-05
-0.00124836
-8.11376e-05
-0.00130723
-0.00010985
-0.00136124
-0.000137876
-0.00141444
-0.000165534
-0.00147432
-0.000190736
-0.00154852
-0.000207705
-0.00164448
-0.000207598
-0.0017711
-0.000178626
-0.00193967
-0.000106584
-0.00215798
2.16147e-05
-0.00241327
0.000215204
-0.0027307
0.000488929
-0.00319819
0.00085824
-0.00391381
0.00131621
-0.00493821
0.00182571
-0.00638225
0.00222899
-0.00810734
0.00221214
-0.00756095
0.0010218
-0.00242207
0.00510992
0.00457062
0.00409164
0.00272525
0.0044752
0.000357517
0.00450444
-0.000221346
0.00408677
-0.000422677
0.00339216
-0.000554823
0.0025378
-0.000563601
0.00161625
-0.000454916
0.000699677
-0.000271839
-0.000154203
-5.51825e-05
-0.000838085
0.000115242
-0.00127788
0.000166448
-0.00150793
0.000175219
-0.00161843
0.000152303
-0.00168007
0.000118705
-0.00172478
8.49469e-05
-0.00176801
5.34929e-05
-0.00181532
2.59857e-05
-0.00186947
2.56962e-06
-0.00193115
-1.94602e-05
-0.00199988
-4.11222e-05
-0.00207673
-6.10244e-05
-0.00216332
-7.89526e-05
-0.00226201
-9.20472e-05
-0.00237401
-9.5699e-05
-0.00249807
-8.35485e-05
-0.00262922
-4.74742e-05
-0.00275814
2.23345e-05
-0.00287269
0.000136165
-0.00297043
0.000312942
-0.00305997
0.000578467
-0.00314899
0.000947258
-0.00323564
0.00140286
-0.00326926
0.00185933
-0.00318274
0.00214246
-0.00278317
0.00181258
-0.00151312
-0.000248245
-0.00385953
-0.00043307
0.00506028
0.000834001
0.00145821
0.000788284
0.000403258
0.000505901
6.10462e-05
0.000115817
-3.2598e-05
-0.000416383
-2.26417e-05
-0.00100634
2.63432e-05
-0.00154942
8.81553e-05
-0.00196627
0.000145004
-0.00220877
0.000187315
-0.00229814
0.000204602
-0.00232258
0.000190895
-0.00231204
0.000164671
-0.00229528
0.000135547
-0.00228641
0.000109831
-0.00228925
8.77808e-05
-0.0023035
6.7749e-05
-0.00232657
4.90449e-05
-0.00235541
3.14154e-05
-0.00239035
1.54776e-05
-0.00243208
5.9697e-07
-0.00248089
-1.22107e-05
-0.00253699
-2.28529e-05
-0.00259889
-3.01538e-05
-0.00266267
-3.19197e-05
-0.00272133
-2.48854e-05
-0.00276405
-4.75891e-06
-0.00277802
3.63077e-05
-0.00274916
0.000107303
-0.00265342
0.000217196
-0.00245732
0.000382374
-0.00213441
0.00062434
-0.00167323
0.000941686
-0.00105064
0.00123675
-8.32194e-05
0.00117504
0.00118655
0.000542805
0.001556
-0.000617695
-0.00222045
0.000190773
-0.0108659
-0.00576148
-0.00428005
-0.00386233
-0.00379163
-0.00381762
-0.00383587
-0.00380676
-0.00371706
-0.0035715
-0.00338445
-0.00318081
-0.00299147
-0.00282883
-0.0026957
-0.00258859
-0.00250375
-0.00243912
-0.00239329
-0.00236514
-0.00235293
-0.00235558
-0.00237098
-0.00239696
-0.00243017
-0.00246506
-0.00249283
-0.00250037
-0.00246673
-0.00236198
-0.00214724
-0.00176722
-0.00114515
-0.00020569
0.00102882
0.00220151
0.0027418
0.00212138
)
;

boundaryField
{
    floor
    {
        type            calculated;
        value           nonuniform List<scalar> 
29
(
0
0
0
0
0
0
0
0
0
0
0
0
0
0
0
0
0
0
0
0
-4.12635e-06
-1.04665e-05
-1.58017e-05
-2.05861e-05
-1.73011e-06
-3.08229e-06
-8.99558e-06
-9.87342e-06
-8.67823e-06
)
;
    }
    ceiling
    {
        type            calculated;
        value           nonuniform List<scalar> 
43
(
-2.37155e-05
-4.39102e-05
-4.41125e-05
-2.32197e-05
-1.44792e-05
-9.66239e-06
-6.62048e-06
-4.39653e-06
-2.77094e-06
-1.54932e-06
-5.61787e-07
2.63036e-07
9.61672e-07
1.55065e-06
2.03026e-06
2.41271e-06
2.71491e-06
2.94686e-06
3.11169e-06
3.2132e-06
3.26064e-06
3.2662e-06
3.24109e-06
3.19212e-06
3.1288e-06
3.05426e-06
2.97031e-06
2.87801e-06
2.77761e-06
2.66799e-06
2.55686e-06
2.45041e-06
2.35354e-06
2.27309e-06
2.22178e-06
2.24092e-06
2.34899e-06
2.51663e-06
2.72302e-06
3.70002e-06
9.86516e-06
6.87284e-06
-5.65666e-05
)
;
    }
    sWall
    {
        type            calculated;
        value           uniform -0.000230392;
    }
    nWall
    {
        type            calculated;
        value           nonuniform List<scalar> 6(-4.91063e-05 -5.8664e-05 -6.26775e-05 -7.56636e-05 -8.30843e-05 -0.000102766);
    }
    sideWalls
    {
        type            empty;
        value           nonuniform 0();
    }
    glass1
    {
        type            calculated;
        value           nonuniform List<scalar> 9(-5.76206e-05 -0.000155202 -0.000237408 -0.000307402 -0.000366852 -0.00041699 -0.00046184 -0.000516081 -0.000576791);
    }
    glass2
    {
        type            calculated;
        value           nonuniform List<scalar> 2(-0.000261542 -0.000290029);
    }
    sun
    {
        type            calculated;
        value           uniform 0;
    }
    heatsource1
    {
        type            calculated;
        value           nonuniform List<scalar> 3(2.04306e-07 2.04229e-07 2.04246e-07);
    }
    heatsource2
    {
        type            calculated;
        value           nonuniform List<scalar> 4(5.12197e-08 5.13028e-08 0 0);
    }
    Table_master
    {
        type            calculated;
        value           nonuniform List<scalar> 9(-1.53216e-07 -1.53308e-07 -1.53342e-07 -1.53364e-07 -1.5338e-07 -1.53391e-07 -1.53397e-07 -1.53393e-07 -1.53364e-07);
    }
    Table_slave
    {
        type            calculated;
        value           nonuniform List<scalar> 9(1.53088e-07 1.53106e-07 1.53082e-07 1.53062e-07 1.53053e-07 1.53056e-07 1.53069e-07 1.53111e-07 1.53194e-07);
    }
    inlet
    {
        type            calculated;
        value           uniform -0.0066295;
    }
    outlet
    {
        type            calculated;
        value           nonuniform List<scalar> 2(6.33297e-05 0.0111005);
    }
}


// ************************************************************************* //
