// -*- C++ -*-
// File generated by PyFoam - sorry for the ugliness

FoamFile
{
 version 2.0;
 format ascii;
 class volVectorField;
 location "900";
 object U;
}

dimensions [ 0 1 -1 0 0 0 0 ];

internalField nonuniform List<vector> 459
(
  (0.0343826 0.0858574 0)
  (-0.167011 0.0254464 0)
  (-0.191701 0.0178646 0)
  (-0.222734 0.0121941 0)
  (-0.245245 0.00593431 0)
  (-0.258148 -0.000726572 0)
  (-0.259764 -0.00785895 0)
  (-0.248789 -0.01549 0)
  (-0.225796 -0.0229451 0)
  (-0.192635 -0.0289002 0)
  (-0.152997 -0.0322537 0)
  (-0.111255 -0.0324626 0)
  (-0.0716404 -0.0296965 0)
  (-0.0393475 -0.0251195 0)
  (-0.0283062 -0.0205727 0)
  (-0.00620952 0.00890535 0)
  (-0.029121 -0.0166827 0)
  (-0.00746408 -0.0265232 0)
  (0.016102 -0.0204552 0)
  (0.0316127 -0.0140452 0)
  (0.0443516 -0.00911795 0)
  (0.052392 -0.005312 0)
  (0.0565806 -0.00331401 0)
  (0.0584743 -0.00251257 0)
  (0.0594147 -0.00216673 0)
  (0.0599998 -0.00195181 0)
  (0.0603298 -0.00177791 0)
  (0.0603471 -0.00156781 0)
  (0.0598677 -0.00115573 0)
  (0.0583695 -0.000177181 0)
  (0.0547294 0.00187218 0)
  (0.0477217 0.00403863 0)
  (0.0414557 0.005756 0)
  (-0.0135151 0.0202928 0)
  (0.209093 0.175927 0)
  (-0.156294 0.0673215 0)
  (-0.154651 0.0530429 0)
  (-0.186839 0.0412772 0)
  (-0.209197 0.0279167 0)
  (-0.222395 0.0128462 0)
  (-0.224716 -0.00426133 0)
  (-0.214684 -0.0228435 0)
  (-0.193468 -0.0403301 0)
  (-0.163338 -0.0536249 0)
  (-0.128123 -0.0605918 0)
  (-0.0918974 -0.0605648 0)
  (-0.0582321 -0.0541475 0)
  (-0.0306014 -0.0429606 0)
  (-0.0129965 -0.029412 0)
  (0.000911213 -0.0113573 0)
  (-0.000221942 0.0156197 0)
  (0.061408 0.0363858 0)
  (0.0247431 -0.017959 0)
  (0.0332839 -0.0312964 0)
  (0.0444244 -0.0279008 0)
  (0.0533682 -0.0201114 0)
  (0.05995 -0.0126124 0)
  (0.0628095 -0.00538207 0)
  (0.0633692 -0.00122965 0)
  (0.0633266 0.000504203 0)
  (0.0634389 0.00127177 0)
  (0.0636456 0.00174299 0)
  (0.0637969 0.0021317 0)
  (0.0638511 0.00260352 0)
  (0.0637647 0.0034691 0)
  (0.0630348 0.00558898 0)
  (0.0593598 0.0114844 0)
  (0.0500233 0.0163908 0)
  (0.0457284 0.019625 0)
  (-0.0498769 0.044083 0)
  (0.369437 0.26331 0)
  (-0.173329 0.107296 0)
  (-0.116158 0.0858786 0)
  (-0.147586 0.0648625 0)
  (-0.167536 0.042845 0)
  (-0.179886 0.0183568 0)
  (-0.181928 -0.00947445 0)
  (-0.171252 -0.0392439 0)
  (-0.150281 -0.0663677 0)
  (-0.122204 -0.0857845 0)
  (-0.0910638 -0.0947739 0)
  (-0.0603903 -0.0931796 0)
  (-0.0324844 -0.0824292 0)
  (-0.00949005 -0.0647693 0)
  (0.00772757 -0.0413397 0)
  (0.0190094 -0.0148746 0)
  (0.023391 0.0223566 0)
  (0.110404 -0.0269884 0)
  (0.0744532 -0.0376791 0)
  (0.068995 -0.0382657 0)
  (0.0705308 -0.0328444 0)
  (0.0719135 -0.0249008 0)
  (0.0732429 -0.0179279 0)
  (0.0719658 -0.0143548 0)
  (0.0673317 -0.0101453 0)
  (0.0639642 -0.00784295 0)
  (0.0624392 -0.00652228 0)
  (0.0617859 -0.00567286 0)
  (0.061453 -0.00508397 0)
  (0.0614277 -0.00456559 0)
  (0.0621453 -0.00375175 0)
  (0.0647101 -0.000700767 0)
  (0.0627004 0.0160519 0)
  (0.0496847 0.0276843 0)
  (0.0521411 0.0354859 0)
  (-0.0818868 0.0688294 0)
  (0.514174 0.333622 0)
  (-0.208262 0.142773 0)
  (-0.0752487 0.113867 0)
  (-0.105413 0.0849919 0)
  (-0.119923 0.0567745 0)
  (-0.129108 0.0246646 0)
  (-0.128273 -0.0137208 0)
  (-0.114551 -0.0552813 0)
  (-0.093145 -0.0913278 0)
  (-0.068066 -0.115225 0)
  (-0.0427791 -0.124714 0)
  (-0.0197455 -0.120949 0)
  (0.000773911 -0.106116 0)
  (0.0177187 -0.0835539 0)
  (0.0320548 -0.0568323 0)
  (0.0473561 -0.0277951 0)
  (0.0690187 0.00395177 0)
  (0.0997446 0.0157808 0)
  (0.105023 -0.0230338 0)
  (0.0914359 -0.0335438 0)
  (0.0825528 -0.0327261 0)
  (0.0775787 -0.0285719 0)
  (0.073882 -0.0225011 0)
  (0.0714451 -0.0147955 0)
  (0.0727802 -0.00899337 0)
  (0.0777573 -0.0067707 0)
  (0.0819947 -0.00553542 0)
  (0.0848202 -0.00464959 0)
  (0.0865524 -0.00364746 0)
  (0.0867361 -0.00224018 0)
  (0.0842562 -0.000176845 0)
  (0.0778669 0.00284553 0)
  (0.0650821 0.00735719 0)
  (0.0527838 0.0265952 0)
  (0.0405924 0.0428552 0)
  (0.0562716 0.0556931 0)
  (-0.115444 0.0910211 0)
  (0.639478 0.388104 0)
  (-0.250962 0.171774 0)
  (-0.0344825 0.130054 0)
  (-0.06125 0.0965481 0)
  (-0.0677209 0.0649049 0)
  (-0.0709434 0.0277861 0)
  (-0.0615165 -0.0201658 0)
  (-0.0425064 -0.0726718 0)
  (-0.0219871 -0.114109 0)
  (-0.00271534 -0.138695 0)
  (0.013686 -0.145684 0)
  (0.0262031 -0.138277 0)
  (0.0360381 -0.120723 0)
  (0.0439564 -0.0965399 0)
  (0.0512628 -0.0692212 0)
  (0.059939 -0.0425559 0)
  (0.0727199 -0.0228103 0)
  (0.0834481 -0.0216243 0)
  (0.0846508 -0.0292237 0)
  (0.0783421 -0.0299376 0)
  (0.0702156 -0.0269475 0)
  (0.0635533 -0.0230282 0)
  (0.0585518 -0.0184304 0)
  (0.0555594 -0.013058 0)
  (0.0554299 -0.00735911 0)
  (0.0578296 -0.00458772 0)
  (0.0605952 -0.00357288 0)
  (0.063225 -0.00276656 0)
  (0.0656173 -0.00114604 0)
  (0.0674171 0.00187938 0)
  (0.067396 0.00640697 0)
  (0.0649581 0.0125925 0)
  (0.0595224 0.0210809 0)
  (0.0526068 0.0362192 0)
  (0.0424183 0.0541893 0)
  (0.0646226 0.0742642 0)
  (-0.0218256 0.10324 0)
  (0.0462588 0.0319943 0)
  (-0.0622322 -0.0345533 0)
  (-0.272683 -0.0572388 0)
  (0.730603 0.433556 0)
  (-0.292619 0.191335 0)
  (-0.00325029 0.126657 0)
  (-0.0161847 0.0978547 0)
  (-0.0121061 0.0673726 0)
  (-0.00681631 0.0250928 0)
  (0.0212801 -0.0369592 0)
  (0.0431611 -0.0929528 0)
  (0.0587901 -0.131562 0)
  (0.0683435 -0.151393 0)
  (0.0724494 -0.154342 0)
  (0.0724755 -0.143928 0)
  (0.0699254 -0.124171 0)
  (0.0662826 -0.0990471 0)
  (0.0630386 -0.0722306 0)
  (0.0616118 -0.0473847 0)
  (0.0628716 -0.028787 0)
  (0.063724 -0.021274 0)
  (0.0604956 -0.0207535 0)
  (0.0535562 -0.0207483 0)
  (0.045711 -0.0192443 0)
  (0.0391688 -0.0169454 0)
  (0.0344599 -0.0142041 0)
  (0.0318659 -0.0110782 0)
  (0.0316262 -0.00818091 0)
  (0.0333689 -0.00705953 0)
  (0.0360487 -0.00691421 0)
  (0.0392134 -0.00650823 0)
  (0.0426749 -0.00483379 0)
  (0.0461749 -0.00101298 0)
  (0.0493241 0.00525899 0)
  (0.0509459 0.0136154 0)
  (0.0513246 0.0242214 0)
  (0.0518229 0.0386058 0)
  (0.0505974 0.0563123 0)
  (0.0731246 0.0790632 0)
  (0.0525462 0.0969027 0)
  (0.0933043 0.0678036 0)
  (0.116228 0.0446003 0)
  (-0.129218 -0.00720403 0)
  (0.782406 0.474871 0)
  (-0.313606 0.176838 0)
  (0.0234793 0.0772516 0)
  (0.0422896 0.0743519 0)
  (0.0572292 0.0532045 0)
  (0.0827818 0.00283355 0)
  (0.117284 -0.0613726 0)
  (0.136833 -0.110548 0)
  (0.143489 -0.14051 0)
  (0.13996 -0.152591 0)
  (0.128958 -0.149707 0)
  (0.113384 -0.135573 0)
  (0.0957997 -0.114024 0)
  (0.0784332 -0.0889717 0)
  (0.0629793 -0.0636535 0)
  (0.0506941 -0.041171 0)
  (0.0420359 -0.0246543 0)
  (0.0355069 -0.0162459 0)
  (0.0289538 -0.0137872 0)
  (0.0218833 -0.013349 0)
  (0.0152215 -0.0127605 0)
  (0.00989058 -0.011899 0)
  (0.00619393 -0.010903 0)
  (0.00429245 -0.00983818 0)
  (0.0042507 -0.00911205 0)
  (0.00569678 -0.00932552 0)
  (0.00799117 -0.00996448 0)
  (0.0108636 -0.0101677 0)
  (0.0143493 -0.00906163 0)
  (0.0185754 -0.0056353 0)
  (0.0244939 0.00111674 0)
  (0.0304606 0.0102924 0)
  (0.0360914 0.0210275 0)
  (0.0432346 0.0338501 0)
  (0.0509974 0.0484763 0)
  (0.0730843 0.0668954 0)
  (0.08624 0.0745538 0)
  (0.118524 0.0519794 0)
  (0.158209 0.043956 0)
  (-0.0352033 0.094039 0)
  (0.887032 0.477678 0)
  (-0.0711241 0.156513 0)
  (0.105842 0.00407288 0)
  (0.16873 -0.0156305 0)
  (0.181346 -0.0337374 0)
  (0.216453 -0.0679551 0)
  (0.238572 -0.100979 0)
  (0.241471 -0.124751 0)
  (0.227844 -0.136701 0)
  (0.202621 -0.13699 0)
  (0.170634 -0.127342 0)
  (0.136111 -0.11038 0)
  (0.102082 -0.088734 0)
  (0.0710258 -0.0656826 0)
  (0.0444269 -0.043692 0)
  (0.0236469 -0.0253197 0)
  (0.00916837 -0.0131305 0)
  (-0.000302021 -0.00763831 0)
  (-0.00699665 -0.00662473 0)
  (-0.0125686 -0.00710939 0)
  (-0.0173176 -0.00769485 0)
  (-0.0210801 -0.0081882 0)
  (-0.0237888 -0.00864195 0)
  (-0.0254039 -0.00914527 0)
  (-0.025979 -0.00989626 0)
  (-0.025819 -0.0110268 0)
  (-0.0252973 -0.0122623 0)
  (-0.0245353 -0.0131593 0)
  (-0.0233819 -0.0132251 0)
  (-0.0214488 -0.0118795 0)
  (-0.0177636 -0.00837972 0)
  (-0.00890104 -0.00198686 0)
  (-0.000115248 0.00637067 0)
  (0.010533 0.0146675 0)
  (0.0222544 0.0217712 0)
  (0.0420424 0.0291269 0)
  (0.0605969 0.0221758 0)
  (0.080057 -0.00527606 0)
  (0.139214 0.0403709 0)
  (-0.41454 0.207089 0)
  (1.03199 0.430161 0)
  (0.496998 0.285239 0)
  (0.503164 0.191865 0)
  (0.511206 0.120764 0)
  (0.485847 0.0694457 0)
  (0.443657 0.016339 0)
  (0.394072 -0.032043 0)
  (0.340919 -0.0666046 0)
  (0.283954 -0.084659 0)
  (0.225562 -0.0881184 0)
  (0.168995 -0.0809734 0)
  (0.117067 -0.0672692 0)
  (0.0707455 -0.0496651 0)
  (0.0319439 -0.0316356 0)
  (0.000287131 -0.0154283 0)
  (-0.0208046 -0.00519089 0)
  (-0.0321158 -0.00130218 0)
  (-0.0384047 -0.000731847 0)
  (-0.0425198 -0.00166516 0)
  (-0.0460819 -0.00299312 0)
  (-0.0493305 -0.0043003 0)
  (-0.052282 -0.00552694 0)
  (-0.054922 -0.00670642 0)
  (-0.0572751 -0.00788747 0)
  (-0.0594617 -0.00912835 0)
  (-0.0617476 -0.0103993 0)
  (-0.0644599 -0.0114811 0)
  (-0.0678969 -0.0120013 0)
  (-0.0723876 -0.0114369 0)
  (-0.0783972 -0.00909732 0)
  (-0.0865356 -0.00416822 0)
  (-0.0968582 0.00395836 0)
  (-0.107395 0.014796 0)
  (-0.122774 0.0285376 0)
  (-0.146988 0.0452497 0)
  (-0.182556 0.0637163 0)
  (-0.232748 0.0798455 0)
  (-0.289833 0.0909994 0)
  (-0.358489 0.0971662 0)
  (-0.620752 0.0990209 0)
  (-0.149006 0.0835974 0)
  (0.1354 0.0633689 0)
  (0.219048 0.00804876 0)
  (0.202601 -0.0273851 0)
  (0.187056 -0.0423455 0)
  (0.164769 -0.0475921 0)
  (0.132499 -0.0463727 0)
  (0.0940539 -0.040252 0)
  (0.0541468 -0.0307031 0)
  (0.0162901 -0.0186777 0)
  (-0.0214243 -0.00467161 0)
  (-0.0455996 0.00323588 0)
  (-0.0604894 0.00680929 0)
  (-0.0678624 0.00733979 0)
  (-0.0714056 0.0065699 0)
  (-0.0737333 0.00557017 0)
  (-0.0757061 0.00456165 0)
  (-0.0776885 0.00359839 0)
  (-0.0799837 0.00261518 0)
  (-0.0826053 0.00151823 0)
  (-0.0854858 0.000361665 0)
  (-0.0886511 -0.000780794 0)
  (-0.0921706 -0.0018194 0)
  (-0.096137 -0.0025931 0)
  (-0.100633 -0.00285864 0)
  (-0.105667 -0.00230479 0)
  (-0.111149 -0.00057717 0)
  (-0.116864 0.00268458 0)
  (-0.122209 0.00790884 0)
  (-0.126397 0.0158285 0)
  (-0.129872 0.0275517 0)
  (-0.132898 0.0434657 0)
  (-0.136278 0.0626884 0)
  (-0.140517 0.0815464 0)
  (-0.142411 0.0901215 0)
  (-0.125084 0.0675561 0)
  (-0.0811676 -0.0258188 0)
  (-0.278985 -0.203911 0)
  (-0.0247598 0.231652 0)
  (0.0637412 0.100753 0)
  (0.0383917 0.020128 0)
  (0.026272 -0.00358925 0)
  (0.0176946 -0.00940202 0)
  (-0.000310993 -0.0113123 0)
  (-0.0251363 -0.00899267 0)
  (-0.0510567 -0.00434617 0)
  (-0.0732555 0.000250303 0)
  (-0.0887668 0.00339166 0)
  (-0.0965183 0.00381467 0)
  (-0.0992918 0.00162092 0)
  (-0.0998444 -0.0013551 0)
  (-0.0993897 -0.00473296 0)
  (-0.099036 -0.00818447 0)
  (-0.0992037 -0.0114214 0)
  (-0.0999048 -0.0142974 0)
  (-0.101033 -0.0166025 0)
  (-0.10245 -0.0181978 0)
  (-0.104101 -0.0191053 0)
  (-0.106029 -0.019434 0)
  (-0.108219 -0.0192321 0)
  (-0.11068 -0.0187786 0)
  (-0.113385 -0.0180585 0)
  (-0.116219 -0.01695 0)
  (-0.118949 -0.0152146 0)
  (-0.121203 -0.0124735 0)
  (-0.122469 -0.00815732 0)
  (-0.122199 -0.00203415 0)
  (-0.119422 0.00643793 0)
  (-0.112693 0.0181302 0)
  (-0.100736 0.0338035 0)
  (-0.0832733 0.0530263 0)
  (-0.0612013 0.0716864 0)
  (-0.0373916 0.0826251 0)
  (0.00270775 0.066923 0)
  (0.143372 -0.00434145 0)
  (-0.207378 -0.114625 0)
  (-0.104659 -0.349209 0)
  (-0.439658 -0.120158 0)
  (-0.311012 0.0963712 0)
  (-0.225689 -0.0202421 0)
  (-0.178803 -0.0422413 0)
  (-0.163893 -0.0304365 0)
  (-0.161369 -0.01753 0)
  (-0.162785 -0.00715167 0)
  (-0.163653 0.0015977 0)
  (-0.161562 0.0091649 0)
  (-0.157056 0.0160719 0)
  (-0.150186 0.0223545 0)
  (-0.141864 0.0277556 0)
  (-0.13353 0.0322461 0)
  (-0.126081 0.0364154 0)
  (-0.119849 0.0404703 0)
  (-0.114864 0.0444751 0)
  (-0.110963 0.0482135 0)
  (-0.108001 0.051297 0)
  (-0.105883 0.0533858 0)
  (-0.104525 0.0543105 0)
  (-0.10385 0.0541036 0)
  (-0.103793 0.0529182 0)
  (-0.104287 0.0509246 0)
  (-0.105245 0.0486232 0)
  (-0.106564 0.0461538 0)
  (-0.108077 0.043624 0)
  (-0.10951 0.0411181 0)
  (-0.110438 0.0386981 0)
  (-0.110182 0.0364254 0)
  (-0.107498 0.035108 0)
  (-0.10051 0.0354159 0)
  (-0.0867525 0.0381016 0)
  (-0.0643669 0.0440596 0)
  (-0.0339693 0.053798 0)
  (0.0145984 0.0670077 0)
  (0.0593889 0.0682721 0)
  (0.10207 0.0534413 0)
  (0.163965 0.0241854 0)
  (-0.218178 -0.0309704 0)
)
;

boundaryField
{
  floor
  {
    type noSlip;
  }
  ceiling
  {
    type noSlip;
  }
  sWall
  {
    type noSlip;
  }
  nWall
  {
    type noSlip;
  }
  sideWalls
  {
    type empty;
  }
  glass1
  {
    type noSlip;
  }
  glass2
  {
    type noSlip;
  }
  sun
  {
    type noSlip;
  }
  heatsource1
  {
    type noSlip;
  }
  heatsource2
  {
    type noSlip;
  }
  Table_master
  {
    type noSlip;
  }
  Table_slave
  {
    type noSlip;
  }
  inlet
  {
    type fixedValue;
    value uniform (0.3 0 0);
  }
  outlet
  {
    type zeroGradient;
  }
} 	// ************************************************************************* //

