// -*- C++ -*-
// File generated by PyFoam - sorry for the ugliness

FoamFile
{
 version 2.0;
 format ascii;
 class volVectorField;
 location "1600";
 object U;
}

dimensions [ 0 1 -1 0 0 0 0 ];

internalField nonuniform List<vector> 459
(
  (0.0341425 0.0859049 0)
  (-0.167122 0.0255014 0)
  (-0.191912 0.0178521 0)
  (-0.222931 0.0121389 0)
  (-0.245365 0.00583924 0)
  (-0.258115 -0.000862437 0)
  (-0.259487 -0.00803526 0)
  (-0.248217 -0.0157039 0)
  (-0.224906 -0.0231643 0)
  (-0.191468 -0.0290821 0)
  (-0.151651 -0.0323548 0)
  (-0.109868 -0.0324452 0)
  (-0.070373 -0.0295076 0)
  (-0.038329 -0.0246788 0)
  (-0.0276343 -0.0198072 0)
  (-0.00649915 0.00895184 0)
  (-0.0292677 -0.0166504 0)
  (-0.00763875 -0.0265761 0)
  (0.0160919 -0.0206007 0)
  (0.0317062 -0.0142038 0)
  (0.0446005 -0.00925596 0)
  (0.0527749 -0.0053924 0)
  (0.0570455 -0.00335821 0)
  (0.0589743 -0.00254503 0)
  (0.0599302 -0.00219804 0)
  (0.0605287 -0.00198173 0)
  (0.0608706 -0.00180393 0)
  (0.0608936 -0.0015884 0)
  (0.0604115 -0.00116996 0)
  (0.0589 -0.000181892 0)
  (0.0552264 0.00188694 0)
  (0.0481496 0.00409181 0)
  (0.0416507 0.0058958 0)
  (-0.0129949 0.0204081 0)
  (0.208689 0.176013 0)
  (-0.156294 0.0674761 0)
  (-0.154796 0.0530742 0)
  (-0.186967 0.0412171 0)
  (-0.209259 0.0277578 0)
  (-0.222318 0.0125758 0)
  (-0.224403 -0.00464813 0)
  (-0.214094 -0.0233103 0)
  (-0.192593 -0.0407945 0)
  (-0.162233 -0.0539951 0)
  (-0.12689 -0.0607914 0)
  (-0.0906456 -0.0605604 0)
  (-0.0570632 -0.0539081 0)
  (-0.0295545 -0.0424664 0)
  (-0.0120927 -0.0287553 0)
  (0.00175357 -0.0107536 0)
  (0.000402313 0.0156736 0)
  (0.06083 0.0365197 0)
  (0.024524 -0.0180753 0)
  (0.033218 -0.0314764 0)
  (0.0444281 -0.02814 0)
  (0.0534709 -0.0203803 0)
  (0.0601741 -0.0128675 0)
  (0.0631163 -0.00550167 0)
  (0.0636966 -0.001259 0)
  (0.0636497 0.00050516 0)
  (0.0637591 0.00127613 0)
  (0.063966 0.00174776 0)
  (0.0641172 0.0021396 0)
  (0.0641708 0.00261621 0)
  (0.0640833 0.00348819 0)
  (0.0633488 0.00562317 0)
  (0.0596533 0.0115568 0)
  (0.0502733 0.0165298 0)
  (0.045731 0.0198894 0)
  (-0.0492005 0.0442701 0)
  (0.368899 0.263424 0)
  (-0.173186 0.1075 0)
  (-0.116255 0.0859093 0)
  (-0.147647 0.0647585 0)
  (-0.167546 0.0425839 0)
  (-0.179766 0.0179142 0)
  (-0.181553 -0.0100983 0)
  (-0.170594 -0.0399818 0)
  (-0.14937 -0.0670661 0)
  (-0.121121 -0.086302 0)
  (-0.0899274 -0.0950065 0)
  (-0.0592829 -0.0931152 0)
  (-0.0314656 -0.0820531 0)
  (-0.00854297 -0.0640878 0)
  (0.00850477 -0.0405715 0)
  (0.0196646 -0.0141499 0)
  (0.0238686 0.0230833 0)
  (0.110207 -0.0265846 0)
  (0.0744789 -0.0376143 0)
  (0.0690669 -0.038415 0)
  (0.0706109 -0.0331127 0)
  (0.0720235 -0.0252392 0)
  (0.073424 -0.0183191 0)
  (0.0722335 -0.0146233 0)
  (0.0675195 -0.0103042 0)
  (0.0640754 -0.00794245 0)
  (0.0625192 -0.00659011 0)
  (0.0618545 -0.00571905 0)
  (0.061514 -0.00511287 0)
  (0.0614842 -0.00458074 0)
  (0.0622049 -0.00375253 0)
  (0.0647896 -0.000675542 0)
  (0.062789 0.0161516 0)
  (0.049775 0.0278694 0)
  (0.0519799 0.0358091 0)
  (-0.0811684 0.0690929 0)
  (0.513549 0.333749 0)
  (-0.207986 0.142994 0)
  (-0.0753107 0.113895 0)
  (-0.105401 0.0848556 0)
  (-0.119877 0.0564235 0)
  (-0.128926 0.0240437 0)
  (-0.127755 -0.0146133 0)
  (-0.11375 -0.0563079 0)
  (-0.0921624 -0.092232 0)
  (-0.0669956 -0.115842 0)
  (-0.0417576 -0.124933 0)
  (-0.0188007 -0.120813 0)
  (0.00164887 -0.1056 0)
  (0.0184791 -0.0828261 0)
  (0.0327706 -0.0559836 0)
  (0.0480559 -0.0269234 0)
  (0.0696308 0.00494225 0)
  (0.100387 0.0163315 0)
  (0.105509 -0.0226925 0)
  (0.091874 -0.0334773 0)
  (0.0829059 -0.0328603 0)
  (0.0778157 -0.0288148 0)
  (0.0739909 -0.0228046 0)
  (0.0713955 -0.0151376 0)
  (0.072611 -0.00917527 0)
  (0.0776106 -0.00686168 0)
  (0.0818674 -0.00558094 0)
  (0.0846871 -0.00467677 0)
  (0.0864176 -0.00367051 0)
  (0.0866232 -0.00226213 0)
  (0.0841737 -0.000192103 0)
  (0.0778069 0.00284493 0)
  (0.0650086 0.00738026 0)
  (0.0527237 0.0267049 0)
  (0.0405974 0.0430328 0)
  (0.0560505 0.0559706 0)
  (-0.114496 0.091343 0)
  (0.6388 0.388224 0)
  (-0.250587 0.171977 0)
  (-0.0345367 0.13007 0)
  (-0.0611651 0.096383 0)
  (-0.0676218 0.0644827 0)
  (-0.0706731 0.026984 0)
  (-0.0607218 -0.0213942 0)
  (-0.0415228 -0.073959 0)
  (-0.0209595 -0.115118 0)
  (-0.00169693 -0.139302 0)
  (0.0145329 -0.145781 0)
  (0.0269433 -0.138013 0)
  (0.0366767 -0.120154 0)
  (0.0445341 -0.0957584 0)
  (0.0518158 -0.0683391 0)
  (0.0604986 -0.0416821 0)
  (0.0733147 -0.0220799 0)
  (0.0840147 -0.0212122 0)
  (0.0851387 -0.0289685 0)
  (0.0787601 -0.0298319 0)
  (0.0705445 -0.0269703 0)
  (0.0637606 -0.023134 0)
  (0.0586165 -0.0185752 0)
  (0.0554695 -0.0131871 0)
  (0.0552191 -0.00737259 0)
  (0.0575539 -0.00454312 0)
  (0.0602728 -0.00352465 0)
  (0.0628646 -0.00274483 0)
  (0.0652403 -0.00116425 0)
  (0.0670597 0.00183226 0)
  (0.0670873 0.00635683 0)
  (0.0647064 0.0125664 0)
  (0.0593161 0.0210941 0)
  (0.0524383 0.0362918 0)
  (0.0423339 0.0543137 0)
  (0.0644228 0.074433 0)
  (-0.0214552 0.103526 0)
  (0.0462804 0.0322915 0)
  (-0.0620949 -0.034517 0)
  (-0.272396 -0.0571644 0)
  (0.729917 0.433646 0)
  (-0.292178 0.191488 0)
  (-0.00330707 0.126639 0)
  (-0.0160038 0.0976418 0)
  (-0.0118963 0.0669148 0)
  (-0.00624522 0.0239346 0)
  (0.0224259 -0.0385852 0)
  (0.0442426 -0.0943026 0)
  (0.0597627 -0.132469 0)
  (0.0691552 -0.151823 0)
  (0.0730867 -0.154319 0)
  (0.0729642 -0.143538 0)
  (0.0702928 -0.123509 0)
  (0.0665804 -0.0982208 0)
  (0.0633154 -0.071338 0)
  (0.0619081 -0.0465262 0)
  (0.0632109 -0.0280603 0)
  (0.0640726 -0.0207649 0)
  (0.0608138 -0.02042 0)
  (0.0538251 -0.0205543 0)
  (0.0459074 -0.0191583 0)
  (0.0392623 -0.016926 0)
  (0.0344284 -0.0142106 0)
  (0.0317012 -0.0110677 0)
  (0.0313477 -0.00811486 0)
  (0.0330134 -0.00696455 0)
  (0.0356406 -0.0068281 0)
  (0.0387691 -0.0064623 0)
  (0.0422137 -0.00485117 0)
  (0.045713 -0.0010961 0)
  (0.0489185 0.00515023 0)
  (0.0506097 0.0135299 0)
  (0.0510431 0.0241856 0)
  (0.0515747 0.0386286 0)
  (0.0504059 0.0563803 0)
  (0.0728811 0.0791441 0)
  (0.0524895 0.0970714 0)
  (0.0931872 0.0678907 0)
  (0.116101 0.0445984 0)
  (-0.129112 -0.00717469 0)
  (0.781937 0.474929 0)
  (-0.313111 0.176941 0)
  (0.023536 0.0771367 0)
  (0.0426664 0.0738457 0)
  (0.0578394 0.0522814 0)
  (0.0845531 0.00110063 0)
  (0.118664 -0.0629743 0)
  (0.137926 -0.111748 0)
  (0.144314 -0.141214 0)
  (0.140513 -0.152808 0)
  (0.129267 -0.149493 0)
  (0.113494 -0.135019 0)
  (0.0957694 -0.113254 0)
  (0.078334 -0.0880976 0)
  (0.0628727 -0.0627576 0)
  (0.0506299 -0.0403452 0)
  (0.0420449 -0.0239726 0)
  (0.0355775 -0.0157477 0)
  (0.0290523 -0.0134448 0)
  (0.0219736 -0.0131173 0)
  (0.0152688 -0.0126025 0)
  (0.00986343 -0.0117825 0)
  (0.00607466 -0.0108007 0)
  (0.00408056 -0.00972318 0)
  (0.00396504 -0.00897107 0)
  (0.00536638 -0.00917817 0)
  (0.00763767 -0.00983988 0)
  (0.0104989 -0.0100946 0)
  (0.0139797 -0.00906669 0)
  (0.0182063 -0.00573174 0)
  (0.0240913 0.000944254 0)
  (0.030133 0.0101479 0)
  (0.035812 0.0209536 0)
  (0.0429661 0.0338464 0)
  (0.0507403 0.0485234 0)
  (0.0728106 0.0669577 0)
  (0.0860052 0.0746697 0)
  (0.118307 0.0520664 0)
  (0.158013 0.043978 0)
  (-0.0352916 0.0939812 0)
  (0.886598 0.477596 0)
  (-0.0705898 0.156581 0)
  (0.106102 0.00381906 0)
  (0.16929 -0.0166151 0)
  (0.182352 -0.0355004 0)
  (0.217969 -0.0695231 0)
  (0.239753 -0.102219 0)
  (0.242241 -0.125559 0)
  (0.228228 -0.137045 0)
  (0.202656 -0.136902 0)
  (0.170393 -0.126894 0)
  (0.135665 -0.109651 0)
  (0.101511 -0.087859 0)
  (0.0704243 -0.0647731 0)
  (0.0438626 -0.042811 0)
  (0.0231929 -0.0245654 0)
  (0.00886726 -0.0125557 0)
  (-0.000465283 -0.00722654 0)
  (-0.00707561 -0.00632297 0)
  (-0.0126258 -0.00687176 0)
  (-0.0173872 -0.00749562 0)
  (-0.0211828 -0.00801206 0)
  (-0.0239283 -0.00847666 0)
  (-0.0255703 -0.00897833 0)
  (-0.0261523 -0.00972655 0)
  (-0.0259795 -0.0108698 0)
  (-0.0254342 -0.0121375 0)
  (-0.0246494 -0.0130853 0)
  (-0.0234842 -0.0132192 0)
  (-0.0215561 -0.0119454 0)
  (-0.0179107 -0.00850579 0)
  (-0.00919337 -0.00214346 0)
  (-0.000293872 0.00627466 0)
  (0.0103725 0.014697 0)
  (0.0221101 0.0218526 0)
  (0.0419311 0.0292192 0)
  (0.0605487 0.0222789 0)
  (0.0800806 -0.00523576 0)
  (0.139198 0.0402639 0)
  (-0.413957 0.206832 0)
  (1.03168 0.429977 0)
  (0.496787 0.285087 0)
  (0.503076 0.191395 0)
  (0.511631 0.119916 0)
  (0.487019 0.068421 0)
  (0.44419 0.0150468 0)
  (0.394184 -0.0331742 0)
  (0.340669 -0.0672876 0)
  (0.283359 -0.0848298 0)
  (0.224678 -0.0878488 0)
  (0.167932 -0.0803803 0)
  (0.115886 -0.0664287 0)
  (0.0695534 -0.0487406 0)
  (0.0308343 -0.0307299 0)
  (-0.000709227 -0.0146026 0)
  (-0.0214829 -0.00464076 0)
  (-0.0325678 -0.000920107 0)
  (-0.0387052 -0.000436742 0)
  (-0.0427119 -0.00141943 0)
  (-0.0462206 -0.002772 0)
  (-0.0494352 -0.00409836 0)
  (-0.0523594 -0.00534505 0)
  (-0.0549672 -0.00654274 0)
  (-0.057279 -0.00773792 0)
  (-0.0594167 -0.00899314 0)
  (-0.0616547 -0.010288 0)
  (-0.064329 -0.0114062 0)
  (-0.0677455 -0.0119763 0)
  (-0.072238 -0.0114731 0)
  (-0.0782723 -0.00919239 0)
  (-0.0864541 -0.0043033 0)
  (-0.0968557 0.00382122 0)
  (-0.107453 0.0146909 0)
  (-0.122753 0.0284674 0)
  (-0.146864 0.0451899 0)
  (-0.182303 0.0636509 0)
  (-0.232362 0.0797791 0)
  (-0.289361 0.0909528 0)
  (-0.357982 0.0971729 0)
  (-0.620139 0.0991227 0)
  (-0.148092 0.0827882 0)
  (0.134732 0.0616619 0)
  (0.217976 0.00589123 0)
  (0.201485 -0.0289027 0)
  (0.18574 -0.0431775 0)
  (0.163187 -0.0477832 0)
  (0.130673 -0.0460962 0)
  (0.0920993 -0.0396549 0)
  (0.0522304 -0.0298779 0)
  (0.014263 -0.0176085 0)
  (-0.0230076 -0.00385593 0)
  (-0.0467265 0.00378835 0)
  (-0.0611901 0.00718611 0)
  (-0.0682232 0.00758502 0)
  (-0.0716556 0.00677337 0)
  (-0.0739117 0.00574936 0)
  (-0.0758529 0.0047356 0)
  (-0.0777884 0.00378755 0)
  (-0.080022 0.00284459 0)
  (-0.0825956 0.00178435 0)
  (-0.0854331 0.000661657 0)
  (-0.0885631 -0.000454352 0)
  (-0.0920606 -0.00147882 0)
  (-0.0960229 -0.00225805 0)
  (-0.100528 -0.0025485 0)
  (-0.105579 -0.00203803 0)
  (-0.111085 -0.000370608 0)
  (-0.116827 0.00281741 0)
  (-0.122202 0.00796212 0)
  (-0.126407 0.0158073 0)
  (-0.129891 0.0274822 0)
  (-0.132902 0.0433745 0)
  (-0.136246 0.0625847 0)
  (-0.140429 0.0814373 0)
  (-0.142264 0.090031 0)
  (-0.124906 0.0675235 0)
  (-0.0810369 -0.0257132 0)
  (-0.278861 -0.203595 0)
  (-0.0233201 0.230922 0)
  (0.0635846 0.0994322 0)
  (0.0375301 0.0189058 0)
  (0.0253659 -0.00447316 0)
  (0.0159717 -0.00979783 0)
  (-0.00271628 -0.011134 0)
  (-0.0276922 -0.00864047 0)
  (-0.0533966 -0.00405108 0)
  (-0.0751556 0.000457986 0)
  (-0.0901332 0.00346443 0)
  (-0.097331 0.00371658 0)
  (-0.0998742 0.00147042 0)
  (-0.100232 -0.00152054 0)
  (-0.0996342 -0.00490276 0)
  (-0.0991692 -0.00834453 0)
  (-0.0992341 -0.0115954 0)
  (-0.099857 -0.0145255 0)
  (-0.100942 -0.0169343 0)
  (-0.102356 -0.0186786 0)
  (-0.104021 -0.0197424 0)
  (-0.105985 -0.0202287 0)
  (-0.108213 -0.0201457 0)
  (-0.1107 -0.0197264 0)
  (-0.113413 -0.0190055 0)
  (-0.116241 -0.0178705 0)
  (-0.118953 -0.0160889 0)
  (-0.121187 -0.0132812 0)
  (-0.122434 -0.00887115 0)
  (-0.122158 -0.00264383 0)
  (-0.119388 0.00592892 0)
  (-0.112681 0.0177142 0)
  (-0.10075 0.0334667 0)
  (-0.0833087 0.0527419 0)
  (-0.0612442 0.0714262 0)
  (-0.0374319 0.0823725 0)
  (0.00266455 0.066654 0)
  (0.14343 -0.004556 0)
  (-0.207375 -0.114262 0)
  (-0.103521 -0.34873 0)
  (-0.439275 -0.120312 0)
  (-0.310768 0.0956542 0)
  (-0.226577 -0.0202197 0)
  (-0.180178 -0.0413101 0)
  (-0.165775 -0.0291392 0)
  (-0.163363 -0.0161902 0)
  (-0.164659 -0.00588037 0)
  (-0.165178 0.00273185 0)
  (-0.162899 0.0102712 0)
  (-0.158174 0.0171911 0)
  (-0.151122 0.0234866 0)
  (-0.142676 0.0288918 0)
  (-0.13427 0.033416 0)
  (-0.126761 0.037622 0)
  (-0.120481 0.0417221 0)
  (-0.115443 0.0457911 0)
  (-0.111477 0.0496309 0)
  (-0.108437 0.0528837 0)
  (-0.106224 0.0552199 0)
  (-0.104757 0.0564469 0)
  (-0.103959 0.0565476 0)
  (-0.103774 0.05564 0)
  (-0.104144 0.0538373 0)
  (-0.104987 0.0515851 0)
  (-0.106204 0.049089 0)
  (-0.107635 0.0464566 0)
  (-0.109016 0.0437787 0)
  (-0.109928 0.0411297 0)
  (-0.109694 0.0385747 0)
  (-0.107062 0.03696 0)
  (-0.100148 0.0369857 0)
  (-0.0864806 0.0394214 0)
  (-0.0641986 0.0451656 0)
  (-0.0339099 0.0547189 0)
  (0.014502 0.067729 0)
  (0.0591695 0.0689714 0)
  (0.101751 0.0542503 0)
  (0.163864 0.0251948 0)
  (-0.219148 -0.0296689 0)
)
;

boundaryField
{
  floor
  {
    type noSlip;
  }
  ceiling
  {
    type noSlip;
  }
  sWall
  {
    type noSlip;
  }
  nWall
  {
    type noSlip;
  }
  sideWalls
  {
    type empty;
  }
  glass1
  {
    type noSlip;
  }
  glass2
  {
    type noSlip;
  }
  sun
  {
    type noSlip;
  }
  heatsource1
  {
    type noSlip;
  }
  heatsource2
  {
    type noSlip;
  }
  Table_master
  {
    type noSlip;
  }
  Table_slave
  {
    type noSlip;
  }
  inlet
  {
    type fixedValue;
    value uniform (0.3 0 0);
  }
  outlet
  {
    type zeroGradient;
  }
} 	// ************************************************************************* //

