// -*- C++ -*-
// File generated by PyFoam - sorry for the ugliness

FoamFile
{
 version 2.0;
 format ascii;
 class volScalarField;
 location "1400";
 object T;
}

dimensions [ 0 0 0 1 0 0 0 ];

internalField nonuniform List<scalar> 459
(
  303.388
  303.125
  303.112
  303.108
  303.105
  303.101
  303.096
  303.09
  303.081
  303.07
  303.058
  303.047
  303.041
  303.039
  303.046
  303.134
  303.114
  303.106
  303.108
  303.112
  303.116
  303.12
  303.124
  303.128
  303.132
  303.136
  303.14
  303.143
  303.147
  303.151
  303.155
  303.159
  303.165
  303.184
  303.567
  303.167
  303.144
  303.147
  303.15
  303.151
  303.149
  303.141
  303.125
  303.1
  303.072
  303.048
  303.033
  303.026
  303.025
  303.022
  303.019
  303.136
  303.098
  303.092
  303.094
  303.098
  303.103
  303.105
  303.106
  303.108
  303.109
  303.11
  303.111
  303.113
  303.114
  303.117
  303.12
  303.126
  303.135
  303.167
  303.754
  303.218
  303.181
  303.192
  303.207
  303.218
  303.223
  303.216
  303.189
  303.145
  303.096
  303.056
  303.03
  303.02
  303.019
  303.021
  303.021
  303.087
  303.08
  303.083
  303.092
  303.102
  303.109
  303.109
  303.109
  303.109
  303.109
  303.11
  303.11
  303.11
  303.11
  303.111
  303.114
  303.118
  303.126
  303.16
  303.942
  303.28
  303.217
  303.237
  303.267
  303.295
  303.314
  303.309
  303.266
  303.195
  303.119
  303.061
  303.026
  303.014
  303.015
  303.021
  303.026
  303.036
  303.048
  303.066
  303.085
  303.103
  303.12
  303.133
  303.143
  303.152
  303.161
  303.168
  303.174
  303.178
  303.182
  303.184
  303.185
  303.163
  303.143
  303.134
  303.16
  304.126
  303.358
  303.257
  303.273
  303.315
  303.364
  303.405
  303.399
  303.335
  303.233
  303.13
  303.058
  303.018
  303.006
  303.012
  303.024
  303.038
  303.053
  303.072
  303.093
  303.116
  303.138
  303.157
  303.173
  303.187
  303.198
  303.208
  303.215
  303.22
  303.222
  303.221
  303.218
  303.211
  303.193
  303.168
  303.147
  303.157
  303.231
  303.277
  303.283
  304.291
  303.458
  303.322
  303.314
  303.354
  303.415
  303.478
  303.456
  303.363
  303.239
  303.123
  303.041
  303.001
  302.994
  303.01
  303.034
  303.058
  303.083
  303.109
  303.135
  303.161
  303.183
  303.203
  303.218
  303.231
  303.242
  303.25
  303.256
  303.259
  303.258
  303.253
  303.245
  303.233
  303.215
  303.19
  303.165
  303.16
  303.191
  303.208
  303.243
  304.44
  303.618
  303.475
  303.439
  303.458
  303.514
  303.541
  303.476
  303.345
  303.196
  303.071
  302.995
  302.968
  302.981
  303.015
  303.057
  303.095
  303.13
  303.161
  303.189
  303.213
  303.234
  303.251
  303.264
  303.274
  303.282
  303.288
  303.291
  303.291
  303.288
  303.28
  303.268
  303.254
  303.236
  303.213
  303.188
  303.176
  303.184
  303.194
  303.223
  304.658
  304.042
  303.878
  303.775
  303.727
  303.709
  303.609
  303.433
  303.234
  303.064
  302.955
  302.914
  302.929
  302.978
  303.042
  303.105
  303.155
  303.194
  303.224
  303.247
  303.267
  303.282
  303.295
  303.304
  303.311
  303.316
  303.318
  303.319
  303.317
  303.312
  303.304
  303.292
  303.278
  303.261
  303.244
  303.226
  303.22
  303.233
  303.252
  303.379
  304.968
  304.68
  304.414
  304.184
  303.996
  303.771
  303.437
  303.118
  302.892
  302.78
  302.768
  302.824
  302.921
  303.021
  303.117
  303.189
  303.232
  303.26
  303.281
  303.298
  303.312
  303.323
  303.331
  303.336
  303.34
  303.342
  303.342
  303.341
  303.339
  303.336
  303.334
  303.334
  303.336
  303.343
  303.357
  303.38
  303.413
  303.446
  303.468
  303.523
  297.024
  299.144
  300.257
  300.716
  301.161
  301.603
  302.012
  302.36
  302.64
  302.866
  303.06
  303.166
  303.232
  303.272
  303.297
  303.315
  303.329
  303.339
  303.348
  303.354
  303.358
  303.361
  303.363
  303.365
  303.366
  303.366
  303.367
  303.368
  303.37
  303.372
  303.376
  303.385
  303.398
  303.418
  303.441
  303.465
  303.484
  303.505
  297.461
  299.333
  300.274
  300.977
  301.576
  302.109
  302.516
  302.801
  302.999
  303.133
  303.22
  303.273
  303.306
  303.328
  303.343
  303.354
  303.362
  303.368
  303.373
  303.376
  303.379
  303.38
  303.382
  303.383
  303.385
  303.386
  303.387
  303.388
  303.39
  303.392
  303.396
  303.402
  303.411
  303.424
  303.44
  303.459
  303.457
  303.487
  299.531
  299.461
  299.457
  301.236
  302.099
  302.542
  302.793
  302.97
  303.098
  303.187
  303.25
  303.293
  303.322
  303.34
  303.353
  303.361
  303.367
  303.372
  303.375
  303.378
  303.38
  303.382
  303.384
  303.386
  303.388
  303.389
  303.391
  303.393
  303.394
  303.396
  303.398
  303.4
  303.402
  303.406
  303.411
  303.421
  303.431
  303.437
  303.439
  303.478
)
;

boundaryField
{
  floor
  {
    type wallHeatTransfer;
    Tinf uniform 305.2;
    alphaWall uniform 0.24;
    value nonuniform List<scalar> 29
(
  303.268
  303.531
  303.47
  303.435
  303.434
  303.444
  303.457
  303.476
  303.496
  303.516
  303.536
  303.555
  303.573
  303.591
  303.608
  303.624
  303.641
  303.66
  303.674
  303.715
  303.715
  303.619
  303.571
  303.542
  303.268
  303.531
  303.522
  303.34
  303.226
)
;
  }
  ceiling
  {
    type wallHeatTransfer;
    Tinf uniform 303.2;
    alphaWall uniform 0.24;
    value nonuniform List<scalar> 43
(
  299.785
  299.709
  299.698
  301.36
  302.175
  302.59
  302.824
  302.988
  303.107
  303.188
  303.245
  303.283
  303.307
  303.322
  303.331
  303.337
  303.341
  303.344
  303.346
  303.348
  303.35
  303.352
  303.354
  303.356
  303.358
  303.36
  303.362
  303.365
  303.367
  303.369
  303.372
  303.375
  303.378
  303.383
  303.389
  303.399
  303.408
  303.413
  303.413
  303.446
  304.886
  304.621
  297.811
)
;
  }
  sWall
  {
    type wallHeatTransfer;
    Tinf uniform 315.2;
    alphaWall uniform 0.36;
    value uniform 301.11;
  }
  nWall
  {
    type wallHeatTransfer;
    Tinf uniform 307.2;
    alphaWall uniform 0.36;
    value nonuniform List<scalar> 6
(
  304.008
  303.954
  303.874
  304.037
  304.016
  304.074
)
;
  }
  sideWalls
  {
    type empty;
  }
  glass1
  {
    type wallHeatTransfer;
    Tinf uniform 315.2;
    alphaWall uniform 4.3;
    value nonuniform List<scalar> 9
(
  311.495
  310.86
  310.458
  310.151
  309.896
  309.663
  309.482
  309.548
  309.77
)
;
  }
  glass2
  {
    type wallHeatTransfer;
    Tinf uniform 307.2;
    alphaWall uniform 4.3;
    value nonuniform List<scalar> 2
(
  305.739
  305.843
)
;
  }
  sun
  {
    type wallHeatTransfer;
    Tinf uniform 305.2;
    alphaWall uniform 0.24;
    value nonuniform List<scalar> 14
(
  303.582
  303.332
  303.318
  303.307
  303.298
  303.288
  303.279
  303.269
  303.258
  303.246
  303.236
  303.231
  303.233
  303.244
)
;
  }
  heatsource1
  {
    type fixedGradient;
    gradient uniform 0;
  }
  heatsource2
  {
    type fixedGradient;
    gradient uniform 0;
  }
  Table_master
  {
    type zeroGradient;
  }
  Table_slave
  {
    type zeroGradient;
  }
  inlet
  {
    type fixedValue;
    value uniform 293.15;
  }
  outlet
  {
    type zeroGradient;
  }
} 	// ************************************************************************* //

