/*--------------------------------*- C++ -*----------------------------------*\
  =========                 |
  \\      /  F ield         | OpenFOAM: The Open Source CFD Toolbox
   \\    /   O peration     | Website:  https://openfoam.org
    \\  /    A nd           | Version:  6
     \\/     M anipulation  |
\*---------------------------------------------------------------------------*/
FoamFile
{
    version     2.0;
    format      ascii;
    class       volScalarField;
    location    "200";
    object      epsilon;
}
// * * * * * * * * * * * * * * * * * * * * * * * * * * * * * * * * * * * * * //

dimensions      [0 2 -3 0 0 0 0];

internalField   nonuniform List<scalar> 
459
(
0.000174396
0.000195096
8.28637e-05
5.42073e-05
5.02601e-05
4.99764e-05
5.1005e-05
5.30487e-05
5.60428e-05
5.99e-05
6.43876e-05
6.90602e-05
7.32091e-05
7.55463e-05
7.31076e-05
6.96721e-06
9.00945e-06
9.76251e-06
7.69456e-06
5.6945e-06
4.65998e-06
3.99083e-06
4.48362e-06
5.64916e-06
7.21745e-06
8.91054e-06
1.01738e-05
9.99044e-06
9.25731e-06
8.22757e-06
7.17091e-06
5.88225e-06
4.77633e-06
3.65496e-06
0.00101675
0.00203988
0.000284587
6.67648e-05
4.08459e-05
3.72244e-05
3.79775e-05
4.045e-05
4.41186e-05
4.89198e-05
5.49137e-05
6.21348e-05
7.03415e-05
7.86561e-05
8.71778e-05
0.00011385
3.73163e-05
3.0744e-05
2.65505e-05
2.00398e-05
1.47694e-05
1.07298e-05
8.27369e-06
6.79052e-06
9.09301e-06
1.33218e-05
1.81554e-05
2.21989e-05
2.40798e-05
2.3463e-05
2.06838e-05
1.68944e-05
1.3459e-05
1.10387e-05
1.08102e-05
8.01269e-06
0.00268223
0.00656794
0.00101775
0.000187885
7.4739e-05
5.31182e-05
4.86307e-05
4.95849e-05
5.32443e-05
5.88729e-05
6.63121e-05
7.54875e-05
8.60845e-05
9.72905e-05
0.000108387
0.000122083
0.000153667
8.62899e-05
6.73734e-05
4.95251e-05
4.04575e-05
3.23672e-05
2.44135e-05
9.26755e-06
1.08752e-05
1.33361e-05
1.59522e-05
1.86984e-05
2.17793e-05
2.58266e-05
3.18275e-05
4.36976e-05
3.42206e-05
3.49356e-05
4.81739e-05
2.99966e-05
0.00512251
0.0134037
0.00281497
0.000596453
0.000191782
9.93018e-05
7.36047e-05
6.72962e-05
6.85408e-05
7.36816e-05
8.15037e-05
9.13947e-05
0.000102642
0.000114242
0.000125441
0.000137438
0.0001587
0.00021103
7.64064e-05
6.41014e-05
5.97982e-05
6.07386e-05
6.60372e-05
7.70855e-05
9.8464e-05
9.79893e-05
9.75347e-05
9.72701e-05
9.78189e-05
9.98126e-05
0.000104082
0.000112105
0.000127159
7.01188e-05
7.82942e-05
9.42225e-05
9.15415e-05
0.00803459
0.0210975
0.00604668
0.00176906
0.000618858
0.000246479
0.000136049
0.000102192
9.437e-05
9.67399e-05
0.000104376
0.000115242
0.000127687
0.000139443
0.000147297
0.000147369
0.00013701
0.00011688
9.27052e-05
8.22618e-05
7.87804e-05
7.83986e-05
7.9492e-05
8.10903e-05
8.20097e-05
8.14554e-05
8.07314e-05
8.01241e-05
7.99134e-05
8.03595e-05
8.1674e-05
8.39579e-05
8.69913e-05
8.98108e-05
9.75067e-05
0.000110372
0.000133153
0.000164531
0.000176251
0.000188289
0.0112465
0.0264632
0.0111174
0.00430959
0.00193856
0.000786955
0.00032887
0.000181003
0.000141488
0.000134005
0.000139665
0.000152319
0.000169102
0.000187399
0.000203584
0.000212602
0.000209681
0.000194524
0.000175251
0.000160373
0.000150769
0.000146127
0.000144492
0.000143646
0.000142542
0.00014083
0.000138769
0.000136557
0.000134471
0.000132858
0.000132098
0.000132603
0.000134802
0.000139091
0.000146005
0.000155872
0.000170261
0.000192651
0.000230991
0.000312933
0.014229
0.0257985
0.0184821
0.0102739
0.00530219
0.00242795
0.000974569
0.000399158
0.000242832
0.000201923
0.000199044
0.000211986
0.000233271
0.000259646
0.000287915
0.000311583
0.000323704
0.000321078
0.000308669
0.000293876
0.000281026
0.000271583
0.000265361
0.000261218
0.000257716
0.000253959
0.000249687
0.00024494
0.000239999
0.00023531
0.00023144
0.000229042
0.000228766
0.000231078
0.000236143
0.000243941
0.000255863
0.000281828
0.000351232
0.00047083
0.0130893
0.0243969
0.0357599
0.0237839
0.012288
0.005407
0.00223752
0.00096315
0.000498823
0.000352327
0.000320849
0.000330202
0.000356162
0.000391064
0.000428896
0.00046608
0.000495565
0.000509656
0.00050954
0.000501071
0.000489408
0.000478047
0.000468765
0.000461514
0.000455111
0.00044839
0.00044082
0.000432356
0.000423275
0.000414087
0.000405502
0.000398405
0.000393752
0.000392323
0.000394462
0.000399526
0.000406179
0.000423785
0.000516197
0.000661589
0.0109328
0.0204602
0.13656
0.0728252
0.0264288
0.00900082
0.00342194
0.00158931
0.000938824
0.000708615
0.00064514
0.000649064
0.000678284
0.000716334
0.000757436
0.000797483
0.000830393
0.000852651
0.000862612
0.000863228
0.000856533
0.000846372
0.000836064
0.000826363
0.000816457
0.000805115
0.000792056
0.000777584
0.000762237
0.000746688
0.000731766
0.000718505
0.000708106
0.000701736
0.000700137
0.000702505
0.000705
0.000708936
0.000768083
0.000928453
0.354354
0.202774
0.0358826
0.00935469
0.00414418
0.00254495
0.00191088
0.0016786
0.00163657
0.00166379
0.00170257
0.00172966
0.00174222
0.00174526
0.00174397
0.00174027
0.00173319
0.00172052
0.00170341
0.00168452
0.00166743
0.00165034
0.00163111
0.00160757
0.00158038
0.00155106
0.00152107
0.00149167
0.00146395
0.00143899
0.00141793
0.00140187
0.00139124
0.00138416
0.00137395
0.00135323
0.0013598
0.00134945
0.202168
0.102669
0.0339163
0.0141373
0.00757316
0.00508998
0.00411808
0.0038437
0.00392549
0.00411101
0.00425501
0.00430925
0.00428592
0.00421735
0.0041313
0.00404341
0.00395999
0.003883
0.00381297
0.00375021
0.00369324
0.00364267
0.00359406
0.00354087
0.00348322
0.00342372
0.00336527
0.00331017
0.00326002
0.00321593
0.00317848
0.00314739
0.00312023
0.00308998
0.00304372
0.00296286
0.00299405
0.00195288
0.000723183
0.0017825
0.0455421
0.0361364
0.0234169
0.0147925
0.00971355
0.00672167
0.0049377
0.00388537
0.00329589
0.00301708
0.00291022
0.00288039
0.00287193
0.00285963
0.00283649
0.00280337
0.00276299
0.00271745
0.00266815
0.00261628
0.00256292
0.00250816
0.0024546
0.00240373
0.00235184
0.00229739
0.00224005
0.00217996
0.00211732
0.00205207
0.00198376
0.00191135
0.00183281
0.00174432
0.00163885
0.00150341
0.00132105
0.000829048
)
;

boundaryField
{
    floor
    {
        Cmu             0.09;
        kappa           0.41;
        E               9.8;
        type            epsilonWallFunction;
        value           nonuniform List<scalar> 
29
(
7.31076e-05
6.96721e-06
9.00945e-06
9.76251e-06
7.69456e-06
5.6945e-06
4.65998e-06
3.99083e-06
4.48362e-06
5.64916e-06
7.21745e-06
8.91054e-06
1.01738e-05
9.99044e-06
9.25731e-06
8.22757e-06
7.17091e-06
5.88225e-06
4.77633e-06
3.65496e-06
3.65496e-06
8.01269e-06
2.99966e-05
9.15415e-05
7.31076e-05
6.96721e-06
3.0744e-05
8.62899e-05
0.00021103
)
;
    }
    ceiling
    {
        Cmu             0.09;
        kappa           0.41;
        E               9.8;
        type            epsilonWallFunction;
        value           nonuniform List<scalar> 
43
(
0.000723183
0.0017825
0.0455421
0.0361364
0.0234169
0.0147925
0.00971355
0.00672167
0.0049377
0.00388537
0.00329589
0.00301708
0.00291022
0.00288039
0.00287193
0.00285963
0.00283649
0.00280337
0.00276299
0.00271745
0.00266815
0.00261628
0.00256292
0.00250816
0.0024546
0.00240373
0.00235184
0.00229739
0.00224005
0.00217996
0.00211732
0.00205207
0.00198376
0.00191135
0.00183281
0.00174432
0.00163885
0.00150341
0.00132105
0.000829048
0.0109328
0.0204602
0.202168
)
;
    }
    sWall
    {
        Cmu             0.09;
        kappa           0.41;
        E               9.8;
        type            epsilonWallFunction;
        value           uniform 0.000723183;
    }
    nWall
    {
        Cmu             0.09;
        kappa           0.41;
        E               9.8;
        type            epsilonWallFunction;
        value           nonuniform List<scalar> 6(0.000188289 0.000312933 0.00047083 0.00134945 0.00195288 0.000829048);
    }
    sideWalls
    {
        type            empty;
    }
    glass1
    {
        Cmu             0.09;
        kappa           0.41;
        E               9.8;
        type            epsilonWallFunction;
        value           nonuniform List<scalar> 9(0.000174396 0.00101675 0.00268223 0.00512251 0.00803459 0.0112465 0.014229 0.0130893 0.0109328);
    }
    glass2
    {
        Cmu             0.09;
        kappa           0.41;
        E               9.8;
        type            epsilonWallFunction;
        value           nonuniform List<scalar> 2(0.000661589 0.000928453);
    }
    sun
    {
        Cmu             0.09;
        kappa           0.41;
        E               9.8;
        type            epsilonWallFunction;
        value           nonuniform List<scalar> 
14
(
0.000174396
0.000195096
8.28637e-05
5.42073e-05
5.02601e-05
4.99764e-05
5.1005e-05
5.30487e-05
5.60428e-05
5.99e-05
6.43876e-05
6.90602e-05
7.32091e-05
7.55463e-05
)
;
    }
    heatsource1
    {
        Cmu             0.09;
        kappa           0.41;
        E               9.8;
        type            epsilonWallFunction;
        value           nonuniform List<scalar> 3(0.000164531 0.000176251 0.000188289);
    }
    heatsource2
    {
        Cmu             0.09;
        kappa           0.41;
        E               9.8;
        type            epsilonWallFunction;
        value           nonuniform List<scalar> 4(0.00011385 3.73163e-05 3.73163e-05 0.000153667);
    }
    Table_master
    {
        Cmu             0.09;
        kappa           0.41;
        E               9.8;
        type            epsilonWallFunction;
        value           nonuniform List<scalar> 9(9.26755e-06 1.08752e-05 1.33361e-05 1.59522e-05 1.86984e-05 2.17793e-05 2.58266e-05 3.18275e-05 4.36976e-05);
    }
    Table_slave
    {
        Cmu             0.09;
        kappa           0.41;
        E               9.8;
        type            epsilonWallFunction;
        value           nonuniform List<scalar> 9(9.8464e-05 9.79893e-05 9.75347e-05 9.72701e-05 9.78189e-05 9.98126e-05 0.000104082 0.000112105 0.000127159);
    }
    inlet
    {
        type            turbulentMixingLengthDissipationRateInlet;
        mixingLength    0.01;
        phi             phi;
        k               k;
        value           uniform 0.354354;
    }
    outlet
    {
        type            zeroGradient;
    }
}


// ************************************************************************* //
