/*--------------------------------*- C++ -*----------------------------------*\
  =========                 |
  \\      /  F ield         | OpenFOAM: The Open Source CFD Toolbox
   \\    /   O peration     | Website:  https://openfoam.org
    \\  /    A nd           | Version:  6
     \\/     M anipulation  |
\*---------------------------------------------------------------------------*/
FoamFile
{
    version     2.0;
    format      ascii;
    class       volScalarField;
    location    "500";
    object      epsilon;
}
// * * * * * * * * * * * * * * * * * * * * * * * * * * * * * * * * * * * * * //

dimensions      [0 2 -3 0 0 0 0];

internalField   nonuniform List<scalar> 
459
(
0.000138925
0.000159116
0.000155912
0.000170617
0.000183277
0.000193988
0.000203116
0.000211104
0.00021846
0.000225663
0.000230554
0.00023236
0.000231122
0.000228498
0.000225625
9.45277e-05
7.67458e-05
6.49304e-05
5.70934e-05
5.12739e-05
4.63469e-05
4.17655e-05
3.7777e-05
3.42709e-05
3.11559e-05
2.83724e-05
2.58717e-05
2.36068e-05
2.15248e-05
1.95585e-05
1.76272e-05
1.56051e-05
1.4025e-05
1.09097e-05
0.000454742
0.000977187
0.00014719
0.000130571
0.000126191
0.000124205
0.000124325
0.000127473
0.00013461
0.0001463
0.00015871
0.000169464
0.000176521
0.000181231
0.000194795
0.000240996
0.000198494
0.000145859
7.91416e-05
5.44459e-05
4.28637e-05
3.59741e-05
3.14508e-05
2.93503e-05
2.67474e-05
2.4212e-05
2.1761e-05
1.94497e-05
1.73169e-05
1.53696e-05
1.36018e-05
1.21028e-05
1.1429e-05
1.1686e-05
2.93193e-05
2.077e-05
0.00099767
0.00308276
0.000216965
0.000129079
0.000122402
0.000124205
0.000129715
0.000139134
0.000152477
0.000168921
0.00018521
0.000196576
0.000199614
0.000196201
0.000195892
0.00021297
0.000301054
0.000199275
7.52041e-05
4.81241e-05
3.78705e-05
3.24085e-05
3.07549e-05
6.6785e-05
4.92225e-05
3.80289e-05
3.05759e-05
2.53932e-05
2.16516e-05
1.88888e-05
1.68726e-05
1.5575e-05
1.2657e-05
1.20346e-05
5.51918e-05
3.15983e-05
0.0019111
0.00734983
0.000439074
0.00013723
0.000124388
0.000130694
0.000140796
0.000154765
0.000173429
0.000197001
0.000220403
0.00023427
0.000233814
0.00022107
0.000203031
0.000191776
0.000214221
0.00029393
0.000127446
6.21933e-05
4.13458e-05
3.3483e-05
3.04234e-05
3.18107e-05
8.05332e-05
7.05848e-05
6.65211e-05
6.40105e-05
6.07951e-05
5.57356e-05
5.03878e-05
4.47556e-05
3.81787e-05
2.4136e-05
1.76469e-05
9.81468e-05
4.28758e-05
0.00333122
0.0142071
0.00105003
0.000161842
0.000123211
0.00013134
0.000145987
0.000167038
0.000197287
0.000238526
0.000277982
0.000297857
0.000294183
0.000271383
0.000235932
0.00019805
0.000176683
0.000178547
0.000100983
6.02109e-05
4.03782e-05
3.35548e-05
3.24874e-05
3.44267e-05
3.98616e-05
4.354e-05
4.62862e-05
4.75127e-05
4.6437e-05
4.2807e-05
3.84882e-05
3.48321e-05
3.18039e-05
2.66057e-05
2.17296e-05
7.08667e-05
4.73452e-05
9.39712e-05
0.000158755
0.000216803
0.0054123
0.0218234
0.00273649
0.000286061
0.000137001
0.000132828
0.000146142
0.000171181
0.000217484
0.000301015
0.000364106
0.000387057
0.00037595
0.000340984
0.000288727
0.000226656
0.000172649
0.000149148
0.000111611
6.56504e-05
4.38679e-05
3.76476e-05
3.83042e-05
4.21848e-05
4.82626e-05
5.51281e-05
6.14855e-05
6.58341e-05
6.65716e-05
6.21032e-05
5.23959e-05
4.29757e-05
3.52321e-05
2.91029e-05
2.62181e-05
4.85341e-05
4.87462e-05
6.5814e-05
0.000298125
0.000244338
0.00839447
0.0260993
0.00712314
0.00126794
0.000412265
0.000243938
0.000212492
0.000221903
0.000284042
0.000441194
0.000506818
0.000511389
0.000478887
0.000424621
0.000354017
0.000269604
0.000187835
0.000155333
0.00012869
7.53564e-05
5.20654e-05
4.64569e-05
4.82174e-05
5.37075e-05
6.18112e-05
7.1715e-05
8.24808e-05
9.21057e-05
9.89387e-05
9.98904e-05
8.93557e-05
7.24056e-05
5.82098e-05
4.7623e-05
4.43185e-05
5.63447e-05
7.39817e-05
0.000132905
0.000352798
0.000314497
0.00944374
0.0339806
0.0161731
0.00818583
0.0038298
0.00182984
0.001052
0.000778683
0.00077673
0.000788171
0.000753457
0.000686778
0.000605237
0.000517427
0.000422189
0.000315508
0.000208819
0.00016514
0.000148585
9.02338e-05
6.56316e-05
6.01641e-05
6.23482e-05
6.8636e-05
7.80229e-05
9.00479e-05
0.000104417
0.000120869
0.000139165
0.000158345
0.00017563
0.000175007
0.000172676
0.00018394
0.000214772
0.000337144
0.000683499
0.00155914
0.00519782
0.00134353
0.00907999
0.0168926
0.0137666
0.0101717
0.00709509
0.00475009
0.00321202
0.00229975
0.00174423
0.00135999
0.00108858
0.000888944
0.000733519
0.00060311
0.000479749
0.000349382
0.000218608
0.000169257
0.000172694
0.000114713
8.7947e-05
8.09014e-05
8.15161e-05
8.62945e-05
9.44347e-05
0.000105846
0.000120884
0.000140465
0.00016618
0.000200349
0.000246138
0.000307484
0.000389292
0.000522452
0.000725676
0.00100808
0.00133392
0.00161132
0.00179522
0.00106147
0.00613901
0.00756103
0.00601416
0.00448367
0.00331363
0.00248595
0.00191055
0.00149628
0.00119138
0.00096077
0.000779006
0.000627767
0.000487835
0.000345802
0.000205081
0.00016062
0.000211127
0.000160674
0.00012902
0.000118616
0.00011564
0.000116143
0.00011963
0.000126144
0.000135963
0.000149851
0.000169345
0.000197124
0.000237532
0.000296671
0.000381004
0.000500246
0.000658744
0.000839041
0.000986385
0.0010254
0.000898309
0.000572556
0.00440734
0.00701571
0.00557832
0.00413682
0.00312608
0.00237763
0.00181935
0.00140356
0.00108705
0.000843875
0.000654355
0.000504252
0.000382603
0.000283372
0.000172443
0.000127028
0.0001758
0.000177625
0.000162181
0.000151041
0.000143692
0.000139134
0.00013793
0.000140864
0.000148696
0.000162331
0.000183048
0.00021275
0.000254295
0.000312143
0.000392123
0.000500298
0.000638091
0.000796801
0.000922567
0.00104781
0.000779094
0.000592159
0.00302774
0.00348298
0.00391804
0.00467717
0.00388027
0.00290026
0.00233024
0.00187394
0.00150256
0.00119885
0.000975395
0.000796458
0.000645834
0.000515671
0.000401673
0.000299266
0.0001606
0.000109857
0.000118748
0.000116242
0.000113979
0.000115286
0.000119121
0.000125209
0.000133698
0.000144797
0.000158791
0.000176161
0.000197767
0.000225208
0.000260854
0.00030524
0.000360823
0.000430605
0.000518448
0.000652449
0.000706693
0.00066684
0.000545939
0.000433383
)
;

boundaryField
{
    floor
    {
        Cmu             0.09;
        kappa           0.41;
        E               9.8;
        type            epsilonWallFunction;
        value           nonuniform List<scalar> 
29
(
0.000225625
9.45277e-05
7.67458e-05
6.49304e-05
5.70934e-05
5.12739e-05
4.63469e-05
4.17655e-05
3.7777e-05
3.42709e-05
3.11559e-05
2.83724e-05
2.58717e-05
2.36068e-05
2.15248e-05
1.95585e-05
1.76272e-05
1.56051e-05
1.4025e-05
1.09097e-05
1.09097e-05
2.077e-05
3.15983e-05
4.28758e-05
0.000225625
9.45277e-05
0.000145859
0.000199275
0.00029393
)
;
    }
    ceiling
    {
        Cmu             0.09;
        kappa           0.41;
        E               9.8;
        type            epsilonWallFunction;
        value           nonuniform List<scalar> 
43
(
0.00302774
0.00348298
0.00391804
0.00467717
0.00388027
0.00290026
0.00233024
0.00187394
0.00150256
0.00119885
0.000975395
0.000796458
0.000645834
0.000515671
0.000401673
0.000299266
0.0001606
0.000109857
0.000118748
0.000116242
0.000113979
0.000115286
0.000119121
0.000125209
0.000133698
0.000144797
0.000158791
0.000176161
0.000197767
0.000225208
0.000260854
0.00030524
0.000360823
0.000430605
0.000518448
0.000652449
0.000706693
0.00066684
0.000545939
0.000433383
0.00907999
0.0168926
0.00440734
)
;
    }
    sWall
    {
        Cmu             0.09;
        kappa           0.41;
        E               9.8;
        type            epsilonWallFunction;
        value           uniform 0.00302774;
    }
    nWall
    {
        Cmu             0.09;
        kappa           0.41;
        E               9.8;
        type            epsilonWallFunction;
        value           nonuniform List<scalar> 6(0.000216803 0.000244338 0.000314497 0.000572556 0.000592159 0.000433383);
    }
    sideWalls
    {
        type            empty;
    }
    glass1
    {
        Cmu             0.09;
        kappa           0.41;
        E               9.8;
        type            epsilonWallFunction;
        value           nonuniform List<scalar> 9(0.000138925 0.000454742 0.00099767 0.0019111 0.00333122 0.0054123 0.00839447 0.00944374 0.00907999);
    }
    glass2
    {
        Cmu             0.09;
        kappa           0.41;
        E               9.8;
        type            epsilonWallFunction;
        value           nonuniform List<scalar> 2(0.00134353 0.00106147);
    }
    sun
    {
        Cmu             0.09;
        kappa           0.41;
        E               9.8;
        type            epsilonWallFunction;
        value           nonuniform List<scalar> 
14
(
0.000138925
0.000159116
0.000155912
0.000170617
0.000183277
0.000193988
0.000203116
0.000211104
0.00021846
0.000225663
0.000230554
0.00023236
0.000231122
0.000228498
)
;
    }
    heatsource1
    {
        Cmu             0.09;
        kappa           0.41;
        E               9.8;
        type            epsilonWallFunction;
        value           nonuniform List<scalar> 3(9.39712e-05 0.000158755 0.000216803);
    }
    heatsource2
    {
        Cmu             0.09;
        kappa           0.41;
        E               9.8;
        type            epsilonWallFunction;
        value           nonuniform List<scalar> 4(0.000240996 0.000198494 0.000198494 0.000301054);
    }
    Table_master
    {
        Cmu             0.09;
        kappa           0.41;
        E               9.8;
        type            epsilonWallFunction;
        value           nonuniform List<scalar> 9(6.6785e-05 4.92225e-05 3.80289e-05 3.05759e-05 2.53932e-05 2.16516e-05 1.88888e-05 1.68726e-05 1.5575e-05);
    }
    Table_slave
    {
        Cmu             0.09;
        kappa           0.41;
        E               9.8;
        type            epsilonWallFunction;
        value           nonuniform List<scalar> 9(8.05332e-05 7.05848e-05 6.65211e-05 6.40105e-05 6.07951e-05 5.57356e-05 5.03878e-05 4.47556e-05 3.81787e-05);
    }
    inlet
    {
        type            turbulentMixingLengthDissipationRateInlet;
        mixingLength    0.01;
        phi             phi;
        k               k;
        value           uniform 0.000101881;
    }
    outlet
    {
        type            zeroGradient;
    }
}


// ************************************************************************* //
