/*--------------------------------*- C++ -*----------------------------------*\
  =========                 |
  \\      /  F ield         | OpenFOAM: The Open Source CFD Toolbox
   \\    /   O peration     | Website:  https://openfoam.org
    \\  /    A nd           | Version:  6
     \\/     M anipulation  |
\*---------------------------------------------------------------------------*/
FoamFile
{
    version     2.0;
    format      ascii;
    class       volScalarField;
    location    "400";
    object      epsilon;
}
// * * * * * * * * * * * * * * * * * * * * * * * * * * * * * * * * * * * * * //

dimensions      [0 2 -3 0 0 0 0];

internalField   nonuniform List<scalar> 
459
(
0.000632407
0.000849544
0.00093325
0.00109267
0.00126649
0.00146692
0.00165734
0.00178737
0.00181747
0.00172756
0.00150732
0.00109486
0.000780561
0.000504254
0.000313824
5.46122e-05
8.81721e-05
0.000142782
0.000183852
0.000190905
0.000178248
0.000147111
0.000117816
9.49806e-05
7.76702e-05
6.44542e-05
5.42356e-05
4.61879e-05
3.97611e-05
3.44634e-05
2.98676e-05
2.55661e-05
2.16575e-05
1.60026e-05
0.00143736
0.00190708
0.000787515
0.000789087
0.000867629
0.0010058
0.00117093
0.00129735
0.00133262
0.00126102
0.00109628
0.000851484
0.000654055
0.000490988
0.000362236
0.000575422
0.000296919
5.16211e-05
8.45448e-05
0.000134888
0.000152764
0.000152198
0.000145348
0.000149213
0.00012093
9.42721e-05
7.34674e-05
5.78093e-05
4.60996e-05
3.72597e-05
3.05261e-05
2.54108e-05
2.21684e-05
2.06142e-05
3.0061e-05
2.44174e-05
0.00245672
0.00419388
0.00091688
0.000775456
0.000884912
0.00108808
0.00130763
0.00144725
0.00147268
0.00138792
0.00120705
0.000983252
0.000779329
0.000606043
0.000458857
0.000422368
0.000540754
0.000118492
0.000163341
0.000180497
0.000182711
0.000174077
0.000172346
0.000375204
0.000245647
0.000166006
0.000116416
8.46382e-05
6.36147e-05
4.92871e-05
3.94899e-05
3.31203e-05
2.48418e-05
2.07421e-05
4.29456e-05
3.15196e-05
0.0037794
0.00828275
0.00133955
0.00083373
0.000973928
0.00129793
0.00156917
0.00168826
0.00168239
0.00156639
0.00136412
0.00112014
0.000883246
0.000687733
0.000536016
0.000449424
0.00044867
0.000769465
0.000501065
0.000359444
0.000287777
0.000246477
0.000216902
0.000209863
0.000550869
0.000407515
0.000316493
0.000253518
0.000206446
0.000168271
0.000135492
0.000106242
7.89103e-05
4.25482e-05
2.62935e-05
6.17695e-05
3.82708e-05
0.0055288
0.0144724
0.00245736
0.00104904
0.00121455
0.00178495
0.00203072
0.00206978
0.00200089
0.0018353
0.00157878
0.00126488
0.00095918
0.000714166
0.000542768
0.000440076
0.000413541
0.000453555
0.00040678
0.000361694
0.000325563
0.000290246
0.000253022
0.00022018
0.000215249
0.00019711
0.000178024
0.000158661
0.000138753
0.000118385
9.82062e-05
7.91025e-05
6.15358e-05
4.25741e-05
2.92054e-05
4.87964e-05
3.8141e-05
6.26878e-05
0.000111727
0.000159075
0.00789557
0.0214753
0.00533637
0.00196151
0.00232679
0.00274831
0.00275797
0.00264026
0.0024672
0.00221212
0.00185646
0.00143316
0.0010293
0.000717082
0.000516825
0.000415784
0.000394168
0.000410672
0.000413111
0.00039896
0.000367921
0.000324283
0.000275186
0.000229271
0.000196625
0.000174812
0.000157714
0.000140838
0.000122865
0.000104281
8.603e-05
6.92449e-05
5.47685e-05
4.213e-05
3.42476e-05
4.04506e-05
4.09133e-05
4.9804e-05
0.000208033
0.00018126
0.0104756
0.0257569
0.0108377
0.00560226
0.00497181
0.00435854
0.00383752
0.00343683
0.0030897
0.00269308
0.00219179
0.00161568
0.00108721
0.00070303
0.000484218
0.000400387
0.000398497
0.000423766
0.00043357
0.000414669
0.000372868
0.000319322
0.00026415
0.000216035
0.000181698
0.000160903
0.000146589
0.000133623
0.000120168
0.000106779
9.36786e-05
8.14334e-05
7.06373e-05
6.15813e-05
5.86304e-05
6.47494e-05
8.09961e-05
0.00012805
0.000293791
0.000279339
0.0110062
0.0267169
0.0156478
0.0109598
0.00805141
0.00620309
0.0050778
0.00437621
0.00383568
0.00325103
0.00254175
0.00174368
0.0010635
0.000621776
0.000435895
0.00039242
0.000402029
0.000418918
0.000412799
0.000379869
0.000329802
0.000275162
0.000225733
0.000187364
0.000162141
0.000148054
0.000140625
0.000137002
0.00013683
0.000140221
0.000146589
0.000155618
0.000168745
0.000191217
0.000232667
0.000346997
0.000627156
0.00120185
0.00367898
0.00102126
0.0101748
0.0167122
0.0132949
0.0103368
0.0081183
0.00673349
0.00587848
0.00525926
0.00460345
0.00373543
0.0026868
0.00151244
0.000780469
0.000499767
0.000401581
0.000376517
0.000375267
0.000370212
0.000347566
0.000309357
0.000264512
0.000221375
0.00018533
0.000158969
0.000142331
0.000133632
0.000131185
0.000134818
0.000145773
0.000166161
0.000198805
0.000247474
0.000318798
0.000423185
0.000570531
0.000766309
0.000993251
0.00120118
0.00136644
0.000854091
0.00379716
0.00526203
0.00659355
0.00663017
0.00622237
0.0054303
0.00411061
0.00246133
0.00140347
0.000810088
0.000529374
0.000411389
0.000365209
0.000346716
0.000333743
0.000314504
0.000286043
0.000252469
0.000219642
0.000191474
0.00016933
0.000152882
0.000141083
0.0001331
0.000129038
0.000129902
0.000137259
0.000153223
0.000180673
0.000223626
0.00028752
0.000378618
0.000500206
0.000644107
0.000780894
0.000870383
0.000835598
0.000537453
0.00267406
0.00768697
0.00772314
0.00583592
0.00424476
0.00290338
0.00185043
0.00115464
0.000748048
0.000533761
0.000431795
0.000385656
0.000364779
0.000353893
0.000345396
0.000335739
0.000324165
0.000311673
0.000299478
0.000288247
0.000278069
0.000268645
0.000259514
0.000250307
0.000241047
0.000232493
0.00022637
0.000225384
0.000233098
0.000253798
0.000292233
0.000352354
0.0004339
0.000531717
0.000598778
0.00068131
0.000775716
0.000583958
0.00196525
0.00230667
0.00257228
0.00317164
0.00258801
0.00220546
0.00185238
0.00147922
0.00114473
0.000891975
0.000723298
0.0006209
0.000559565
0.000520028
0.000489937
0.000461326
0.000429621
0.000393771
0.000355964
0.000319739
0.000287867
0.000261394
0.000239981
0.000222719
0.000208792
0.00019783
0.000190006
0.000185936
0.000186518
0.000192803
0.000205987
0.000227541
0.000259423
0.000303872
0.000361567
0.000442857
0.000458725
0.000410068
0.000350274
0.00029702
)
;

boundaryField
{
    floor
    {
        Cmu             0.09;
        kappa           0.41;
        E               9.8;
        type            epsilonWallFunction;
        value           nonuniform List<scalar> 
29
(
0.000313824
5.46122e-05
8.81721e-05
0.000142782
0.000183852
0.000190905
0.000178248
0.000147111
0.000117816
9.49806e-05
7.76702e-05
6.44542e-05
5.42356e-05
4.61879e-05
3.97611e-05
3.44634e-05
2.98676e-05
2.55661e-05
2.16575e-05
1.60026e-05
1.60026e-05
2.44174e-05
3.15196e-05
3.82708e-05
0.000313824
5.46122e-05
5.16211e-05
0.000118492
0.000769465
)
;
    }
    ceiling
    {
        Cmu             0.09;
        kappa           0.41;
        E               9.8;
        type            epsilonWallFunction;
        value           nonuniform List<scalar> 
43
(
0.00196525
0.00230667
0.00257228
0.00317164
0.00258801
0.00220546
0.00185238
0.00147922
0.00114473
0.000891975
0.000723298
0.0006209
0.000559565
0.000520028
0.000489937
0.000461326
0.000429621
0.000393771
0.000355964
0.000319739
0.000287867
0.000261394
0.000239981
0.000222719
0.000208792
0.00019783
0.000190006
0.000185936
0.000186518
0.000192803
0.000205987
0.000227541
0.000259423
0.000303872
0.000361567
0.000442857
0.000458725
0.000410068
0.000350274
0.00029702
0.0101748
0.0167122
0.00267406
)
;
    }
    sWall
    {
        Cmu             0.09;
        kappa           0.41;
        E               9.8;
        type            epsilonWallFunction;
        value           uniform 0.00196525;
    }
    nWall
    {
        Cmu             0.09;
        kappa           0.41;
        E               9.8;
        type            epsilonWallFunction;
        value           nonuniform List<scalar> 6(0.000159075 0.00018126 0.000279339 0.000537453 0.000583958 0.00029702);
    }
    sideWalls
    {
        type            empty;
    }
    glass1
    {
        Cmu             0.09;
        kappa           0.41;
        E               9.8;
        type            epsilonWallFunction;
        value           nonuniform List<scalar> 9(0.000632407 0.00143736 0.00245672 0.0037794 0.0055288 0.00789557 0.0104756 0.0110062 0.0101748);
    }
    glass2
    {
        Cmu             0.09;
        kappa           0.41;
        E               9.8;
        type            epsilonWallFunction;
        value           nonuniform List<scalar> 2(0.00102126 0.000854091);
    }
    sun
    {
        Cmu             0.09;
        kappa           0.41;
        E               9.8;
        type            epsilonWallFunction;
        value           nonuniform List<scalar> 
14
(
0.000632407
0.000849544
0.00093325
0.00109267
0.00126649
0.00146692
0.00165734
0.00178737
0.00181747
0.00172756
0.00150732
0.00109486
0.000780561
0.000504254
)
;
    }
    heatsource1
    {
        Cmu             0.09;
        kappa           0.41;
        E               9.8;
        type            epsilonWallFunction;
        value           nonuniform List<scalar> 3(6.26878e-05 0.000111727 0.000159075);
    }
    heatsource2
    {
        Cmu             0.09;
        kappa           0.41;
        E               9.8;
        type            epsilonWallFunction;
        value           nonuniform List<scalar> 4(0.000575422 0.000296919 0.000296919 0.000540754);
    }
    Table_master
    {
        Cmu             0.09;
        kappa           0.41;
        E               9.8;
        type            epsilonWallFunction;
        value           nonuniform List<scalar> 9(0.000375204 0.000245647 0.000166006 0.000116416 8.46382e-05 6.36147e-05 4.92871e-05 3.94899e-05 3.31203e-05);
    }
    Table_slave
    {
        Cmu             0.09;
        kappa           0.41;
        E               9.8;
        type            epsilonWallFunction;
        value           nonuniform List<scalar> 9(0.000550869 0.000407515 0.000316493 0.000253518 0.000206446 0.000168271 0.000135492 0.000106242 7.89103e-05);
    }
    inlet
    {
        type            turbulentMixingLengthDissipationRateInlet;
        mixingLength    0.01;
        phi             phi;
        k               k;
        value           uniform 0.000101881;
    }
    outlet
    {
        type            zeroGradient;
    }
}


// ************************************************************************* //
