/*--------------------------------*- C++ -*----------------------------------*\
  =========                 |
  \\      /  F ield         | OpenFOAM: The Open Source CFD Toolbox
   \\    /   O peration     | Website:  https://openfoam.org
    \\  /    A nd           | Version:  6
     \\/     M anipulation  |
\*---------------------------------------------------------------------------*/
FoamFile
{
    version     2.0;
    format      ascii;
    class       surfaceScalarField;
    location    "100";
    object      phi;
}
// * * * * * * * * * * * * * * * * * * * * * * * * * * * * * * * * * * * * * //

dimensions      [1 0 -1 0 0 0 0];

internalField   nonuniform List<scalar> 
852
(
-0.00256592
0.00264063
-0.00261179
4.60518e-05
-0.0027021
9.05035e-05
-0.00288588
0.000183967
-0.00308345
0.000197767
-0.00325178
0.000168534
-0.00336462
0.000113046
-0.00340137
3.69588e-05
-0.00334309
-5.80749e-05
-0.00317108
-0.000171789
-0.00287167
-0.000299191
-0.00243869
-0.000432751
-0.00185731
-0.000581148
-0.00105975
-0.000797333
-0.00105524
-0.000831597
0.000839006
-0.000733324
-9.81769e-05
-0.00037884
-0.000354381
-0.000154427
-0.000224332
-0.000268593
0.00011416
-0.000531919
0.000263274
-0.000581307
4.93285e-05
-0.000334884
-0.000246471
-5.4965e-05
-0.000279969
0.000154561
-0.000209554
0.000323444
-0.000168891
0.000459772
-0.000136325
0.000546061
-8.62809e-05
0.000530827
1.525e-05
0.000474194
5.66428e-05
0.000553602
-7.94286e-05
0.000857685
-0.000304034
0.000929027
-7.12356e-05
0.000935946
-0.00184023
0.00466951
-0.00235172
0.000557734
-0.00265807
0.000397041
-0.00290748
0.000433582
-0.00313327
0.000423758
-0.00332023
0.000355705
-0.00345105
0.000244089
-0.00350993
9.6057e-05
-0.00348272
-8.50658e-05
-0.0033571
-0.000297172
-0.00312032
-0.000535743
-0.00275961
-0.000793228
-0.00226903
-0.00107149
-0.00169975
-0.00136638
-0.00115425
-0.0016005
0.000295708
-0.00144978
0.000295876
0.00102377
-0.000165944
0.000772909
0.000152816
0.000262793
0.000155875
6.18542e-05
-2.32659e-05
0.000170016
6.09218e-06
1.70503e-05
0.000416325
-0.000151129
0.00021752
-0.000161733
-0.000235848
-0.000112456
-0.000329251
-7.68932e-05
-0.000245097
-4.97277e-05
-0.000196004
-3.92041e-05
-0.000146768
-7.14251e-05
-5.39636e-05
-0.000154673
9.86361e-05
-0.000205045
0.000107172
3.6551e-05
-0.000320958
0.000334489
-0.000601875
0.000366474
-0.000103099
0.00132038
-0.00135052
0.0062966
-0.00205663
0.00126404
-0.00248283
0.000823446
-0.00278579
0.000736748
-0.00304087
0.000679041
-0.00325141
0.000566462
-0.00340938
0.000402285
-0.00350463
0.00019153
-0.00352838
-6.10792e-05
-0.00347626
-0.000349062
-0.00334873
-0.000663031
-0.00315152
-0.000990201
-0.00290112
-0.00132166
-0.00263402
-0.00163324
-0.00238415
-0.00185013
-0.00197672
-0.00185698
-0.00168062
-0.000933635
0.000789352
-0.00117738
0.000396756
-0.0011863
0.000164982
-0.00113337
-7.60205e-05
-0.000853603
-0.000273531
7.61731e-05
-0.000513335
0.000294043
5.8491e-05
-0.000270554
-0.000515387
-0.000711038
-0.000857381
-0.000910887
-0.000811803
-0.000704256
-0.000599884
-0.000425295
-0.00129811
9.64639e-05
-0.00159622
0.000195173
-0.000248728
-0.00099988
0.00764471
-0.00178277
0.00204713
-0.00223893
0.0012798
-0.0025656
0.00106363
-0.00282794
0.00094159
-0.0030397
0.000778444
-0.00320318
0.000565991
-0.00331484
0.00030341
-0.00336998
-5.7059e-06
-0.00337241
-0.000346391
-0.00334276
-0.000692443
-0.00330939
-0.00102334
-0.0033082
-0.00132261
-0.00337957
-0.00156163
-0.00353952
-0.00168995
-0.00376293
-0.00163334
-0.00427887
-0.00116448
-0.00371987
-0.000537885
-0.00299628
6.59508e-05
-0.00283472
0.000235372
-0.0027686
9.90227e-05
-0.00275457
-8.98896e-05
-0.00275577
-0.000272187
-0.0029047
-0.000364255
-0.00259257
-0.000312153
-0.00225656
-0.000336025
-0.00186214
-0.000394431
-0.00140372
-0.000458433
-0.000886278
-0.000517438
-0.0003267
-0.000559565
0.000237391
-0.000564059
0.00074351
-0.000506077
0.00115872
-0.00041516
0.00105134
-0.000317746
0.00110412
4.38461e-05
0.00093679
0.000362689
0.000714852
-0.000739561
0.00879392
-0.00155581
0.00286357
-0.00194934
0.00167354
-0.0022618
0.0013763
-0.00249846
0.00117846
-0.00267009
0.000950297
-0.00279006
0.000686186
-0.00286399
0.000377559
-0.00289209
2.26299e-05
-0.00288351
-0.000354744
-0.00287125
-0.000704467
-0.00289036
-0.001004
-0.00296647
-0.00124626
-0.00311036
-0.00141751
-0.00331401
-0.00148607
-0.00355569
-0.00139143
-0.00366388
-0.00105606
-0.00358721
-0.000614345
-0.00327397
-0.000247094
-0.00295654
-8.18713e-05
-0.00275176
-0.000105585
-0.00263455
-0.00020694
-0.00257926
-0.000327317
-0.00253189
-0.00041148
-0.00237897
-0.00046493
-0.00217256
-0.000542281
-0.0019266
-0.000640237
-0.00164482
-0.000740027
-0.00134009
-0.00082196
-0.00103086
-0.000868561
-0.000729205
-0.000865453
-0.000423839
-0.000811159
-0.000108127
-0.000730563
0.000212575
-0.000638111
0.000760297
-0.000503499
0.00145184
-0.000328421
0.00238609
-0.000218912
0.00207152
0.000314794
-6.92021e-05
0.00214085
-4.80605e-06
-0.000696788
0.00995471
-0.00148236
0.00364934
-0.00160861
0.00179999
-0.00184765
0.00161555
-0.0020513
0.00138233
-0.00215234
0.00105155
-0.00218278
0.000716846
-0.00216818
0.000363175
-0.00211544
-2.98938e-05
-0.00204621
-0.000423749
-0.00200658
-0.000743869
-0.00202735
-0.000982995
-0.00211961
-0.00115376
-0.00227692
-0.00125996
-0.0024781
-0.00128465
-0.00267783
-0.00119146
-0.00277046
-0.000963195
-0.00272077
-0.000663823
-0.00255604
-0.000411611
-0.00236562
-0.000272091
-0.00222434
-0.000246679
-0.00214158
-0.000289521
-0.00210679
-0.000361946
-0.00208343
-0.000434681
-0.0020399
-0.000508312
-0.0019812
-0.00060082
-0.00191501
-0.000706252
-0.00184869
-0.000806134
-0.00179171
-0.000878684
-0.00175133
-0.000908644
-0.00172367
-0.000892786
-0.00169015
-0.000844319
-0.00162688
-0.000793435
-0.00149079
-0.000773753
-0.00116579
-0.000828009
-0.000455393
-0.00103826
0.000707846
-0.00138152
0.00210057
-0.00107719
0.00348298
0.000758948
0.00354484
-0.000968655
0.0114373
-0.00122844
0.00390931
-0.0008287
0.00140045
-0.00100955
0.00179661
-0.00130255
0.00167554
-0.0013621
0.00111131
-0.00128011
0.00063507
-0.00113785
0.000221127
-0.000984027
-0.000183502
-0.00086033
-0.000547229
-0.000807279
-0.000796701
-0.000840548
-0.000949501
-0.00095576
-0.00103832
-0.00113433
-0.00108116
-0.00134421
-0.00107453
-0.00153829
-0.000997137
-0.00165825
-0.000842997
-0.00167451
-0.000647334
-0.00161318
-0.00047271
-0.00152425
-0.000360813
-0.00145288
-0.000317842
-0.00141758
-0.000324619
-0.00142023
-0.000359123
-0.00145034
-0.000404399
-0.00150138
-0.000457115
-0.00158073
-0.0005213
-0.00169813
-0.000588664
-0.00186338
-0.000640655
-0.00208408
-0.000657703
-0.00235936
-0.000633039
-0.00267574
-0.000576039
-0.0030091
-0.000510575
-0.00332815
-0.000473968
-0.00359529
-0.000506177
-0.00376128
-0.000661554
-0.00376895
-0.00103011
-0.00343949
-0.00171049
-0.0020813
-0.00243484
0.000257445
-0.00157904
0.00388135
0.00190438
0.010108
0.00242539
0.00338849
0.00202936
0.00179667
0.00127357
0.0025526
0.000664592
0.00228472
0.000427954
0.00134816
0.000426294
0.00063694
0.000549321
9.8309e-05
0.000695566
-0.000329539
0.000755994
-0.000607449
0.000725297
-0.000765792
0.00061945
-0.000843437
0.000450665
-0.00086931
0.000231985
-0.000862246
-1.23328e-05
-0.000829977
-0.000239423
-0.000769805
-0.000406658
-0.000675517
-0.000496421
-0.000557328
-0.000523054
-0.000445838
-0.000517061
-0.000366574
-0.00050782
-0.000326858
-0.000513522
-0.000318702
-0.000543298
-0.000329145
-0.000601374
-0.000346136
-0.000695272
-0.000363041
-0.000840361
-0.000376038
-0.00105384
-0.000374991
-0.00135266
-0.000341609
-0.00175253
-0.000257562
-0.00226093
-0.000124319
-0.0028728
3.61722e-05
-0.00358903
0.000205994
-0.00441613
0.000353474
-0.00532654
0.000404571
-0.00625916
0.000271403
-0.00720263
-8.6297e-05
-0.00833506
-0.000577724
-0.00953537
-0.00123419
-0.00852881
-0.00258525
-0.00425214
0.0107559
0.0141477
0.0107112
0.00523331
0.00760085
0.00566316
0.00595208
0.00393368
0.0049198
0.00238064
0.00423304
0.0013239
0.00371181
0.000619735
0.00325644
0.000126035
0.00286777
-0.000218573
0.00253682
-0.00043464
0.0022429
-0.000549301
0.00196563
-0.000591821
0.0016917
-0.0005881
0.00141976
-0.000557796
0.00116315
-0.000512958
0.000945045
-0.000457167
0.000782776
-0.00039481
0.000674862
-0.000337675
0.000605998
-0.000297463
0.00055751
-0.00027813
0.000514411
-0.00027537
0.000466401
-0.00028091
0.000406458
-0.000285979
0.0003274
-0.000283782
0.000220663
-0.00026911
8.12797e-05
-0.000235417
-8.52579e-05
-0.000174863
-0.000261525
-8.1051e-05
-0.000434996
4.94337e-05
-0.000614832
0.000216312
-0.000807499
0.00039898
-0.00100826
0.000554559
-0.00122822
0.00062485
-0.00152192
0.000565398
-0.0019856
0.000377648
-0.00263091
6.78383e-05
-0.00331532
-0.000549534
-0.00317484
-0.00272548
-0.00700671
0.000486277
0.00415508
0.00264271
0.00350691
0.0039527
0.00262389
0.00436012
0.00197341
0.00443039
0.00125382
0.00437982
0.000670504
0.00424186
0.0002642
0.00402732
-3.83852e-06
0.00376703
-0.000174139
0.00349165
-0.000273717
0.00321837
-0.000318322
0.00295437
-0.000323878
0.00270119
-0.000304383
0.00246028
-0.000271815
0.00223919
-0.00023583
0.00204917
-0.00020454
0.00189651
-0.000184757
0.00177877
-0.000179469
0.00168734
-0.000186448
0.00161207
-0.000199851
0.00154427
-0.000212862
0.00147782
-0.000219295
0.00140869
-0.000214422
0.00133493
-0.000195135
0.00125892
-0.000159193
0.00118808
-0.000103813
0.00113306
-2.58097e-05
0.00110879
7.39446e-05
0.00112763
0.000197721
0.00119199
0.000334903
0.00129273
0.00045412
0.00140788
0.000510005
0.00151132
0.00046226
0.00160308
0.000286173
0.00172775
-5.6543e-05
0.00191458
-0.000736078
0.00155485
-0.00236546
-0.00536536
-0.00114648
0.00530268
0.00117409
0.00118655
0.00262592
0.00117225
0.00355985
0.00103968
0.00410783
0.000706042
0.00437378
0.000404765
0.00444932
0.000188864
0.00439679
4.88996e-05
0.00426931
-4.6455e-05
0.00410026
-0.000104451
0.00391433
-0.000132169
0.00372839
-0.000137712
0.00355242
-0.000128178
0.00339128
-0.000110442
0.00324718
-9.14811e-05
0.00312083
-7.7938e-05
0.00301081
-7.44851e-05
0.00291338
-8.1773e-05
0.00282362
-9.64232e-05
0.00273725
-0.00011322
0.00265196
-0.000127317
0.00256807
-0.000135152
0.00248849
-0.000134581
0.00241839
-0.00012479
0.00236486
-0.00010542
0.00233526
-7.39776e-05
0.00233521
-2.55222e-05
0.00238282
2.65745e-05
0.00249019
9.05999e-05
0.00265735
0.000167997
0.0028729
0.000238837
0.00310728
0.000275911
0.00331406
0.00025577
0.00343616
0.000164369
0.00340441
-2.4494e-05
0.00309968
-0.000431051
0.00201775
-0.00128324
-0.00324479
-0.00475155
-0.00534852
-4.34411e-05
0.00114865
0.00232858
0.00337758
0.00409436
0.00451113
0.00471322
0.00477653
0.00474565
0.00465793
0.00454365
0.004425
0.00431703
0.00422793
0.00415885
0.00410429
0.00405403
0.00399719
0.00392631
0.00383915
0.00373841
0.00363033
0.00352332
0.0034266
0.00334969
0.00330456
0.00330807
0.00336367
0.00348311
0.00367971
0.00394696
0.00425122
0.00453546
0.00472868
0.00473381
0.00433334
0.00308167
)
;

boundaryField
{
    floor
    {
        type            calculated;
        value           nonuniform List<scalar> 
29
(
0
0
0
0
0
0
0
0
0
0
0
0
0
0
0
0
0
0
0
0
-6.77971e-06
-1.78122e-05
-2.69403e-05
-2.66064e-05
-4.28067e-06
-7.32013e-06
-1.87091e-05
-2.14619e-05
-2.09169e-05
)
;
    }
    ceiling
    {
        type            calculated;
        value           nonuniform List<scalar> 
43
(
-2.51668e-06
-2.49405e-06
-2.15164e-06
-5.33035e-06
-7.45575e-06
-9.10919e-06
-1.05154e-05
-1.17971e-05
-1.30124e-05
-1.41926e-05
-1.5353e-05
-1.65066e-05
-1.76635e-05
-1.88228e-05
-1.99738e-05
-2.10959e-05
-2.21586e-05
-2.31257e-05
-2.39669e-05
-2.46747e-05
-2.52713e-05
-2.57983e-05
-2.62976e-05
-2.67965e-05
-2.73006e-05
-2.77927e-05
-2.82332e-05
-2.8568e-05
-2.87561e-05
-2.875e-05
-2.85697e-05
-2.8332e-05
-2.81393e-05
-2.80687e-05
-2.81839e-05
-2.85637e-05
-2.93418e-05
-3.02951e-05
-3.12769e-05
-3.29996e-05
-1.75682e-06
-3.09636e-06
-8.75705e-07
)
;
    }
    sWall
    {
        type            calculated;
        value           uniform -0.000150824;
    }
    nWall
    {
        type            calculated;
        value           nonuniform List<scalar> 6(-6.43098e-05 -6.6192e-05 -7.86949e-05 -8.62182e-05 -0.000102542 -0.00012984);
    }
    sideWalls
    {
        type            empty;
        value           nonuniform 0();
    }
    glass1
    {
        type            calculated;
        value           nonuniform List<scalar> 9(-7.45273e-05 -0.000188463 -0.000276399 -0.000348054 -0.00040948 -0.000463841 -0.000513717 -0.000574934 -0.000646041);
    }
    glass2
    {
        type            calculated;
        value           nonuniform List<scalar> 2(-0.000394976 -0.000419991);
    }
    sun
    {
        type            calculated;
        value           uniform 0;
    }
    heatsource1
    {
        type            calculated;
        value           nonuniform List<scalar> 3(2.07381e-07 2.07628e-07 2.08489e-07);
    }
    heatsource2
    {
        type            calculated;
        value           nonuniform List<scalar> 4(5.19635e-08 5.21652e-08 0 0);
    }
    Table_master
    {
        type            calculated;
        value           nonuniform List<scalar> 9(-1.57103e-07 -1.57265e-07 -1.57321e-07 -1.5723e-07 -1.57097e-07 -1.56954e-07 -1.56825e-07 -1.56698e-07 -1.56547e-07);
    }
    Table_slave
    {
        type            calculated;
        value           nonuniform List<scalar> 9(1.55276e-07 1.55385e-07 1.55495e-07 1.55624e-07 1.55777e-07 1.5595e-07 1.56062e-07 1.56012e-07 1.55872e-07);
    }
    inlet
    {
        type            calculated;
        value           uniform 0.000592217;
    }
    outlet
    {
        type            calculated;
        value           nonuniform List<scalar> 2(0.00490514 0.000599716);
    }
}


// ************************************************************************* //
