// -*- C++ -*-
// File generated by PyFoam - sorry for the ugliness

FoamFile
{
 version 2.0;
 format ascii;
 class volScalarField;
 location "100";
 object T;
}

dimensions [ 0 0 0 1 0 0 0 ];

internalField nonuniform List<scalar> 459
(
  300.94
  300.525
  300.517
  300.528
  300.538
  300.546
  300.554
  300.56
  300.567
  300.571
  300.572
  300.569
  300.563
  300.554
  300.547
  300.069
  300.045
  300.041
  300.027
  299.978
  299.891
  299.821
  299.763
  299.745
  299.749
  299.755
  299.765
  299.784
  299.811
  299.861
  299.973
  300.022
  300.015
  300.02
  301.232
  300.612
  300.569
  300.585
  300.603
  300.621
  300.637
  300.65
  300.661
  300.668
  300.668
  300.658
  300.639
  300.609
  300.567
  300.518
  300.38
  300.103
  300.088
  300.075
  300.066
  300.026
  299.941
  299.759
  299.663
  299.634
  299.639
  299.656
  299.684
  299.724
  299.812
  299.956
  300.119
  300.078
  300.032
  300.02
  301.502
  300.722
  300.638
  300.658
  300.687
  300.716
  300.742
  300.764
  300.78
  300.791
  300.79
  300.775
  300.744
  300.696
  300.633
  300.562
  300.499
  300.223
  300.219
  300.242
  300.278
  300.289
  300.243
  299.801
  299.671
  299.612
  299.638
  299.697
  299.78
  299.876
  299.983
  300.121
  300.251
  300.122
  300.083
  300.074
  301.748
  300.842
  300.714
  300.734
  300.776
  300.819
  300.859
  300.893
  300.919
  300.937
  300.938
  300.919
  300.88
  300.82
  300.742
  300.649
  300.553
  300.481
  300.43
  300.472
  300.521
  300.558
  300.577
  300.586
  300.593
  300.589
  300.585
  300.581
  300.576
  300.571
  300.563
  300.553
  300.538
  300.493
  300.408
  300.334
  300.322
  301.973
  300.97
  300.796
  300.808
  300.862
  300.92
  300.977
  301.028
  301.071
  301.099
  301.107
  301.093
  301.056
  300.999
  300.927
  300.848
  300.773
  300.713
  300.675
  300.668
  300.682
  300.692
  300.693
  300.687
  300.677
  300.666
  300.654
  300.643
  300.634
  300.628
  300.624
  300.619
  300.61
  300.589
  300.55
  300.495
  300.452
  300.432
  300.408
  300.514
  302.167
  301.109
  300.902
  300.883
  300.941
  301.012
  301.084
  301.155
  301.217
  301.261
  301.281
  301.274
  301.243
  301.189
  301.119
  301.042
  300.967
  300.905
  300.861
  300.836
  300.823
  300.814
  300.802
  300.787
  300.768
  300.747
  300.725
  300.707
  300.694
  300.691
  300.694
  300.699
  300.705
  300.709
  300.714
  300.722
  300.729
  300.671
  300.531
  300.52
  302.327
  301.317
  301.111
  301.022
  301.037
  301.101
  301.18
  301.263
  301.347
  301.408
  301.441
  301.446
  301.426
  301.382
  301.318
  301.243
  301.167
  301.099
  301.045
  301.005
  300.977
  300.955
  300.934
  300.91
  300.882
  300.849
  300.815
  300.784
  300.764
  300.762
  300.775
  300.797
  300.822
  300.848
  300.875
  300.9
  300.915
  300.904
  300.809
  300.576
  302.591
  301.814
  301.627
  301.442
  301.316
  301.287
  301.325
  301.392
  301.478
  301.537
  301.572
  301.588
  301.585
  301.56
  301.512
  301.445
  301.373
  301.303
  301.241
  301.191
  301.151
  301.119
  301.089
  301.059
  301.024
  300.982
  300.933
  300.885
  300.849
  300.836
  300.848
  300.879
  300.917
  300.957
  300.994
  301.027
  301.055
  301.08
  301.101
  301.117
  302.957
  302.632
  302.503
  302.259
  302.011
  301.852
  301.766
  301.729
  301.709
  301.704
  301.71
  301.715
  301.714
  301.702
  301.674
  301.629
  301.572
  301.509
  301.447
  301.391
  301.343
  301.302
  301.266
  301.23
  301.192
  301.148
  301.095
  301.034
  300.975
  300.931
  300.908
  300.901
  300.91
  300.929
  300.954
  300.985
  301.024
  301.067
  301.121
  301.268
  303.257
  302.427
  302.184
  302.051
  301.972
  301.926
  301.901
  301.882
  301.868
  301.857
  301.844
  301.829
  301.807
  301.777
  301.738
  301.69
  301.637
  301.585
  301.537
  301.492
  301.451
  301.412
  301.371
  301.326
  301.275
  301.216
  301.152
  301.09
  301.036
  300.993
  300.966
  300.953
  300.95
  300.955
  300.962
  300.976
  301.001
  301.063
  303.016
  302.477
  302.28
  302.17
  302.103
  302.061
  302.034
  302.014
  301.996
  301.978
  301.96
  301.942
  301.921
  301.896
  301.867
  301.833
  301.795
  301.754
  301.711
  301.67
  301.629
  301.588
  301.547
  301.503
  301.456
  301.402
  301.341
  301.276
  301.209
  301.147
  301.094
  301.054
  301.025
  301.007
  300.996
  300.997
  301.013
  301.074
  302.981
  302.951
  302.962
  302.515
  302.361
  302.272
  302.217
  302.18
  302.152
  302.13
  302.11
  302.091
  302.071
  302.052
  302.031
  302.01
  301.988
  301.964
  301.938
  301.91
  301.88
  301.847
  301.813
  301.777
  301.739
  301.699
  301.656
  301.61
  301.56
  301.505
  301.443
  301.377
  301.312
  301.253
  301.203
  301.163
  301.133
  301.108
  301.088
  301.11
)
;

boundaryField
{
  floor
  {
    type wallHeatTransfer;
    Tinf uniform 305.2;
    alphaWall uniform 0.24;
    value nonuniform List<scalar> 29
(
  301.11
  301.031
  300.935
  300.919
  301.02
  301.288
  301.371
  301.378
  301.345
  301.365
  301.395
  301.399
  301.402
  301.414
  301.383
  301.205
  300.99
  300.858
  300.839
  300.911
  300.911
  300.8
  300.783
  300.821
  301.11
  301.031
  300.922
  300.786
  300.946
)
;
  }
  ceiling
  {
    type wallHeatTransfer;
    Tinf uniform 303.2;
    alphaWall uniform 0.24;
    value nonuniform List<scalar> 43
(
  302.991
  302.962
  302.971
  302.541
  302.399
  302.32
  302.272
  302.242
  302.221
  302.206
  302.192
  302.179
  302.166
  302.153
  302.139
  302.124
  302.108
  302.09
  302.068
  302.044
  302.017
  301.987
  301.955
  301.922
  301.887
  301.849
  301.809
  301.765
  301.716
  301.661
  301.598
  301.531
  301.464
  301.405
  301.355
  301.318
  301.292
  301.273
  301.258
  301.288
  302.967
  302.652
  303.021
)
;
  }
  sWall
  {
    type wallHeatTransfer;
    Tinf uniform 315.2;
    alphaWall uniform 0.36;
    value uniform 303.868;
  }
  nWall
  {
    type wallHeatTransfer;
    Tinf uniform 307.2;
    alphaWall uniform 0.36;
    value nonuniform List<scalar> 6
(
  301.455
  301.318
  301.379
  301.671
  301.726
  301.86
)
;
  }
  sideWalls
  {
    type empty;
  }
  glass1
  {
    type wallHeatTransfer;
    Tinf uniform 315.2;
    alphaWall uniform 4.3;
    value nonuniform List<scalar> 9
(
  311.469
  310.072
  309.272
  308.737
  308.373
  308.106
  307.904
  308.012
  308.32
)
;
  }
  glass2
  {
    type wallHeatTransfer;
    Tinf uniform 307.2;
    alphaWall uniform 4.3;
    value nonuniform List<scalar> 2
(
  304.726
  304.646
)
;
  }
  sun
  {
    type wallHeatTransfer;
    Tinf uniform 305.2;
    alphaWall uniform 0.24;
    value nonuniform List<scalar> 14
(
  301.506
  301.137
  301.198
  301.193
  301.184
  301.174
  301.165
  301.156
  301.147
  301.138
  301.129
  301.12
  301.113
  301.107
)
;
  }
  heatsource1
  {
    type fixedGradient;
    gradient uniform 0;
  }
  heatsource2
  {
    type fixedGradient;
    gradient uniform 0;
  }
  Table_master
  {
    type zeroGradient;
  }
  Table_slave
  {
    type zeroGradient;
  }
  inlet
  {
    type fixedValue;
    value uniform 293.15;
  }
  outlet
  {
    type zeroGradient;
  }
} 	// ************************************************************************* //

