/*--------------------------------*- C++ -*----------------------------------*\
  =========                 |
  \\      /  F ield         | OpenFOAM: The Open Source CFD Toolbox
   \\    /   O peration     | Website:  https://openfoam.org
    \\  /    A nd           | Version:  6
     \\/     M anipulation  |
\*---------------------------------------------------------------------------*/
FoamFile
{
    version     2.0;
    format      ascii;
    class       volScalarField;
    location    "100";
    object      epsilon;
}
// * * * * * * * * * * * * * * * * * * * * * * * * * * * * * * * * * * * * * //

dimensions      [0 2 -3 0 0 0 0];

internalField   nonuniform List<scalar> 
459
(
0.000133895
0.000148423
0.000138
0.000151951
0.000164918
0.000176552
0.000187061
0.000196804
0.000206261
0.000216102
0.000224218
0.000229939
0.000233215
0.000235224
0.000236187
0.000137355
0.000116125
9.87887e-05
8.96681e-05
8.40191e-05
7.72136e-05
6.70292e-05
5.79494e-05
5.0035e-05
4.32144e-05
3.74111e-05
3.25128e-05
2.83924e-05
2.49184e-05
2.19532e-05
1.93526e-05
1.7013e-05
1.68251e-05
1.40175e-05
0.000515718
0.00120658
0.00013709
0.000114495
0.000112768
0.000113416
0.00011584
0.000120918
0.000129591
0.000142669
0.000157601
0.000172997
0.000187289
0.000200075
0.00021862
0.00027131
0.000220403
0.000235989
0.000129805
9.28711e-05
7.8977e-05
6.97227e-05
6.22028e-05
5.75899e-05
4.92204e-05
4.15549e-05
3.4885e-05
2.9284e-05
2.46877e-05
2.09564e-05
1.79528e-05
1.56581e-05
1.43062e-05
1.44736e-05
5.60121e-05
3.56464e-05
0.00122686
0.00401256
0.000242496
0.000117481
0.000110588
0.000113075
0.000118755
0.000127759
0.000140183
0.000155668
0.000172062
0.000186527
0.000197645
0.000207816
0.000226247
0.000271544
0.000395849
0.000371489
0.000138235
0.000107465
8.9811e-05
7.72595e-05
7.36119e-05
0.000150625
9.57322e-05
6.70416e-05
5.04481e-05
3.99731e-05
3.28805e-05
2.78329e-05
2.41654e-05
2.16592e-05
1.77069e-05
1.81738e-05
0.000131073
6.24672e-05
0.00243649
0.00946123
0.00054564
0.000134125
0.000116723
0.000122765
0.000132576
0.000145604
0.000162051
0.000181856
0.000201944
0.000216054
0.000221868
0.000222697
0.000227596
0.00025464
0.00034292
0.000520405
0.000260108
0.000164392
0.000124242
9.55112e-05
7.89566e-05
7.58737e-05
0.000165372
0.00013815
0.000129978
0.00012648
0.000122117
0.000113685
0.000100216
8.73865e-05
7.35047e-05
4.63172e-05
3.65747e-05
0.000290908
8.55043e-05
0.00425703
0.0176497
0.00129318
0.000170911
0.000121996
0.000130634
0.000146505
0.000167777
0.000195091
0.00022835
0.000260809
0.000279399
0.000281282
0.000270504
0.000252823
0.000235525
0.000228871
0.000231673
0.000201754
0.000180903
0.000138048
0.000106227
8.83924e-05
8.16321e-05
8.64649e-05
8.82593e-05
9.08305e-05
9.28731e-05
9.23855e-05
8.74604e-05
7.77597e-05
6.86238e-05
6.14531e-05
5.20144e-05
4.5724e-05
0.000173266
0.000115628
0.000143279
0.000232985
0.000332188
0.0067917
0.0261084
0.00306789
0.000302548
0.00014065
0.000139953
0.000158692
0.000188816
0.000233112
0.000296186
0.000350363
0.000373233
0.000369293
0.000348272
0.000316302
0.000275528
0.000229019
0.000195114
0.000195058
0.000205911
0.000164167
0.000126986
0.000107999
0.000100359
0.000101126
0.000105991
0.000112982
0.000120163
0.000124866
0.000123613
0.00011251
9.24939e-05
7.54791e-05
6.20707e-05
5.66162e-05
0.000105767
0.000114155
0.00012173
0.000444058
0.000399576
0.0102387
0.0304286
0.00737046
0.00124487
0.000386382
0.000243182
0.000227227
0.000251819
0.000309376
0.00043039
0.000495459
0.000503727
0.000479993
0.000441821
0.00039657
0.000343204
0.000276049
0.000210963
0.000199432
0.000240917
0.000207798
0.000163412
0.000140921
0.000132151
0.000131954
0.000137731
0.000147904
0.000161346
0.000175713
0.000187892
0.000190756
0.000167291
0.00013753
0.000115261
0.000109018
0.000138134
0.000194778
0.000344761
0.000781231
0.00070554
0.0113853
0.0395498
0.0181292
0.00860516
0.00371309
0.00164583
0.000944331
0.000735286
0.000722778
0.000766369
0.000739949
0.000679894
0.000610439
0.000542797
0.000480096
0.000420113
0.000348821
0.000254853
0.000211426
0.000281754
0.000274938
0.000223675
0.000196333
0.000185129
0.000182858
0.000187143
0.000197517
0.000214823
0.000240799
0.000277123
0.000322796
0.000371015
0.000376565
0.000408036
0.000512122
0.000844315
0.00171961
0.00345201
0.00964791
0.00203831
0.010813
0.0197737
0.01576
0.0114457
0.00776934
0.00503464
0.00329231
0.00228183
0.00171739
0.00133004
0.00106375
0.000876553
0.000740475
0.000637382
0.000556467
0.00049157
0.000428497
0.000325711
0.000237413
0.000325
0.000378323
0.000326596
0.000294088
0.000279706
0.000272481
0.000269759
0.000272247
0.000283087
0.000308331
0.000356432
0.000436327
0.000556294
0.000724503
0.000953422
0.00129852
0.00175025
0.00222749
0.0025862
0.00284554
0.00154108
0.00688029
0.0081377
0.00647609
0.00473253
0.00340848
0.00249774
0.00188998
0.00147429
0.00118531
0.000979143
0.000826841
0.000710787
0.000622343
0.000559389
0.000504938
0.000390692
0.000278269
0.000372832
0.000551403
0.00051487
0.000481411
0.000471744
0.000464025
0.000454372
0.000443315
0.000432712
0.00042794
0.000439211
0.000481058
0.000569801
0.000712024
0.000913878
0.0011743
0.00144769
0.00163123
0.00159841
0.00126547
0.000864826
0.00506258
0.00762235
0.00601468
0.00443138
0.00330784
0.00249916
0.00191726
0.00149606
0.00118461
0.000951773
0.000776896
0.000646386
0.00055198
0.00048844
0.000442294
0.000394635
0.000317331
0.000445531
0.000734676
0.000765765
0.000762075
0.000767243
0.000764364
0.000751323
0.000729634
0.000702809
0.000677779
0.000664483
0.000674608
0.000727897
0.000834108
0.000998336
0.00121383
0.00146879
0.00167849
0.00177033
0.00113174
0.000913649
0.00358599
0.00405841
0.0045249
0.00533125
0.00434116
0.00324672
0.00261404
0.0021276
0.00174446
0.00143976
0.00120393
0.00101828
0.000865377
0.000736662
0.000627992
0.000537555
0.000463435
0.000399934
0.000340639
0.000396644
0.000496168
0.000462379
0.000463185
0.00046805
0.000469601
0.00046918
0.00046944
0.000473606
0.000486055
0.00051295
0.000563722
0.000634634
0.000733302
0.000862464
0.00102429
0.00126668
0.00132942
0.00123024
0.000995446
0.000779995
)
;

boundaryField
{
    floor
    {
        Cmu             0.09;
        kappa           0.41;
        E               9.8;
        type            epsilonWallFunction;
        value           nonuniform List<scalar> 
29
(
0.000236187
0.000137355
0.000116125
9.87887e-05
8.96681e-05
8.40191e-05
7.72136e-05
6.70292e-05
5.79494e-05
5.0035e-05
4.32144e-05
3.74111e-05
3.25128e-05
2.83924e-05
2.49184e-05
2.19532e-05
1.93526e-05
1.7013e-05
1.68251e-05
1.40175e-05
1.40175e-05
3.56464e-05
6.24672e-05
8.55043e-05
0.000236187
0.000137355
0.000235989
0.000371489
0.000520405
)
;
    }
    ceiling
    {
        Cmu             0.09;
        kappa           0.41;
        E               9.8;
        type            epsilonWallFunction;
        value           nonuniform List<scalar> 
43
(
0.00358599
0.00405841
0.0045249
0.00533125
0.00434116
0.00324672
0.00261404
0.0021276
0.00174446
0.00143976
0.00120393
0.00101828
0.000865377
0.000736662
0.000627992
0.000537555
0.000463435
0.000399934
0.000340639
0.000396644
0.000496168
0.000462379
0.000463185
0.00046805
0.000469601
0.00046918
0.00046944
0.000473606
0.000486055
0.00051295
0.000563722
0.000634634
0.000733302
0.000862464
0.00102429
0.00126668
0.00132942
0.00123024
0.000995446
0.000779995
0.010813
0.0197737
0.00506258
)
;
    }
    sWall
    {
        Cmu             0.09;
        kappa           0.41;
        E               9.8;
        type            epsilonWallFunction;
        value           uniform 0.00358599;
    }
    nWall
    {
        Cmu             0.09;
        kappa           0.41;
        E               9.8;
        type            epsilonWallFunction;
        value           nonuniform List<scalar> 6(0.000332188 0.000399576 0.00070554 0.000864826 0.000913649 0.000779995);
    }
    sideWalls
    {
        type            empty;
    }
    glass1
    {
        Cmu             0.09;
        kappa           0.41;
        E               9.8;
        type            epsilonWallFunction;
        value           nonuniform List<scalar> 9(0.000133895 0.000515718 0.00122686 0.00243649 0.00425703 0.0067917 0.0102387 0.0113853 0.010813);
    }
    glass2
    {
        Cmu             0.09;
        kappa           0.41;
        E               9.8;
        type            epsilonWallFunction;
        value           nonuniform List<scalar> 2(0.00203831 0.00154108);
    }
    sun
    {
        Cmu             0.09;
        kappa           0.41;
        E               9.8;
        type            epsilonWallFunction;
        value           nonuniform List<scalar> 
14
(
0.000133895
0.000148423
0.000138
0.000151951
0.000164918
0.000176552
0.000187061
0.000196804
0.000206261
0.000216102
0.000224218
0.000229939
0.000233215
0.000235224
)
;
    }
    heatsource1
    {
        Cmu             0.09;
        kappa           0.41;
        E               9.8;
        type            epsilonWallFunction;
        value           nonuniform List<scalar> 3(0.000143279 0.000232985 0.000332188);
    }
    heatsource2
    {
        Cmu             0.09;
        kappa           0.41;
        E               9.8;
        type            epsilonWallFunction;
        value           nonuniform List<scalar> 4(0.00027131 0.000220403 0.000220403 0.000395849);
    }
    Table_master
    {
        Cmu             0.09;
        kappa           0.41;
        E               9.8;
        type            epsilonWallFunction;
        value           nonuniform List<scalar> 9(0.000150625 9.57322e-05 6.70416e-05 5.04481e-05 3.99731e-05 3.28805e-05 2.78329e-05 2.41654e-05 2.16592e-05);
    }
    Table_slave
    {
        Cmu             0.09;
        kappa           0.41;
        E               9.8;
        type            epsilonWallFunction;
        value           nonuniform List<scalar> 9(0.000165372 0.00013815 0.000129978 0.00012648 0.000122117 0.000113685 0.000100216 8.73865e-05 7.35047e-05);
    }
    inlet
    {
        type            turbulentMixingLengthDissipationRateInlet;
        mixingLength    0.01;
        phi             phi;
        k               k;
        value           uniform 0.000101881;
    }
    outlet
    {
        type            zeroGradient;
    }
}


// ************************************************************************* //
