/*--------------------------------*- C++ -*----------------------------------*\
  =========                 |
  \\      /  F ield         | OpenFOAM: The Open Source CFD Toolbox
   \\    /   O peration     | Website:  https://openfoam.org
    \\  /    A nd           | Version:  6
     \\/     M anipulation  |
\*---------------------------------------------------------------------------*/
FoamFile
{
    version     2.0;
    format      ascii;
    class       volScalarField;
    location    "1000";
    object      alphat;
}
// * * * * * * * * * * * * * * * * * * * * * * * * * * * * * * * * * * * * * //

dimensions      [1 -1 -1 0 0 0 0];

internalField   nonuniform List<scalar> 
459
(
0.00125042
0.00136533
0.00139167
0.00145846
0.0015206
0.00157952
0.00163855
0.00169309
0.00173005
0.00174182
0.00172152
0.00166442
0.00156753
0.0014322
0.00127441
0.000545305
0.000649313
0.000735488
0.00074771
0.000728744
0.000699396
0.000656404
0.000612134
0.000571799
0.00053609
0.000504569
0.000476664
0.000451909
0.000429785
0.000409491
0.000390027
0.000370051
0.000357884
0.000327813
0.00169946
0.0040629
0.00385322
0.00446946
0.00507549
0.00567884
0.00619146
0.00660125
0.00697759
0.00728511
0.00748273
0.00753135
0.00738551
0.00693832
0.00574743
0.00130182
0.000840909
0.000564759
0.00121174
0.00171725
0.00210867
0.00234612
0.00235811
0.00183952
0.00157239
0.00138503
0.00124296
0.00113122
0.00104095
0.000964308
0.000893098
0.000824048
0.000762549
0.00070877
0.000846755
0.000435222
0.00207159
0.00551021
0.00470623
0.00583334
0.00635124
0.00672968
0.00702743
0.00730174
0.00761667
0.00795362
0.00827143
0.00851419
0.00863139
0.008523
0.00794545
0.00605265
0.00136492
0.00104171
0.00155018
0.0020573
0.0025623
0.0029427
0.00290497
0.00093077
0.00082114
0.00073233
0.000660453
0.000601867
0.00055367
0.000513728
0.000480687
0.000454012
0.000492113
0.000569925
0.000963491
0.000509052
0.00242785
0.0070294
0.00465789
0.00608275
0.00645566
0.00655021
0.00664539
0.00681473
0.00708692
0.0074456
0.00784519
0.00820677
0.00847338
0.00855771
0.0084208
0.0077231
0.0050302
0.00158919
0.00191393
0.00247048
0.00309978
0.00367303
0.00407086
0.00386842
0.00105523
0.000964296
0.000899709
0.000850587
0.000808483
0.000768897
0.000730679
0.000690287
0.000643193
0.000601815
0.000610617
0.00112948
0.000566684
0.00279014
0.00900368
0.00503405
0.00582364
0.006324
0.00626885
0.0062408
0.00637783
0.00662964
0.00700011
0.00744001
0.00783326
0.00809591
0.00818423
0.00811015
0.00784343
0.0071715
0.00610905
0.00576512
0.00574145
0.00583445
0.00592917
0.00594919
0.00575231
0.00485687
0.00442217
0.0041684
0.00397138
0.00376472
0.00347399
0.0030751
0.00258985
0.00205411
0.00152937
0.0011317
0.0011386
0.000773777
0.000698887
0.000840442
0.000944567
0.00317446
0.0111678
0.0068898
0.00567582
0.00617555
0.00634102
0.00617847
0.00628501
0.00649038
0.00683187
0.00726697
0.00767626
0.00793077
0.00796608
0.00781969
0.00760423
0.00742751
0.00734067
0.00739526
0.00745573
0.00743832
0.00733284
0.00714394
0.00685745
0.00642633
0.00604006
0.0057015
0.00538242
0.00506447
0.00472967
0.00430974
0.00378561
0.00315875
0.00247176
0.00186475
0.00138199
0.00107208
0.000921956
0.00131294
0.000990014
0.00353354
0.0127191
0.00981895
0.00718724
0.00676108
0.00674946
0.0065437
0.00644367
0.00655884
0.00689467
0.00735687
0.00778531
0.00802068
0.0079925
0.00777044
0.00755752
0.00758819
0.00787911
0.00816759
0.0082514
0.00811742
0.00782895
0.007438
0.00697866
0.00648749
0.00603565
0.00563315
0.00526993
0.00494331
0.00465811
0.00441188
0.00408119
0.00360655
0.00301979
0.00245291
0.00193772
0.00158209
0.0014941
0.00154262
0.00114707
0.00360791
0.0114852
0.0099925
0.00889087
0.00817814
0.00736673
0.00674153
0.00651924
0.00669524
0.00715262
0.00770599
0.00814746
0.00830799
0.00815639
0.00784461
0.00767759
0.00790151
0.00830042
0.0084289
0.00825166
0.00785181
0.00731043
0.00669847
0.00608847
0.0055462
0.00510163
0.00474267
0.0044545
0.00423344
0.00408267
0.00400657
0.00397576
0.00376538
0.003404
0.00308989
0.00295297
0.00313133
0.00365951
0.00444258
0.00176213
0.00351653
0.00419917
0.00474215
0.00490511
0.00493112
0.00508295
0.00547057
0.00611592
0.00694445
0.00778399
0.00843749
0.00874267
0.00860422
0.00815152
0.00779062
0.00778977
0.00791694
0.00791988
0.00767059
0.00719326
0.00655617
0.00585293
0.00518003
0.00461303
0.0041776
0.00385401
0.00360858
0.00341573
0.00325819
0.00312219
0.00299627
0.00287764
0.00278447
0.00271743
0.00269519
0.00270576
0.00267741
0.00255039
0.00237074
0.00164027
0.00215149
0.00382198
0.00537683
0.00668252
0.00773783
0.00865982
0.00931476
0.00958747
0.00946539
0.00898806
0.0082016
0.00744495
0.00706514
0.00693273
0.00674761
0.00637852
0.00583695
0.00519628
0.00454683
0.00396352
0.00350167
0.00317187
0.00294779
0.00279676
0.00269435
0.00262574
0.00258255
0.0025606
0.0025615
0.00258739
0.00262296
0.00266391
0.00269992
0.00270062
0.00261956
0.00244736
0.00219345
0.00134435
0.00251731
0.00543482
0.00753323
0.00847005
0.00910358
0.00949543
0.0092518
0.00855011
0.00762065
0.00670456
0.00596801
0.00546163
0.00513087
0.0048055
0.00439467
0.00391403
0.00342103
0.00298101
0.00263866
0.00240306
0.00225305
0.0021613
0.00211341
0.00210154
0.0021177
0.00215662
0.00221372
0.00228319
0.00237123
0.00247487
0.00259082
0.00271056
0.00281501
0.00288615
0.00286057
0.00287471
0.00281186
0.00136635
0.00215243
0.00226652
0.00235045
0.00241861
0.00219009
0.00201435
0.00193273
0.00183694
0.00170412
0.00153874
0.00136063
0.00118966
0.00104184
0.000924981
0.000839327
0.000776941
0.000730181
0.000695135
0.000670819
0.000657116
0.000653306
0.000658011
0.000669797
0.000687738
0.000710884
0.000738457
0.000770523
0.000807418
0.000849856
0.000899215
0.000954772
0.00101661
0.0010854
0.00116177
0.00124529
0.00134842
0.00137496
0.00133696
0.00125254
0.00116009
)
;

boundaryField
{
    floor
    {
        type            compressible::alphatWallFunction;
        Prt             0.85;
        value           nonuniform List<scalar> 
29
(
0.000180377
7.61389e-05
9.17201e-05
0.000104399
0.000106182
0.000103414
9.91131e-05
9.27721e-05
8.61894e-05
8.0141e-05
7.4742e-05
6.99391e-05
6.56556e-05
6.18291e-05
5.83869e-05
5.52093e-05
5.21429e-05
4.89751e-05
4.70349e-05
4.22022e-05
4.22016e-05
5.92347e-05
7.06241e-05
7.937e-05
0.000180375
7.6138e-05
7.90782e-05
0.000148151
0.00022294
)
;
    }
    ceiling
    {
        type            compressible::alphatWallFunction;
        Prt             0.85;
        value           nonuniform List<scalar> 
43
(
0.000296789
0.000311489
0.000322256
0.000331087
0.000301821
0.000279075
0.000268441
0.000255891
0.000238362
0.000216317
0.000192276
0.00016886
0.000148304
0.000131813
0.00011957
0.00011056
0.00010375
9.86106e-05
9.50264e-05
9.29993e-05
9.24344e-05
9.31309e-05
9.48738e-05
9.75199e-05
0.000100922
0.000104956
0.000109626
0.00011497
0.000121081
0.000128144
0.000136039
0.000144763
0.000154398
0.000165011
0.000176525
0.000190624
0.000194233
0.000189064
0.000177522
0.000164782
0.000468596
0.000551606
0.000343409
)
;
    }
    sWall
    {
        type            compressible::alphatWallFunction;
        Prt             0.85;
        value           uniform 0.000295569;
    }
    nWall
    {
        type            compressible::alphatWallFunction;
        Prt             0.85;
        value           nonuniform List<scalar> 6(0.000134264 0.000140684 0.000162628 0.00018974 0.00019273 0.000164454);
    }
    sideWalls
    {
        type            empty;
    }
    glass1
    {
        type            compressible::alphatWallFunction;
        Prt             0.85;
        value           nonuniform List<scalar> 9(0.000172735 0.000232445 0.00028073 0.000326169 0.000371719 0.000419411 0.000463475 0.000472676 0.00046176);
    }
    glass2
    {
        type            compressible::alphatWallFunction;
        Prt             0.85;
        value           nonuniform List<scalar> 2(0.00024424 0.000228219);
    }
    sun
    {
        type            compressible::alphatWallFunction;
        Prt             0.85;
        value           nonuniform List<scalar> 
14
(
0.000177111
0.000192788
0.000196363
0.000205396
0.000213758
0.000221653
0.000229528
0.000236778
0.000241674
0.000243231
0.000240543
0.000232966
0.000220043
0.000201844
)
;
    }
    heatsource1
    {
        type            compressible::alphatWallFunction;
        Prt             0.85;
        value           nonuniform List<scalar> 3(9.91539e-05 0.000119723 0.000134587);
    }
    heatsource2
    {
        type            compressible::alphatWallFunction;
        Prt             0.85;
        value           nonuniform List<scalar> 4(0.00018426 0.000119792 0.000119791 0.000192859);
    }
    Table_master
    {
        type            compressible::alphatWallFunction;
        Prt             0.85;
        value           nonuniform List<scalar> 9(0.000132628 0.000116943 0.000104054 9.34843e-05 8.47653e-05 7.75139e-05 7.14451e-05 6.63798e-05 6.22586e-05);
    }
    Table_slave
    {
        type            compressible::alphatWallFunction;
        Prt             0.85;
        value           nonuniform List<scalar> 9(0.000150177 0.000137383 0.00012821 0.000121181 0.000115119 0.000109385 0.000103815 9.78895e-05 9.09277e-05);
    }
    inlet
    {
        type            fixedValue;
        value           uniform 1.94e-05;
    }
    outlet
    {
        type            zeroGradient;
    }
}


// ************************************************************************* //
