/*--------------------------------*- C++ -*----------------------------------*\
  =========                 |
  \\      /  F ield         | OpenFOAM: The Open Source CFD Toolbox
   \\    /   O peration     | Website:  https://openfoam.org
    \\  /    A nd           | Version:  6
     \\/     M anipulation  |
\*---------------------------------------------------------------------------*/
FoamFile
{
    version     2.0;
    format      ascii;
    class       volScalarField;
    location    "1000";
    object      epsilon;
}
// * * * * * * * * * * * * * * * * * * * * * * * * * * * * * * * * * * * * * //

dimensions      [0 2 -3 0 0 0 0];

internalField   nonuniform List<scalar> 
459
(
0.000442002
0.000573898
0.000607693
0.000699425
0.000792661
0.0008884
0.000991725
0.00109403
0.00116713
0.00119098
0.00114969
0.00103892
0.000867783
0.000661865
0.000466345
3.65677e-05
6.17245e-05
8.97011e-05
9.42525e-05
8.7265e-05
7.71445e-05
6.37771e-05
5.17256e-05
4.21611e-05
3.47462e-05
2.89716e-05
2.44265e-05
2.08157e-05
1.79063e-05
1.54881e-05
1.33834e-05
1.14309e-05
1.03406e-05
7.94833e-06
0.00111169
0.00161356
0.000538575
0.00052173
0.000546396
0.000589865
0.000656744
0.000742365
0.000820716
0.000864721
0.000855078
0.000788929
0.000676609
0.000541444
0.000431407
0.000496997
0.000133957
4.06254e-05
9.40644e-05
0.000106882
0.000101406
8.94609e-05
7.71868e-05
7.15774e-05
5.79323e-05
4.56514e-05
3.59578e-05
2.85311e-05
2.28696e-05
1.8548e-05
1.52584e-05
1.28359e-05
1.13313e-05
1.06626e-05
2.72963e-05
1.85989e-05
0.0020174
0.00393848
0.000660521
0.000496076
0.000520255
0.000587248
0.000688421
0.000812805
0.000921072
0.000979178
0.000972037
0.000904434
0.000788665
0.000651597
0.000530481
0.000469605
0.00057289
0.000254844
0.000205823
0.000167012
0.000136111
0.000111478
9.68533e-05
0.00018185
0.000124863
8.8572e-05
6.49674e-05
4.91662e-05
3.82749e-05
3.05745e-05
2.50462e-05
2.11037e-05
1.61005e-05
1.35696e-05
5.23088e-05
2.97606e-05
0.00325373
0.0081571
0.00103574
0.000500674
0.000509132
0.000604784
0.000760052
0.000943198
0.00107636
0.0011327
0.00111151
0.00102701
0.000888077
0.000734486
0.000601891
0.000517418
0.000500594
0.000904451
0.000528392
0.000328088
0.000225834
0.00016702
0.000130126
0.000113387
0.000265118
0.000202334
0.000164355
0.000138889
0.000119276
0.000102605
8.80567e-05
7.42481e-05
6.00655e-05
3.54423e-05
2.29579e-05
8.92655e-05
4.10592e-05
0.00494778
0.0145499
0.00203277
0.000586233
0.000517418
0.00064958
0.000935842
0.00119565
0.00132788
0.00135572
0.00129966
0.00117761
0.00100503
0.000811233
0.000629277
0.000484883
0.000390384
0.000354001
0.000294006
0.000238622
0.000193541
0.000157512
0.000128986
0.000108896
0.000105395
9.83874e-05
9.15275e-05
8.46878e-05
7.73267e-05
6.93198e-05
6.13345e-05
5.37604e-05
4.67823e-05
3.72611e-05
2.84801e-05
6.31134e-05
4.78147e-05
7.70879e-05
0.000134118
0.00019041
0.00729934
0.021644
0.00456506
0.00108916
0.000731873
0.000887649
0.00143727
0.00167164
0.00172535
0.00168086
0.00156818
0.00139231
0.00116286
0.000908508
0.000668663
0.000478009
0.000352144
0.000284766
0.000244547
0.000211024
0.000178832
0.000149578
0.00012509
0.000107186
9.78505e-05
9.37355e-05
9.1433e-05
8.87794e-05
8.45073e-05
7.76412e-05
6.80065e-05
5.79662e-05
4.88108e-05
4.05768e-05
3.52186e-05
4.71987e-05
4.96e-05
6.01137e-05
0.00024812
0.000219165
0.0100826
0.0259127
0.00949746
0.00356462
0.00235546
0.00243642
0.00256278
0.00249032
0.0023343
0.00214903
0.0019332
0.00166877
0.001355
0.00102185
0.000715349
0.000480397
0.000333326
0.000257938
0.00021861
0.000188733
0.000160494
0.000135538
0.000116139
0.000103766
9.89297e-05
9.94919e-05
0.000102295
0.000105444
0.000107661
0.000107173
0.000100547
8.91895e-05
7.79761e-05
6.85482e-05
6.51434e-05
7.38571e-05
9.56579e-05
0.000154931
0.000350938
0.000340861
0.0107567
0.0287432
0.0156736
0.0100458
0.00723444
0.00558093
0.00442783
0.00365887
0.00313691
0.00274322
0.00238076
0.0019873
0.00155206
0.00111374
0.000724912
0.000447838
0.000291107
0.000217825
0.000182269
0.000155923
0.000133373
0.000115961
0.000104812
0.000100192
0.000101581
0.00010757
0.000116774
0.000128735
0.000143535
0.000161067
0.000180235
0.00019338
0.000204813
0.000229154
0.000279107
0.000426105
0.00079549
0.00149797
0.00425318
0.00123776
0.00999125
0.0169639
0.0135961
0.0102814
0.00786559
0.00622725
0.00512422
0.00437265
0.00382545
0.00334712
0.0028388
0.0022586
0.00163824
0.00106338
0.000577982
0.000318519
0.000211183
0.000163232
0.000136934
0.000118122
0.00010397
9.49447e-05
9.12322e-05
9.25713e-05
9.8433e-05
0.000108309
0.000122175
0.000140772
0.000165575
0.000198767
0.000243289
0.000303311
0.000385646
0.000507838
0.000685814
0.000923638
0.00119067
0.00141852
0.00159593
0.000999857
0.0049053
0.00660244
0.00675552
0.00628088
0.00562075
0.00498499
0.00432468
0.00357811
0.00274727
0.00183487
0.000992531
0.000527511
0.000286452
0.000178715
0.000129482
0.000104254
8.90148e-05
7.89661e-05
7.2876e-05
7.02615e-05
7.08981e-05
7.45176e-05
8.09078e-05
9.01123e-05
0.000102553
0.000119103
0.00014118
0.000170939
0.000211767
0.000268889
0.000347894
0.000455971
0.000595965
0.000753625
0.000886092
0.000939223
0.000871789
0.000550424
0.00340147
0.00677201
0.00675207
0.00542261
0.00454802
0.00378877
0.0028774
0.00196742
0.00123157
0.00071417
0.000402607
0.000230553
0.000143771
0.000102338
8.14449e-05
6.98953e-05
6.3166e-05
5.9608e-05
5.85905e-05
5.97483e-05
6.28019e-05
6.76395e-05
7.43879e-05
8.33477e-05
9.50298e-05
0.00011028
0.000130425
0.00015751
0.000194428
0.000244983
0.000314298
0.000407281
0.00052396
0.00065633
0.000750414
0.000842456
0.000785237
0.000577827
0.00217237
0.00253466
0.00282665
0.00313552
0.0023485
0.00183524
0.00162495
0.00139749
0.00111706
0.000823064
0.000569398
0.000380754
0.000255807
0.000179057
0.000133798
0.000106135
8.81076e-05
7.60228e-05
6.83216e-05
6.42196e-05
6.31085e-05
6.44815e-05
6.80086e-05
7.36211e-05
8.13076e-05
9.11408e-05
0.000103537
0.000119135
0.000138926
0.000164568
0.000196996
0.000237807
0.000289433
0.00035494
0.000437142
0.000555048
0.000588521
0.000541094
0.000444939
0.000353651
)
;

boundaryField
{
    floor
    {
        Cmu             0.09;
        kappa           0.41;
        E               9.8;
        type            epsilonWallFunction;
        value           nonuniform List<scalar> 
29
(
0.000466345
3.65677e-05
6.17245e-05
8.97011e-05
9.42525e-05
8.7265e-05
7.71445e-05
6.37771e-05
5.17256e-05
4.21611e-05
3.47462e-05
2.89716e-05
2.44265e-05
2.08157e-05
1.79063e-05
1.54881e-05
1.33834e-05
1.14309e-05
1.03406e-05
7.94833e-06
7.94833e-06
1.85989e-05
2.97606e-05
4.10592e-05
0.000466345
3.65677e-05
4.06254e-05
0.000254844
0.000904451
)
;
    }
    ceiling
    {
        Cmu             0.09;
        kappa           0.41;
        E               9.8;
        type            epsilonWallFunction;
        value           nonuniform List<scalar> 
43
(
0.00217237
0.00253466
0.00282665
0.00313552
0.0023485
0.00183524
0.00162495
0.00139749
0.00111706
0.000823064
0.000569398
0.000380754
0.000255807
0.000179057
0.000133798
0.000106135
8.81076e-05
7.60228e-05
6.83216e-05
6.42196e-05
6.31085e-05
6.44815e-05
6.80086e-05
7.36211e-05
8.13076e-05
9.11408e-05
0.000103537
0.000119135
0.000138926
0.000164568
0.000196996
0.000237807
0.000289433
0.00035494
0.000437142
0.000555048
0.000588521
0.000541094
0.000444939
0.000353651
0.00999125
0.0169639
0.00340147
)
;
    }
    sWall
    {
        Cmu             0.09;
        kappa           0.41;
        E               9.8;
        type            epsilonWallFunction;
        value           uniform 0.00217237;
    }
    nWall
    {
        Cmu             0.09;
        kappa           0.41;
        E               9.8;
        type            epsilonWallFunction;
        value           nonuniform List<scalar> 6(0.00019041 0.000219165 0.000340861 0.000550424 0.000577827 0.000353651);
    }
    sideWalls
    {
        type            empty;
    }
    glass1
    {
        Cmu             0.09;
        kappa           0.41;
        E               9.8;
        type            epsilonWallFunction;
        value           nonuniform List<scalar> 9(0.000442002 0.00111169 0.0020174 0.00325373 0.00494778 0.00729934 0.0100826 0.0107567 0.00999125);
    }
    glass2
    {
        Cmu             0.09;
        kappa           0.41;
        E               9.8;
        type            epsilonWallFunction;
        value           nonuniform List<scalar> 2(0.00123776 0.000999857);
    }
    sun
    {
        Cmu             0.09;
        kappa           0.41;
        E               9.8;
        type            epsilonWallFunction;
        value           nonuniform List<scalar> 
14
(
0.000442002
0.000573898
0.000607693
0.000699425
0.000792661
0.0008884
0.000991725
0.00109403
0.00116713
0.00119098
0.00114969
0.00103892
0.000867783
0.000661865
)
;
    }
    heatsource1
    {
        Cmu             0.09;
        kappa           0.41;
        E               9.8;
        type            epsilonWallFunction;
        value           nonuniform List<scalar> 3(7.70879e-05 0.000134118 0.00019041);
    }
    heatsource2
    {
        Cmu             0.09;
        kappa           0.41;
        E               9.8;
        type            epsilonWallFunction;
        value           nonuniform List<scalar> 4(0.000496997 0.000133957 0.000133957 0.00057289);
    }
    Table_master
    {
        Cmu             0.09;
        kappa           0.41;
        E               9.8;
        type            epsilonWallFunction;
        value           nonuniform List<scalar> 9(0.00018185 0.000124863 8.8572e-05 6.49674e-05 4.91662e-05 3.82749e-05 3.05745e-05 2.50462e-05 2.11037e-05);
    }
    Table_slave
    {
        Cmu             0.09;
        kappa           0.41;
        E               9.8;
        type            epsilonWallFunction;
        value           nonuniform List<scalar> 9(0.000265118 0.000202334 0.000164355 0.000138889 0.000119276 0.000102605 8.80567e-05 7.42481e-05 6.00655e-05);
    }
    inlet
    {
        type            turbulentMixingLengthDissipationRateInlet;
        mixingLength    0.01;
        phi             phi;
        k               k;
        value           uniform 0.000101881;
    }
    outlet
    {
        type            zeroGradient;
    }
}


// ************************************************************************* //
