// -*- C++ -*-
// File generated by PyFoam - sorry for the ugliness

FoamFile
{
 version 2.0;
 format ascii;
 class volVectorField;
 location "1100";
 object U;
}

dimensions [ 0 1 -1 0 0 0 0 ];

internalField nonuniform List<vector> 459
(
  (0.0348567 0.0858901 0)
  (-0.167111 0.0253225 0)
  (-0.19156 0.017728 0)
  (-0.22242 0.0120442 0)
  (-0.244698 0.00574486 0)
  (-0.25726 -0.000970876 0)
  (-0.258389 -0.00816234 0)
  (-0.246865 -0.0158454 0)
  (-0.223312 -0.0232833 0)
  (-0.189714 -0.0291325 0)
  (-0.149867 -0.0322958 0)
  (-0.108209 -0.0322391 0)
  (-0.0689931 -0.0291155 0)
  (-0.0373944 -0.0240776 0)
  (-0.0276705 -0.0190526 0)
  (-0.0057445 0.00894428 0)
  (-0.0295875 -0.0168074 0)
  (-0.00796543 -0.0266188 0)
  (0.0158242 -0.0205277 0)
  (0.0312562 -0.0141008 0)
  (0.0439854 -0.00914756 0)
  (0.0520245 -0.0053045 0)
  (0.0561938 -0.00328437 0)
  (0.0580458 -0.00247591 0)
  (0.0589351 -0.00212971 0)
  (0.0594708 -0.00191626 0)
  (0.059756 -0.00174477 0)
  (0.0597357 -0.0015364 0)
  (0.0592276 -0.00112911 0)
  (0.0577173 -0.000161172 0)
  (0.0540948 0.00186528 0)
  (0.0471669 0.00394675 0)
  (0.0413957 0.00547372 0)
  (-0.0147566 0.0202389 0)
  (0.209865 0.176082 0)
  (-0.156591 0.0671985 0)
  (-0.154768 0.0528373 0)
  (-0.186873 0.0410073 0)
  (-0.209071 0.027526 0)
  (-0.221987 0.0122877 0)
  (-0.223856 -0.00500501 0)
  (-0.213317 -0.0236979 0)
  (-0.191602 -0.0411258 0)
  (-0.161109 -0.054176 0)
  (-0.125744 -0.0607656 0)
  (-0.0895915 -0.0603018 0)
  (-0.0561881 -0.0534126 0)
  (-0.0288946 -0.0417678 0)
  (-0.011705 -0.0280562 0)
  (0.00191966 -0.0102582 0)
  (0.000850569 0.0153563 0)
  (0.0635883 0.0365463 0)
  (0.0239439 -0.0177516 0)
  (0.0326026 -0.0312989 0)
  (0.0437918 -0.0279484 0)
  (0.0527297 -0.0201716 0)
  (0.0593265 -0.0126675 0)
  (0.0622122 -0.00537766 0)
  (0.0627771 -0.00118335 0)
  (0.0627272 0.000564377 0)
  (0.0628329 0.00133358 0)
  (0.0630362 0.00180319 0)
  (0.0631851 0.00218795 0)
  (0.0632349 0.00264696 0)
  (0.0631465 0.00349381 0)
  (0.0624185 0.00558313 0)
  (0.0587444 0.0114334 0)
  (0.0494205 0.0161472 0)
  (0.045818 0.0189904 0)
  (-0.0522144 0.0439568 0)
  (0.370348 0.263606 0)
  (-0.173737 0.107241 0)
  (-0.116459 0.0856531 0)
  (-0.147901 0.0645035 0)
  (-0.167797 0.0422742 0)
  (-0.179939 0.0175007 0)
  (-0.181533 -0.0106326 0)
  (-0.170364 -0.0405702 0)
  (-0.148959 -0.0675512 0)
  (-0.120618 -0.086535 0)
  (-0.0894204 -0.0949274 0)
  (-0.0588555 -0.0927182 0)
  (-0.0311661 -0.0813782 0)
  (-0.00835137 -0.0632159 0)
  (0.00857685 -0.0397593 0)
  (0.0196468 -0.0136687 0)
  (0.0240444 0.0227979 0)
  (0.111703 -0.0261733 0)
  (0.074139 -0.037107 0)
  (0.0682695 -0.0379415 0)
  (0.0696977 -0.0327139 0)
  (0.0710317 -0.0249024 0)
  (0.072376 -0.0180111 0)
  (0.0712123 -0.0143924 0)
  (0.0666148 -0.0101463 0)
  (0.0632767 -0.00782882 0)
  (0.0617972 -0.00650328 0)
  (0.0611959 -0.00565214 0)
  (0.0609121 -0.00506299 0)
  (0.0609303 -0.0045429 0)
  (0.0616814 -0.00373402 0)
  (0.0642588 -0.000698836 0)
  (0.06216 0.0160669 0)
  (0.0489218 0.0274077 0)
  (0.0524395 0.0345403 0)
  (-0.0853546 0.0683951 0)
  (0.515119 0.33408 0)
  (-0.208647 0.142877 0)
  (-0.0756536 0.113726 0)
  (-0.1059 0.0846504 0)
  (-0.120478 0.0561094 0)
  (-0.129539 0.0235443 0)
  (-0.128206 -0.0153353 0)
  (-0.114032 -0.0571104 0)
  (-0.0923322 -0.0928644 0)
  (-0.067135 -0.116118 0)
  (-0.0419021 -0.124815 0)
  (-0.0190088 -0.120317 0)
  (0.00134822 -0.104815 0)
  (0.0181263 -0.0818651 0)
  (0.03235 -0.0550768 0)
  (0.0475019 -0.0262906 0)
  (0.068818 0.00523018 0)
  (0.0990555 0.0178641 0)
  (0.103928 -0.0218682 0)
  (0.0901781 -0.0328484 0)
  (0.0813401 -0.0323088 0)
  (0.0764093 -0.0283951 0)
  (0.0727141 -0.0225065 0)
  (0.0702688 -0.01493 0)
  (0.0716391 -0.00911953 0)
  (0.0767686 -0.00690233 0)
  (0.081197 -0.00567474 0)
  (0.0842322 -0.00479201 0)
  (0.0861718 -0.0037777 0)
  (0.0865461 -0.00233589 0)
  (0.0841488 -0.000202058 0)
  (0.0777059 0.00292373 0)
  (0.0646857 0.00758266 0)
  (0.0520886 0.0268665 0)
  (0.0394854 0.0427671 0)
  (0.0566395 0.0547752 0)
  (-0.121697 0.0899294 0)
  (0.640434 0.388726 0)
  (-0.251239 0.172062 0)
  (-0.0349118 0.130065 0)
  (-0.0617487 0.0963042 0)
  (-0.0683839 0.0642291 0)
  (-0.0715384 0.0264298 0)
  (-0.0614398 -0.0223119 0)
  (-0.0422063 -0.0749263 0)
  (-0.0216514 -0.115823 0)
  (-0.00244201 -0.139568 0)
  (0.0137941 -0.14563 0)
  (0.0261597 -0.13746 0)
  (0.0358573 -0.119303 0)
  (0.0436914 -0.0947466 0)
  (0.0509388 -0.067339 0)
  (0.0595199 -0.0408689 0)
  (0.0721058 -0.0215276 0)
  (0.0825487 -0.020712 0)
  (0.0835653 -0.0285354 0)
  (0.0772368 -0.0294016 0)
  (0.0691131 -0.0265959 0)
  (0.0624361 -0.0228766 0)
  (0.0574036 -0.018443 0)
  (0.0543826 -0.0131771 0)
  (0.0542586 -0.00752489 0)
  (0.0567284 -0.00481494 0)
  (0.0596142 -0.00386084 0)
  (0.0624054 -0.00309097 0)
  (0.0649819 -0.00145863 0)
  (0.0669766 0.00166987 0)
  (0.0670871 0.00637425 0)
  (0.0646819 0.0127751 0)
  (0.0591793 0.0214658 0)
  (0.0521186 0.0366533 0)
  (0.0414874 0.0543113 0)
  (0.0647399 0.0737192 0)
  (-0.0255293 0.101777 0)
  (0.0461364 0.0295454 0)
  (-0.0625814 -0.0344217 0)
  (-0.273749 -0.057274 0)
  (0.731608 0.434314 0)
  (-0.292811 0.191764 0)
  (-0.00360342 0.126834 0)
  (-0.0165189 0.0977591 0)
  (-0.0126529 0.0668238 0)
  (-0.00720466 0.0236349 0)
  (0.0217149 -0.039585 0)
  (0.0433456 -0.0952848 0)
  (0.0587194 -0.13315 0)
  (0.0680167 -0.152081 0)
  (0.0718926 -0.154139 0)
  (0.0717378 -0.142963 0)
  (0.0690652 -0.122648 0)
  (0.0653772 -0.0972044 0)
  (0.0621381 -0.0703029 0)
  (0.0607224 -0.0456038 0)
  (0.061956 -0.0273163 0)
  (0.0627447 -0.0201296 0)
  (0.0594845 -0.019867 0)
  (0.0525536 -0.0201093 0)
  (0.0447101 -0.0188415 0)
  (0.0381407 -0.0167501 0)
  (0.0333786 -0.014173 0)
  (0.030728 -0.0111694 0)
  (0.030459 -0.00836741 0)
  (0.0322248 -0.00735215 0)
  (0.0349784 -0.00730979 0)
  (0.038264 -0.00697626 0)
  (0.0418857 -0.00531184 0)
  (0.0455364 -0.00139663 0)
  (0.0489226 0.00511874 0)
  (0.0506865 0.0137847 0)
  (0.0511265 0.0246633 0)
  (0.0516432 0.0391323 0)
  (0.0502039 0.056568 0)
  (0.0733605 0.0788317 0)
  (0.0515137 0.0956129 0)
  (0.093551 0.0664023 0)
  (0.11663 0.0440588 0)
  (-0.129572 -0.00717381 0)
  (0.783682 0.475751 0)
  (-0.313746 0.17733 0)
  (0.0233773 0.0775061 0)
  (0.0423303 0.0741844 0)
  (0.0572619 0.0523108 0)
  (0.0840731 0.00058563 0)
  (0.118004 -0.0637798 0)
  (0.136976 -0.112518 0)
  (0.143113 -0.141725 0)
  (0.139145 -0.152948 0)
  (0.127812 -0.149246 0)
  (0.112019 -0.134428 0)
  (0.0943293 -0.112418 0)
  (0.0769752 -0.0871345 0)
  (0.0616109 -0.0617702 0)
  (0.0494543 -0.0394399 0)
  (0.0409325 -0.0232135 0)
  (0.0345188 -0.015124 0)
  (0.028066 -0.0129446 0)
  (0.0210539 -0.0127418 0)
  (0.0143984 -0.0123498 0)
  (0.0090213 -0.011654 0)
  (0.00524483 -0.0108009 0)
  (0.00326112 -0.00986731 0)
  (0.00316427 -0.00927676 0)
  (0.00459746 -0.00964592 0)
  (0.00691861 -0.01044 0)
  (0.00985525 -0.0107661 0)
  (0.0134425 -0.0097151 0)
  (0.017807 -0.00623772 0)
  (0.0238834 0.000721979 0)
  (0.030183 0.0102926 0)
  (0.0360321 0.021362 0)
  (0.0433534 0.0342995 0)
  (0.0511668 0.048687 0)
  (0.0736425 0.0666581 0)
  (0.0867235 0.0732674 0)
  (0.119494 0.0501748 0)
  (0.159212 0.0430044 0)
  (-0.0334704 0.0939981 0)
  (0.888581 0.478528 0)
  (-0.0708357 0.157042 0)
  (0.106138 0.00449893 0)
  (0.16916 -0.0159669 0)
  (0.181985 -0.0352571 0)
  (0.217483 -0.0696765 0)
  (0.23906 -0.102602 0)
  (0.241253 -0.125967 0)
  (0.226977 -0.137299 0)
  (0.201234 -0.136898 0)
  (0.168902 -0.126605 0)
  (0.134189 -0.109096 0)
  (0.100118 -0.0871184 0)
  (0.0691729 -0.0639412 0)
  (0.0427673 -0.0419538 0)
  (0.0222569 -0.0237812 0)
  (0.00808905 -0.0119031 0)
  (-0.00111951 -0.00669786 0)
  (-0.00761189 -0.00590014 0)
  (-0.0131146 -0.0065303 0)
  (-0.0178655 -0.00723486 0)
  (-0.021678 -0.0078419 0)
  (-0.0244601 -0.00841717 0)
  (-0.0261493 -0.00906084 0)
  (-0.0267856 -0.00997712 0)
  (-0.026674 -0.0112937 0)
  (-0.0261948 -0.0127135 0)
  (-0.0254731 -0.0137644 0)
  (-0.0243535 -0.0139256 0)
  (-0.0224318 -0.012593 0)
  (-0.0187121 -0.00901683 0)
  (-0.00976609 -0.00245674 0)
  (-0.000438784 0.00618042 0)
  (0.0105038 0.0146729 0)
  (0.0223088 0.0215811 0)
  (0.0420789 0.0285894 0)
  (0.0600344 0.0209706 0)
  (0.0785854 -0.00629747 0)
  (0.137203 0.0412543 0)
  (-0.41979 0.209155 0)
  (1.03401 0.430435 0)
  (0.49798 0.285271 0)
  (0.503972 0.192136 0)
  (0.511902 0.120582 0)
  (0.486833 0.0687862 0)
  (0.44378 0.0150927 0)
  (0.393453 -0.0333942 0)
  (0.339655 -0.0675965 0)
  (0.28216 -0.0850542 0)
  (0.2234 -0.0878872 0)
  (0.166674 -0.0802039 0)
  (0.114699 -0.0660403 0)
  (0.0685014 -0.048219 0)
  (0.0299707 -0.0301299 0)
  (-0.00144024 -0.0139188 0)
  (-0.0219821 -0.0040743 0)
  (-0.0328395 -0.000478925 0)
  (-0.0388267 -5.63837e-05 0)
  (-0.0427484 -0.00106743 0)
  (-0.0461898 -0.00244074 0)
  (-0.0494063 -0.00379242 0)
  (-0.0523628 -0.00509507 0)
  (-0.0550285 -0.00638553 0)
  (-0.0574221 -0.007712 0)
  (-0.0596681 -0.0091222 0)
  (-0.0620455 -0.0105682 0)
  (-0.0648927 -0.011805 0)
  (-0.0685127 -0.0124361 0)
  (-0.073232 -0.0119198 0)
  (-0.0795046 -0.00955161 0)
  (-0.0879101 -0.00450569 0)
  (-0.0985601 0.00385193 0)
  (-0.109419 0.0149775 0)
  (-0.125065 0.0289475 0)
  (-0.149849 0.0456966 0)
  (-0.186258 0.0639072 0)
  (-0.237478 0.0793886 0)
  (-0.295099 0.0894598 0)
  (-0.363255 0.0942958 0)
  (-0.62418 0.0948936 0)
  (-0.146699 0.0842102 0)
  (0.135339 0.0630927 0)
  (0.217974 0.00683124 0)
  (0.201286 -0.0285271 0)
  (0.185344 -0.0431055 0)
  (0.162618 -0.0478066 0)
  (0.129983 -0.0461116 0)
  (0.0913527 -0.0396017 0)
  (0.0515015 -0.0297181 0)
  (0.0134978 -0.0172922 0)
  (-0.0236407 -0.00357555 0)
  (-0.0470592 0.00388657 0)
  (-0.0611556 0.00706811 0)
  (-0.0677847 0.00723805 0)
  (-0.0710252 0.00627015 0)
  (-0.0731525 0.00509475 0)
  (-0.0750219 0.00391485 0)
  (-0.0769415 0.00280251 0)
  (-0.0791285 0.00170475 0)
  (-0.0816904 0.000500364 0)
  (-0.0845286 -0.000758947 0)
  (-0.0876698 -0.00198971 0)
  (-0.091192 -0.00309598 0)
  (-0.0952015 -0.00391583 0)
  (-0.0997858 -0.00419725 0)
  (-0.104947 -0.00361155 0)
  (-0.110576 -0.00177869 0)
  (-0.116421 0.00169587 0)
  (-0.121883 0.00723424 0)
  (-0.12612 0.0155013 0)
  (-0.129609 0.0276199 0)
  (-0.132634 0.0439259 0)
  (-0.136095 0.0633825 0)
  (-0.140516 0.0821286 0)
  (-0.142582 0.0902289 0)
  (-0.124491 0.0670735 0)
  (-0.0760194 -0.0272873 0)
  (-0.280439 -0.2068 0)
  (-0.0210923 0.234319 0)
  (0.0623091 0.101763 0)
  (0.0367989 0.020639 0)
  (0.0246423 -0.00306051 0)
  (0.0155957 -0.00861521 0)
  (-0.00315091 -0.00986725 0)
  (-0.0282992 -0.00714489 0)
  (-0.0540751 -0.00225646 0)
  (-0.075769 0.00264954 0)
  (-0.0905216 0.00605186 0)
  (-0.0973536 0.00660301 0)
  (-0.099672 0.00469953 0)
  (-0.0998173 0.00209796 0)
  (-0.0990377 -0.000826029 0)
  (-0.0984068 -0.00372143 0)
  (-0.0982842 -0.00639061 0)
  (-0.0986968 -0.00875553 0)
  (-0.0995462 -0.0106767 0)
  (-0.100702 -0.0120651 0)
  (-0.102065 -0.0129186 0)
  (-0.103736 -0.0133526 0)
  (-0.105718 -0.0134007 0)
  (-0.108035 -0.0132654 0)
  (-0.110662 -0.0129101 0)
  (-0.113488 -0.0122029 0)
  (-0.116278 -0.0109074 0)
  (-0.11866 -0.00866428 0)
  (-0.1201 -0.00494816 0)
  (-0.119981 0.000618787 0)
  (-0.117271 0.00863974 0)
  (-0.110501 0.0200245 0)
  (-0.0984458 0.0355387 0)
  (-0.0809797 0.054641 0)
  (-0.0590336 0.0728329 0)
  (-0.0357424 0.0830163 0)
  (0.00565921 0.0661701 0)
  (0.142671 -0.00467783 0)
  (-0.207647 -0.117229 0)
  (0.941578 -0.0044458 0)
  (-0.538288 -0.460211 0)
  (-0.316903 0.0908099 0)
  (-0.228598 -0.0203054 0)
  (-0.180185 -0.0439113 0)
  (-0.165116 -0.0330336 0)
  (-0.162478 -0.0207207 0)
  (-0.163589 -0.0109135 0)
  (-0.163941 -0.00288561 0)
  (-0.161534 0.00398832 0)
  (-0.156653 0.0100943 0)
  (-0.149463 0.015435 0)
  (-0.140915 0.0197718 0)
  (-0.132433 0.0231713 0)
  (-0.124856 0.0262413 0)
  (-0.118512 0.0291836 0)
  (-0.113397 0.0320683 0)
  (-0.109335 0.0347279 0)
  (-0.106193 0.036864 0)
  (-0.103892 0.0382223 0)
  (-0.102373 0.0386816 0)
  (-0.101575 0.0382637 0)
  (-0.101441 0.0371141 0)
  (-0.101908 0.0353885 0)
  (-0.102888 0.0334971 0)
  (-0.104273 0.0315664 0)
  (-0.105879 0.0297012 0)
  (-0.107416 0.0279959 0)
  (-0.108436 0.0265379 0)
  (-0.108245 0.0254282 0)
  (-0.105585 0.0252865 0)
  (-0.0984999 0.0267567 0)
  (-0.0844757 0.03058 0)
  (-0.0617651 0.0376469 0)
  (-0.0314542 0.0484026 0)
  (0.0191432 0.0626284 0)
  (0.0630672 0.0630753 0)
  (0.105869 0.0475663 0)
  (0.165109 0.0175188 0)
  (-0.21173 -0.0388872 0)
)
;

boundaryField
{
  floor
  {
    type noSlip;
  }
  ceiling
  {
    type noSlip;
  }
  sWall
  {
    type noSlip;
  }
  nWall
  {
    type noSlip;
  }
  sideWalls
  {
    type empty;
  }
  glass1
  {
    type noSlip;
  }
  glass2
  {
    type noSlip;
  }
  sun
  {
    type noSlip;
  }
  heatsource1
  {
    type noSlip;
  }
  heatsource2
  {
    type noSlip;
  }
  Table_master
  {
    type noSlip;
  }
  Table_slave
  {
    type noSlip;
  }
  inlet
  {
    type fixedValue;
    value uniform (0.3 0 0);
  }
  outlet
  {
    type zeroGradient;
  }
} 	// ************************************************************************* //

