/*--------------------------------*- C++ -*----------------------------------*\
  =========                 |
  \\      /  F ield         | OpenFOAM: The Open Source CFD Toolbox
   \\    /   O peration     | Website:  https://openfoam.org
    \\  /    A nd           | Version:  6
     \\/     M anipulation  |
\*---------------------------------------------------------------------------*/
FoamFile
{
    version     2.0;
    format      ascii;
    class       volScalarField;
    location    "1500";
    object      nut;
}
// * * * * * * * * * * * * * * * * * * * * * * * * * * * * * * * * * * * * * //

dimensions      [0 2 -1 0 0 0 0];

internalField   nonuniform List<scalar> 
459
(
0.00106422
0.0011602
0.0011821
0.00123849
0.00129075
0.00134005
0.00138904
0.00143587
0.0014688
0.00148158
0.00146817
0.00142432
0.00134801
0.00124145
0.00111628
0.000463985
0.000554068
0.0006261
0.000632152
0.000614265
0.000588368
0.000552284
0.000515468
0.000481961
0.000452279
0.000426058
0.00040282
0.000382177
0.000363716
0.000346769
0.000330496
0.000313743
0.000303347
0.000277728
0.00144964
0.00343578
0.00325195
0.00377257
0.00428249
0.00479395
0.00523868
0.00558451
0.00590582
0.00617307
0.00634965
0.00639773
0.00627165
0.00586325
0.00471682
0.00113641
0.000705001
0.000484018
0.00101965
0.00142958
0.00174047
0.00192472
0.00193502
0.00152966
0.00131446
0.00116197
0.0010456
0.000953634
0.000879103
0.000815801
0.000756784
0.000699519
0.00064865
0.000603724
0.000716455
0.000369546
0.00177054
0.00466111
0.00396638
0.00494357
0.00539196
0.00571772
0.00597203
0.00619555
0.00645503
0.00673643
0.00700682
0.00721566
0.00731711
0.00723556
0.00674864
0.0051791
0.00117008
0.000910484
0.00132707
0.00173092
0.00212341
0.00241593
0.00238788
0.000785226
0.000694598
0.000620984
0.000561226
0.000512379
0.00047209
0.000438617
0.000410838
0.000388264
0.00041946
0.000484158
0.000809009
0.000431681
0.00207919
0.00596482
0.00391514
0.00516406
0.00550385
0.00558518
0.00565234
0.00577793
0.00599493
0.00628742
0.00662456
0.0069343
0.00716712
0.00725784
0.00715605
0.00659854
0.00442934
0.00136951
0.00164268
0.00209822
0.00259854
0.00304571
0.00335555
0.00319823
0.000888973
0.000813575
0.000759921
0.000719139
0.000684269
0.000651565
0.000620019
0.000586685
0.000547794
0.000514032
0.000519252
0.000939443
0.000480848
0.00239409
0.0076667
0.00423235
0.00492324
0.00539179
0.00534357
0.00529599
0.00538986
0.00559323
0.00589198
0.00626473
0.00660579
0.00684472
0.00693708
0.00688387
0.00666124
0.00609728
0.00516652
0.0048521
0.004805
0.00485695
0.00491796
0.0049293
0.00477814
0.00406467
0.00371947
0.00351952
0.00336393
0.00319828
0.00296085
0.00263141
0.00222635
0.00177426
0.00132427
0.000977194
0.00096218
0.000653945
0.000594047
0.000716207
0.000804318
0.00272864
0.00953423
0.00582332
0.00475653
0.00520898
0.00535662
0.00521183
0.00530089
0.00546985
0.00574706
0.00610935
0.00646483
0.00670255
0.00675567
0.00663892
0.00643773
0.00624819
0.00613015
0.00614543
0.00618047
0.00616147
0.00607801
0.00593276
0.00571388
0.00538189
0.00508322
0.00481856
0.00456545
0.00430948
0.00403634
0.00369001
0.00325368
0.00272637
0.00214039
0.00161364
0.00118624
0.000908131
0.000775406
0.00110275
0.000841124
0.0030428
0.0108839
0.00835337
0.0060396
0.00563835
0.00567299
0.00553338
0.00545388
0.00553473
0.00579799
0.00617975
0.006553
0.00677966
0.00678302
0.0065975
0.00637728
0.00632637
0.00650879
0.00673614
0.00681598
0.00671854
0.00649194
0.00618021
0.00581559
0.00543155
0.00508164
0.00476891
0.00448295
0.00422117
0.00398827
0.00378357
0.00350396
0.00310078
0.00260132
0.00211324
0.00166158
0.00134249
0.00125012
0.00127971
0.000964155
0.0031108
0.00987857
0.00856984
0.0075927
0.00699498
0.00633738
0.00578299
0.00554834
0.00565029
0.00600543
0.00646655
0.00685934
0.00703128
0.00693064
0.00665135
0.00643741
0.006526
0.00682862
0.0069611
0.00682638
0.00649852
0.00605314
0.00555757
0.00507613
0.00465826
0.00431861
0.00404134
0.00381341
0.00363349
0.00350701
0.00344089
0.00341274
0.00321957
0.00290479
0.00262276
0.00248271
0.00259681
0.00300618
0.00367346
0.00149627
0.00303596
0.00362532
0.0040951
0.00424336
0.0042566
0.00435367
0.00463603
0.00513129
0.00579629
0.00650042
0.00707742
0.00738189
0.00731792
0.00694942
0.00655166
0.00648098
0.00655186
0.00655722
0.00635638
0.00595028
0.0054164
0.00484296
0.00431258
0.00387703
0.00354442
0.00329258
0.00309458
0.00293244
0.00279482
0.00267217
0.00255574
0.00244443
0.00235537
0.00228935
0.00226455
0.0022733
0.00225551
0.00215793
0.00201202
0.00139954
0.00182865
0.00326044
0.00450881
0.00554949
0.0063968
0.00715984
0.00775905
0.0080651
0.00803265
0.00767725
0.00705549
0.00635283
0.00592501
0.00577244
0.00560412
0.00528935
0.00483406
0.00430653
0.0037782
0.00331582
0.00295828
0.00270057
0.00251883
0.00238918
0.00229535
0.00222804
0.00218211
0.00215514
0.00214928
0.00216599
0.00219181
0.00222344
0.00225284
0.00225475
0.00218914
0.00204427
0.00183389
0.00114834
0.0021256
0.00456645
0.00624217
0.00703613
0.00757176
0.00794358
0.00792541
0.00743139
0.00666775
0.0058469
0.00515917
0.00466322
0.00433314
0.00403746
0.00368027
0.00327813
0.00288211
0.00254021
0.00227777
0.00209258
0.00196481
0.00187893
0.00182921
0.00180817
0.00181043
0.00183231
0.00187043
0.00192027
0.00198737
0.00206873
0.00216168
0.00225961
0.00234691
0.00240527
0.00238675
0.00240129
0.00237211
0.00116763
0.00197045
0.0019658
0.00200215
0.00207485
0.00187942
0.00172466
0.00165087
0.00157691
0.00146929
0.0013364
0.00118446
0.00103371
0.000900501
0.000795202
0.000719295
0.000665964
0.000627819
0.000600654
0.000582775
0.000573388
0.00057154
0.000576061
0.000585955
0.000600737
0.00061935
0.000641595
0.000667586
0.000697629
0.00073232
0.000772775
0.000818325
0.000869144
0.00092585
0.000989019
0.00105846
0.00114224
0.00116847
0.00113856
0.00106648
0.000989674
)
;

boundaryField
{
    floor
    {
        type            nutkWallFunction;
        Cmu             0.09;
        kappa           0.41;
        E               9.8;
        value           nonuniform List<scalar> 
29
(
0.000134318
5.50856e-05
6.65768e-05
7.55991e-05
7.63511e-05
7.41257e-05
7.08897e-05
6.63516e-05
6.16837e-05
5.73993e-05
5.3573e-05
5.01665e-05
4.71255e-05
4.44051e-05
4.19565e-05
3.96945e-05
3.75089e-05
3.52441e-05
3.38308e-05
3.03199e-05
3.03198e-05
4.27309e-05
5.08986e-05
5.72556e-05
0.000134318
5.50855e-05
5.76631e-05
0.000110134
0.000163395
)
;
    }
    ceiling
    {
        type            nutkWallFunction;
        Cmu             0.09;
        kappa           0.41;
        E               9.8;
        value           nonuniform List<scalar> 
43
(
0.000230129
0.000229539
0.000233495
0.000241482
0.000220209
0.000203177
0.000194997
0.000186755
0.00017468
0.000159631
0.000142215
0.000124683
0.000108946
9.63156e-05
8.70888e-05
8.05373e-05
7.58129e-05
7.24272e-05
7.01889e-05
6.90103e-05
6.87781e-05
6.93461e-05
7.05875e-05
7.24375e-05
7.47591e-05
7.75228e-05
8.07373e-05
8.44343e-05
8.86798e-05
9.36007e-05
9.91053e-05
0.000105204
0.000111961
0.000119432
0.000127582
0.000137334
0.00014037
0.000136908
0.000128519
0.00011951
0.000343873
0.000404794
0.000246778
)
;
    }
    sWall
    {
        type            nutkWallFunction;
        Cmu             0.09;
        kappa           0.41;
        E               9.8;
        value           uniform 0.000230189;
    }
    nWall
    {
        type            nutkWallFunction;
        Cmu             0.09;
        kappa           0.41;
        E               9.8;
        value           nonuniform List<scalar> 6(9.74172e-05 0.000101848 0.000116502 0.000138051 0.000140284 0.000119516);
    }
    sideWalls
    {
        type            empty;
    }
    glass1
    {
        type            nutkWallFunction;
        Cmu             0.09;
        kappa           0.41;
        E               9.8;
        value           nonuniform List<scalar> 9(0.000128353 0.000172683 0.000208571 0.000242419 0.0002764 0.000311986 0.000344989 0.000352095 0.0003443);
    }
    glass2
    {
        type            nutkWallFunction;
        Cmu             0.09;
        kappa           0.41;
        E               9.8;
        value           nonuniform List<scalar> 2(0.000177797 0.000166873);
    }
    sun
    {
        type            nutkWallFunction;
        Cmu             0.09;
        kappa           0.41;
        E               9.8;
        value           nonuniform List<scalar> 
14
(
0.000128256
0.000139412
0.000141942
0.000148435
0.000154423
0.000160047
0.000165612
0.000170911
0.000174627
0.000176066
0.000174555
0.000169605
0.000160951
0.000148773
)
;
    }
    heatsource1
    {
        type            nutkWallFunction;
        Cmu             0.09;
        kappa           0.41;
        E               9.8;
        value           nonuniform List<scalar> 3(7.16025e-05 8.67113e-05 9.74164e-05);
    }
    heatsource2
    {
        type            nutkWallFunction;
        Cmu             0.09;
        kappa           0.41;
        E               9.8;
        value           nonuniform List<scalar> 4(0.000136651 8.53401e-05 8.53401e-05 0.000140548);
    }
    Table_master
    {
        type            nutkWallFunction;
        Cmu             0.09;
        kappa           0.41;
        E               9.8;
        value           nonuniform List<scalar> 9(9.5109e-05 8.40635e-05 7.49649e-05 6.74831e-05 6.1295e-05 5.61361e-05 5.18084e-05 4.81853e-05 4.52183e-05);
    }
    Table_slave
    {
        type            nutkWallFunction;
        Cmu             0.09;
        kappa           0.41;
        E               9.8;
        value           nonuniform List<scalar> 9(0.000107571 9.85325e-05 9.20408e-05 8.70704e-05 8.27938e-05 7.87591e-05 7.48443e-05 7.06812e-05 6.57875e-05);
    }
    inlet
    {
        type            calculated;
        value           uniform 0.000100623;
    }
    outlet
    {
        type            calculated;
        value           nonuniform List<scalar> 2(0.00197045 0.0019658);
    }
}


// ************************************************************************* //
