/*--------------------------------*- C++ -*----------------------------------*\
  =========                 |
  \\      /  F ield         | OpenFOAM: The Open Source CFD Toolbox
   \\    /   O peration     | Website:  https://openfoam.org
    \\  /    A nd           | Version:  6
     \\/     M anipulation  |
\*---------------------------------------------------------------------------*/
FoamFile
{
    version     2.0;
    format      ascii;
    class       volScalarField;
    location    "600";
    object      epsilon;
}
// * * * * * * * * * * * * * * * * * * * * * * * * * * * * * * * * * * * * * //

dimensions      [0 2 -3 0 0 0 0];

internalField   nonuniform List<scalar> 
459
(
0.000502215
0.000660515
0.000708384
0.000819447
0.000934287
0.00105562
0.00119258
0.0013094
0.00137885
0.00137748
0.00129401
0.00113069
0.000895943
0.000567725
0.000272187
4.2565e-05
7.03917e-05
0.000106307
0.000121761
0.00011743
0.000106006
8.70032e-05
6.95887e-05
5.59779e-05
4.56192e-05
3.76886e-05
3.15445e-05
2.67012e-05
2.28543e-05
1.96955e-05
1.69766e-05
1.44771e-05
1.27381e-05
9.60258e-06
0.00121863
0.0017067
0.000618563
0.000605688
0.000642255
0.000707269
0.00080629
0.000913441
0.000992669
0.001013
0.000963713
0.000853319
0.000705411
0.000530994
0.00040716
0.000558775
0.00020358
4.28451e-05
9.4023e-05
0.000118491
0.000119186
0.000109668
9.8223e-05
9.48249e-05
7.62299e-05
5.92573e-05
4.60312e-05
3.60616e-05
2.85868e-05
2.29371e-05
1.86745e-05
1.54996e-05
1.34743e-05
1.24987e-05
2.6408e-05
1.92056e-05
0.00216118
0.00400613
0.000741111
0.000580244
0.000624224
0.000726067
0.000872986
0.0010237
0.00112515
0.00114904
0.00109618
0.000978536
0.000825571
0.000662357
0.00053338
0.000472718
0.000609699
0.000206309
0.000195513
0.000175795
0.000154449
0.000133382
0.000121605
0.000241754
0.000160604
0.000110373
7.86539e-05
5.80034e-05
4.41266e-05
3.45289e-05
2.78121e-05
2.31864e-05
1.74396e-05
1.45662e-05
4.84485e-05
2.91173e-05
0.00341977
0.00815301
0.00112677
0.000593096
0.000630328
0.000782288
0.00101492
0.00121434
0.00132007
0.00132811
0.00125618
0.00111159
0.000935769
0.000761641
0.000618965
0.000532152
0.000518442
0.000926725
0.000559966
0.000363888
0.000261621
0.000201677
0.000162742
0.000146499
0.000355574
0.000263735
0.000207692
0.000169789
0.000141103
0.00011848
9.89786e-05
8.1034e-05
6.34092e-05
3.60487e-05
2.29026e-05
8.2676e-05
3.91962e-05
0.0051219
0.0144479
0.00216168
0.000704253
0.000679417
0.000934476
0.00132532
0.00154476
0.00161512
0.00157998
0.0014645
0.00128118
0.00105763
0.00083013
0.000636202
0.000498064
0.000423663
0.000401762
0.000345627
0.000291443
0.000245652
0.000206124
0.000171777
0.000145437
0.000139999
0.000127856
0.000115775
0.000104008
9.22905e-05
8.08248e-05
6.96284e-05
5.90762e-05
4.93869e-05
3.761e-05
2.80126e-05
5.97246e-05
4.48259e-05
7.33915e-05
0.000128719
0.000183456
0.0074718
0.0215046
0.00481479
0.00131101
0.00102857
0.0015846
0.00198321
0.00208909
0.00205382
0.00194173
0.00175979
0.00150821
0.00120978
0.000908531
0.000654375
0.000475831
0.000375031
0.000330999
0.000304471
0.000276217
0.00024252
0.00020668
0.000172647
0.000144485
0.00012662
0.000115742
0.000107847
0.000100218
9.17362e-05
8.17766e-05
7.05778e-05
5.94513e-05
4.94462e-05
4.05203e-05
3.51719e-05
4.59198e-05
4.82621e-05
5.79849e-05
0.000238493
0.000211573
0.010188
0.0257822
0.00988745
0.00414442
0.0031126
0.00330685
0.00317947
0.00294057
0.00269173
0.00243884
0.00214595
0.00179001
0.00138967
0.00099619
0.000676203
0.000464176
0.000354408
0.000310363
0.000286823
0.00025985
0.000226366
0.000191373
0.00015983
0.000135434
0.000120536
0.000113434
0.000110054
0.000107818
0.000105615
0.000102347
9.50687e-05
8.54276e-05
7.58954e-05
6.78964e-05
6.60478e-05
7.44963e-05
9.32324e-05
0.000141493
0.00033635
0.000324441
0.0108136
0.027967
0.0155271
0.0103669
0.00788502
0.00604171
0.00481365
0.00402026
0.00348453
0.00305328
0.00260824
0.00210156
0.0015594
0.0010426
0.000651925
0.000419845
0.000313614
0.000274594
0.00024974
0.000221571
0.000190283
0.000161203
0.000137917
0.000122292
0.000114611
0.000113307
0.000116297
0.000122738
0.000132801
0.000146734
0.000163993
0.000179051
0.00019349
0.000220168
0.000269852
0.000398493
0.00068719
0.00125317
0.00416715
0.00109109
0.0100276
0.0168494
0.0134683
0.0102615
0.00797266
0.00644769
0.00544389
0.0047711
0.00424913
0.00371463
0.00306088
0.00230903
0.00155851
0.000862337
0.000475266
0.00031764
0.000251918
0.000219432
0.000194612
0.000170399
0.000147754
0.000128742
0.000114968
0.000107186
0.000105237
0.00010843
0.000116394
0.000129683
0.000149705
0.000178577
0.000219194
0.000275766
0.000354683
0.000468335
0.000632783
0.000855452
0.00111815
0.00136786
0.00156599
0.000861375
0.00450745
0.00611902
0.00675334
0.00642299
0.00593365
0.00537901
0.00464666
0.00370004
0.00247339
0.00141117
0.000795455
0.000460794
0.000297997
0.00022289
0.000185252
0.000161221
0.0001414
0.000123866
0.000109334
9.85276e-05
9.16827e-05
8.85303e-05
8.87335e-05
9.21833e-05
9.92016e-05
0.000110596
0.000127787
0.000152861
0.000188915
0.000240492
0.000313208
0.000414522
0.000550983
0.000719294
0.000896405
0.00104346
0.000970013
0.000434209
0.00307019
0.00669959
0.00686898
0.00551093
0.00453537
0.00359021
0.0025826
0.00171291
0.00106813
0.000645188
0.000401872
0.000273416
0.000208517
0.000174957
0.000155712
0.00014275
0.000132803
0.000124892
0.00011883
0.000114556
0.00011198
0.000110976
0.000111504
0.000113713
0.000118049
0.000125388
0.000137024
0.000154795
0.000181246
0.000219818
0.000274955
0.000351229
0.000449857
0.000563474
0.000667323
0.000778661
0.000447422
0.00046278
0.00202529
0.00236368
0.00262853
0.00298661
0.00236621
0.00201651
0.001806
0.00153789
0.00121234
0.00090567
0.000658512
0.00048088
0.000365392
0.000293769
0.000247158
0.000213447
0.000186333
0.00016307
0.000143089
0.000126731
0.00011425
0.000105467
9.99195e-05
9.71588e-05
9.69522e-05
9.93655e-05
0.000104736
0.000113579
0.000126628
0.000144776
0.00016905
0.000200871
0.000242155
0.000295188
0.000361458
0.000442687
0.000447382
0.000319144
0.000275836
0.000468688
)
;

boundaryField
{
    floor
    {
        Cmu             0.09;
        kappa           0.41;
        E               9.8;
        type            epsilonWallFunction;
        value           nonuniform List<scalar> 
29
(
0.000272187
4.2565e-05
7.03917e-05
0.000106307
0.000121761
0.00011743
0.000106006
8.70032e-05
6.95887e-05
5.59779e-05
4.56192e-05
3.76886e-05
3.15445e-05
2.67012e-05
2.28543e-05
1.96955e-05
1.69766e-05
1.44771e-05
1.27381e-05
9.60258e-06
9.60258e-06
1.92056e-05
2.91173e-05
3.91962e-05
0.000272187
4.2565e-05
4.28451e-05
0.000206309
0.000926725
)
;
    }
    ceiling
    {
        Cmu             0.09;
        kappa           0.41;
        E               9.8;
        type            epsilonWallFunction;
        value           nonuniform List<scalar> 
43
(
0.00202529
0.00236368
0.00262853
0.00298661
0.00236621
0.00201651
0.001806
0.00153789
0.00121234
0.00090567
0.000658512
0.00048088
0.000365392
0.000293769
0.000247158
0.000213447
0.000186333
0.00016307
0.000143089
0.000126731
0.00011425
0.000105467
9.99195e-05
9.71588e-05
9.69522e-05
9.93655e-05
0.000104736
0.000113579
0.000126628
0.000144776
0.00016905
0.000200871
0.000242155
0.000295188
0.000361458
0.000442687
0.000447382
0.000319144
0.000275836
0.000468688
0.0100276
0.0168494
0.00307019
)
;
    }
    sWall
    {
        Cmu             0.09;
        kappa           0.41;
        E               9.8;
        type            epsilonWallFunction;
        value           uniform 0.00202529;
    }
    nWall
    {
        Cmu             0.09;
        kappa           0.41;
        E               9.8;
        type            epsilonWallFunction;
        value           nonuniform List<scalar> 6(0.000183456 0.000211573 0.000324441 0.000434209 0.00046278 0.000468688);
    }
    sideWalls
    {
        type            empty;
    }
    glass1
    {
        Cmu             0.09;
        kappa           0.41;
        E               9.8;
        type            epsilonWallFunction;
        value           nonuniform List<scalar> 9(0.000502215 0.00121863 0.00216118 0.00341977 0.0051219 0.0074718 0.010188 0.0108136 0.0100276);
    }
    glass2
    {
        Cmu             0.09;
        kappa           0.41;
        E               9.8;
        type            epsilonWallFunction;
        value           nonuniform List<scalar> 2(0.00109109 0.000861375);
    }
    sun
    {
        Cmu             0.09;
        kappa           0.41;
        E               9.8;
        type            epsilonWallFunction;
        value           nonuniform List<scalar> 
14
(
0.000502215
0.000660515
0.000708384
0.000819447
0.000934287
0.00105562
0.00119258
0.0013094
0.00137885
0.00137748
0.00129401
0.00113069
0.000895943
0.000567725
)
;
    }
    heatsource1
    {
        Cmu             0.09;
        kappa           0.41;
        E               9.8;
        type            epsilonWallFunction;
        value           nonuniform List<scalar> 3(7.33915e-05 0.000128719 0.000183456);
    }
    heatsource2
    {
        Cmu             0.09;
        kappa           0.41;
        E               9.8;
        type            epsilonWallFunction;
        value           nonuniform List<scalar> 4(0.000558775 0.00020358 0.00020358 0.000609699);
    }
    Table_master
    {
        Cmu             0.09;
        kappa           0.41;
        E               9.8;
        type            epsilonWallFunction;
        value           nonuniform List<scalar> 9(0.000241754 0.000160604 0.000110373 7.86539e-05 5.80034e-05 4.41266e-05 3.45289e-05 2.78121e-05 2.31864e-05);
    }
    Table_slave
    {
        Cmu             0.09;
        kappa           0.41;
        E               9.8;
        type            epsilonWallFunction;
        value           nonuniform List<scalar> 9(0.000355574 0.000263735 0.000207692 0.000169789 0.000141103 0.00011848 9.89786e-05 8.1034e-05 6.34092e-05);
    }
    inlet
    {
        type            turbulentMixingLengthDissipationRateInlet;
        mixingLength    0.01;
        phi             phi;
        k               k;
        value           uniform 0.000101881;
    }
    outlet
    {
        type            zeroGradient;
    }
}


// ************************************************************************* //
