// -*- C++ -*-
// File generated by PyFoam - sorry for the ugliness

FoamFile
{
 version 2.0;
 format ascii;
 class volScalarField;
 location "1100";
 object T;
}

dimensions [ 0 0 0 1 0 0 0 ];

internalField nonuniform List<scalar> 459
(
  303.359
  303.095
  303.082
  303.079
  303.075
  303.072
  303.067
  303.062
  303.053
  303.041
  303.029
  303.018
  303.012
  303.01
  303.016
  303.098
  303.079
  303.072
  303.074
  303.078
  303.081
  303.085
  303.089
  303.092
  303.096
  303.099
  303.103
  303.106
  303.109
  303.113
  303.116
  303.12
  303.125
  303.144
  303.538
  303.137
  303.114
  303.118
  303.121
  303.122
  303.12
  303.113
  303.097
  303.072
  303.045
  303.021
  303.005
  302.998
  302.996
  302.992
  302.986
  303.101
  303.065
  303.059
  303.061
  303.065
  303.069
  303.071
  303.072
  303.073
  303.074
  303.074
  303.075
  303.076
  303.077
  303.079
  303.082
  303.087
  303.096
  303.127
  303.726
  303.188
  303.151
  303.163
  303.178
  303.189
  303.194
  303.188
  303.162
  303.118
  303.069
  303.029
  303.004
  302.993
  302.991
  302.992
  302.991
  303.055
  303.049
  303.052
  303.06
  303.069
  303.077
  303.077
  303.076
  303.075
  303.075
  303.075
  303.074
  303.074
  303.073
  303.073
  303.076
  303.079
  303.086
  303.12
  303.915
  303.249
  303.187
  303.207
  303.237
  303.266
  303.286
  303.281
  303.239
  303.169
  303.094
  303.035
  303
  302.988
  302.989
  302.993
  302.997
  303.007
  303.019
  303.036
  303.054
  303.072
  303.088
  303.101
  303.112
  303.12
  303.128
  303.136
  303.141
  303.146
  303.149
  303.152
  303.152
  303.128
  303.107
  303.096
  303.12
  304.099
  303.327
  303.226
  303.243
  303.285
  303.334
  303.376
  303.371
  303.308
  303.208
  303.105
  303.033
  302.993
  302.981
  302.986
  302.997
  303.01
  303.025
  303.043
  303.064
  303.086
  303.107
  303.126
  303.142
  303.156
  303.167
  303.176
  303.184
  303.189
  303.191
  303.19
  303.186
  303.179
  303.16
  303.133
  303.11
  303.118
  303.194
  303.239
  303.245
  304.265
  303.428
  303.291
  303.283
  303.323
  303.385
  303.449
  303.429
  303.338
  303.215
  303.1
  303.017
  302.976
  302.969
  302.984
  303.007
  303.031
  303.054
  303.079
  303.105
  303.13
  303.153
  303.172
  303.188
  303.201
  303.211
  303.219
  303.225
  303.228
  303.227
  303.222
  303.213
  303.202
  303.183
  303.157
  303.129
  303.122
  303.153
  303.17
  303.205
  304.413
  303.588
  303.444
  303.408
  303.426
  303.483
  303.512
  303.45
  303.321
  303.173
  303.049
  302.972
  302.945
  302.956
  302.989
  303.029
  303.067
  303.101
  303.131
  303.159
  303.183
  303.204
  303.22
  303.233
  303.244
  303.252
  303.257
  303.26
  303.261
  303.257
  303.249
  303.237
  303.222
  303.203
  303.179
  303.154
  303.14
  303.147
  303.157
  303.186
  304.632
  304.013
  303.848
  303.745
  303.696
  303.68
  303.584
  303.411
  303.213
  303.044
  302.934
  302.892
  302.906
  302.953
  303.015
  303.076
  303.126
  303.164
  303.194
  303.217
  303.236
  303.252
  303.264
  303.274
  303.28
  303.285
  303.287
  303.287
  303.285
  303.28
  303.273
  303.26
  303.245
  303.229
  303.211
  303.192
  303.185
  303.198
  303.217
  303.345
  304.943
  304.654
  304.388
  304.158
  303.971
  303.751
  303.421
  303.103
  302.876
  302.762
  302.748
  302.802
  302.896
  302.994
  303.088
  303.16
  303.202
  303.23
  303.251
  303.268
  303.281
  303.292
  303.3
  303.305
  303.309
  303.31
  303.31
  303.309
  303.306
  303.304
  303.301
  303.301
  303.303
  303.31
  303.324
  303.347
  303.38
  303.413
  303.435
  303.49
  297.035
  299.162
  300.275
  300.724
  301.16
  301.594
  301.997
  302.34
  302.617
  302.84
  303.032
  303.138
  303.203
  303.242
  303.267
  303.285
  303.298
  303.308
  303.316
  303.322
  303.327
  303.329
  303.331
  303.332
  303.333
  303.333
  303.334
  303.335
  303.336
  303.338
  303.343
  303.351
  303.365
  303.384
  303.408
  303.432
  303.45
  303.471
  297.474
  299.343
  300.28
  300.973
  301.563
  302.088
  302.494
  302.777
  302.973
  303.106
  303.193
  303.244
  303.277
  303.298
  303.312
  303.323
  303.331
  303.337
  303.341
  303.344
  303.346
  303.348
  303.349
  303.35
  303.351
  303.352
  303.353
  303.355
  303.356
  303.358
  303.362
  303.368
  303.377
  303.391
  303.407
  303.425
  303.423
  303.453
  299.522
  299.452
  299.447
  301.214
  302.075
  302.518
  302.769
  302.945
  303.073
  303.16
  303.223
  303.265
  303.293
  303.311
  303.323
  303.331
  303.337
  303.341
  303.344
  303.347
  303.349
  303.351
  303.352
  303.354
  303.355
  303.357
  303.358
  303.36
  303.361
  303.363
  303.364
  303.366
  303.369
  303.372
  303.377
  303.388
  303.397
  303.403
  303.405
  303.444
)
;

boundaryField
{
  floor
  {
    type wallHeatTransfer;
    Tinf uniform 305.2;
    alphaWall uniform 0.24;
    value nonuniform List<scalar> 29
(
  303.241
  303.503
  303.442
  303.407
  303.407
  303.417
  303.43
  303.448
  303.469
  303.489
  303.509
  303.527
  303.546
  303.563
  303.58
  303.597
  303.613
  303.632
  303.645
  303.686
  303.686
  303.587
  303.537
  303.509
  303.241
  303.503
  303.494
  303.313
  303.201
)
;
  }
  ceiling
  {
    type wallHeatTransfer;
    Tinf uniform 303.2;
    alphaWall uniform 0.24;
    value nonuniform List<scalar> 43
(
  299.776
  299.7
  299.689
  301.338
  302.151
  302.568
  302.802
  302.965
  303.083
  303.164
  303.22
  303.258
  303.281
  303.296
  303.305
  303.311
  303.315
  303.318
  303.32
  303.322
  303.324
  303.325
  303.327
  303.329
  303.331
  303.333
  303.335
  303.337
  303.339
  303.341
  303.343
  303.346
  303.349
  303.353
  303.358
  303.369
  303.377
  303.382
  303.383
  303.416
  304.862
  304.596
  297.823
)
;
  }
  sWall
  {
    type wallHeatTransfer;
    Tinf uniform 315.2;
    alphaWall uniform 0.36;
    value uniform 301.098;
  }
  nWall
  {
    type wallHeatTransfer;
    Tinf uniform 307.2;
    alphaWall uniform 0.36;
    value nonuniform List<scalar> 6
(
  303.974
  303.919
  303.838
  304.007
  303.986
  304.044
)
;
  }
  sideWalls
  {
    type empty;
  }
  glass1
  {
    type wallHeatTransfer;
    Tinf uniform 315.2;
    alphaWall uniform 4.3;
    value nonuniform List<scalar> 9
(
  311.489
  310.851
  310.448
  310.14
  309.882
  309.649
  309.467
  309.532
  309.755
)
;
  }
  glass2
  {
    type wallHeatTransfer;
    Tinf uniform 307.2;
    alphaWall uniform 4.3;
    value nonuniform List<scalar> 2
(
  305.72
  305.827
)
;
  }
  sun
  {
    type wallHeatTransfer;
    Tinf uniform 305.2;
    alphaWall uniform 0.24;
    value nonuniform List<scalar> 14
(
  303.556
  303.306
  303.291
  303.281
  303.271
  303.262
  303.253
  303.243
  303.232
  303.22
  303.21
  303.205
  303.207
  303.218
)
;
  }
  heatsource1
  {
    type fixedGradient;
    gradient uniform 0;
  }
  heatsource2
  {
    type fixedGradient;
    gradient uniform 0;
  }
  Table_master
  {
    type zeroGradient;
  }
  Table_slave
  {
    type zeroGradient;
  }
  inlet
  {
    type fixedValue;
    value uniform 293.15;
  }
  outlet
  {
    type zeroGradient;
  }
} 	// ************************************************************************* //

