/*--------------------------------*- C++ -*----------------------------------*\
  =========                 |
  \\      /  F ield         | OpenFOAM: The Open Source CFD Toolbox
   \\    /   O peration     | Website:  https://openfoam.org
    \\  /    A nd           | Version:  6
     \\/     M anipulation  |
\*---------------------------------------------------------------------------*/
FoamFile
{
    version     2.0;
    format      ascii;
    class       volScalarField;
    location    "200";
    object      epsilon;
}
// * * * * * * * * * * * * * * * * * * * * * * * * * * * * * * * * * * * * * //

dimensions      [0 2 -3 0 0 0 0];

internalField   nonuniform List<scalar> 
459
(
0.000135364
0.000149296
0.000133356
0.000149113
0.000165026
0.000180197
0.00019471
0.000208914
0.00022338
0.000238976
0.000252754
0.000263621
0.000270867
0.000274672
0.000273671
6.3019e-05
0.000125993
0.000138622
0.000139594
0.000129472
0.000115202
9.30087e-05
7.41202e-05
5.98576e-05
4.88171e-05
4.00828e-05
3.30854e-05
2.74285e-05
2.2816e-05
1.90054e-05
1.57899e-05
1.30299e-05
1.2356e-05
1.00819e-05
0.000569747
0.00133476
0.00014175
0.00011413
0.000116241
0.000120715
0.000126748
0.000135371
0.000147736
0.000164864
0.000184826
0.000206454
0.000227603
0.000245696
0.000266598
0.000343606
0.000106667
9.22419e-05
0.000205867
0.000123794
0.00010501
9.04349e-05
8.05857e-05
7.42138e-05
5.7496e-05
4.57129e-05
3.66809e-05
2.94581e-05
2.36999e-05
1.91261e-05
1.55031e-05
1.27057e-05
1.0937e-05
1.06496e-05
4.88998e-05
2.76631e-05
0.00138991
0.00443709
0.000276405
0.000120232
0.000114655
0.00011939
0.000127058
0.000137956
0.000152487
0.000170652
0.000190941
0.000211207
0.000230172
0.00024935
0.000276821
0.000332454
0.000454627
0.000294315
0.000294628
0.000165207
0.000118297
9.26571e-05
8.35418e-05
0.000144853
8.00315e-05
4.98132e-05
3.4956e-05
2.66797e-05
2.14294e-05
1.77824e-05
1.51614e-05
1.34678e-05
1.19825e-05
1.37542e-05
0.000128367
5.28089e-05
0.0027507
0.0101616
0.000633437
0.00014156
0.000121057
0.000127672
0.000138028
0.000151406
0.00016818
0.000188645
0.000210855
0.000229872
0.000244345
0.000258323
0.000282486
0.000337685
0.000462422
0.000685276
0.000406956
0.000219242
0.000159202
0.000116548
9.48816e-05
8.48012e-05
0.00015154
0.000132843
0.000127528
0.000125756
0.000123385
0.00011735
0.000105727
9.28325e-05
7.94292e-05
5.31351e-05
4.07139e-05
0.000312607
7.6379e-05
0.00472831
0.0183425
0.00145418
0.000187101
0.000128428
0.000136523
0.000152307
0.000172939
0.000198781
0.000229869
0.000262152
0.000284451
0.000294084
0.000294535
0.000290291
0.000285019
0.000280865
0.000262544
0.000199702
0.00015442
0.000130791
0.000116798
0.000110997
9.75309e-05
9.39569e-05
9.04641e-05
9.10159e-05
9.30785e-05
9.39185e-05
9.08202e-05
8.22892e-05
7.20208e-05
6.43488e-05
5.58337e-05
4.90426e-05
0.000175361
0.000119522
0.000135196
0.000216469
0.000308598
0.00739476
0.0264358
0.00326109
0.000339245
0.000154315
0.000150844
0.000169296
0.000198528
0.000239378
0.000294744
0.000347179
0.000374048
0.000378152
0.000368423
0.000349633
0.000320038
0.000274953
0.00021761
0.00016509
0.000135016
0.000125883
0.000125986
0.000136078
0.000119008
0.000106732
0.00010372
0.000107513
0.000114766
0.00012175
0.000124244
0.000117384
9.75081e-05
7.9039e-05
6.45069e-05
5.73163e-05
0.00010447
0.000112646
0.000115528
0.000411712
0.000369533
0.0108646
0.0304531
0.00745704
0.00136077
0.000442935
0.000276964
0.000254734
0.000276523
0.000325936
0.000424552
0.000488797
0.000501232
0.000483667
0.00045349
0.000417514
0.000372996
0.000313697
0.0002445
0.00018626
0.000153269
0.000140977
0.000140907
0.000170095
0.000151066
0.000134606
0.000129894
0.000135219
0.000147807
0.000163645
0.000178965
0.000187006
0.00017465
0.000140007
0.000112815
0.000102751
0.000127865
0.000175879
0.000298348
0.000675581
0.00061984
0.0119436
0.0392444
0.0179097
0.00876556
0.00392191
0.00177522
0.00102547
0.000791433
0.000742794
0.000769776
0.00073794
0.00067643
0.000607414
0.000541393
0.000480656
0.000421632
0.000357776
0.000288795
0.00023285
0.000198226
0.000172886
0.000160789
0.00021692
0.000201548
0.000181937
0.000174372
0.000179194
0.000194164
0.000218614
0.000252996
0.000296139
0.000342035
0.000355385
0.000366873
0.000455327
0.000746091
0.00150492
0.0029651
0.00830101
0.00189932
0.0111993
0.0199947
0.0158026
0.0114541
0.00781886
0.00509481
0.00333615
0.00229875
0.00171628
0.00132384
0.00105279
0.000861222
0.000721435
0.000615122
0.000530234
0.000458603
0.000394823
0.000338992
0.00029977
0.00027095
0.000223987
0.00018746
0.000280757
0.000283987
0.000262949
0.000248442
0.00024672
0.000256191
0.000279447
0.000322822
0.000394026
0.000500716
0.000650424
0.000851135
0.00115774
0.00156964
0.0020094
0.00234272
0.00258423
0.00144321
0.00679403
0.00808197
0.00640942
0.00468923
0.00337576
0.00246438
0.00185351
0.00143626
0.00114492
0.00093628
0.000781667
0.000662821
0.000568784
0.000493614
0.000435018
0.000395358
0.000382973
0.000370498
0.000292089
0.000223685
0.000366024
0.000429516
0.000416165
0.000393216
0.000382034
0.000376224
0.000376849
0.000391542
0.000431458
0.000510649
0.000637355
0.000815752
0.00104626
0.00129209
0.00146149
0.00144257
0.00116973
0.00078518
0.00492035
0.00742865
0.00585209
0.00429152
0.00320116
0.00241488
0.0018479
0.00143731
0.00113465
0.000908023
0.000736843
0.000607352
0.000510615
0.000441383
0.000397622
0.000380657
0.000391066
0.000404602
0.000351831
0.00026982
0.000467736
0.000583919
0.000593364
0.00057789
0.000559096
0.000538681
0.000522967
0.000521912
0.000545223
0.000605667
0.000711713
0.000867517
0.00106615
0.00129512
0.00147797
0.0015779
0.00102884
0.000824731
0.00341513
0.00388845
0.00434984
0.00509589
0.00419026
0.00310232
0.00249611
0.00202831
0.00165952
0.00136612
0.00113589
0.000957095
0.000811181
0.000688923
0.000585612
0.000498924
0.000427877
0.000372412
0.000333072
0.000307011
0.000278491
0.000266668
0.000332508
0.000368338
0.000371709
0.000371186
0.000373751
0.00038073
0.00039549
0.000422867
0.000470136
0.000537319
0.000628708
0.000747447
0.000893903
0.00111038
0.00117125
0.00108565
0.000878137
0.000688414
)
;

boundaryField
{
    floor
    {
        Cmu             0.09;
        kappa           0.41;
        E               9.8;
        type            epsilonWallFunction;
        value           nonuniform List<scalar> 
29
(
0.000273671
6.3019e-05
0.000125993
0.000138622
0.000139594
0.000129472
0.000115202
9.30087e-05
7.41202e-05
5.98576e-05
4.88171e-05
4.00828e-05
3.30854e-05
2.74285e-05
2.2816e-05
1.90054e-05
1.57899e-05
1.30299e-05
1.2356e-05
1.00819e-05
1.00819e-05
2.76631e-05
5.28089e-05
7.6379e-05
0.000273671
6.3019e-05
9.22419e-05
0.000294315
0.000685276
)
;
    }
    ceiling
    {
        Cmu             0.09;
        kappa           0.41;
        E               9.8;
        type            epsilonWallFunction;
        value           nonuniform List<scalar> 
43
(
0.00341513
0.00388845
0.00434984
0.00509589
0.00419026
0.00310232
0.00249611
0.00202831
0.00165952
0.00136612
0.00113589
0.000957095
0.000811181
0.000688923
0.000585612
0.000498924
0.000427877
0.000372412
0.000333072
0.000307011
0.000278491
0.000266668
0.000332508
0.000368338
0.000371709
0.000371186
0.000373751
0.00038073
0.00039549
0.000422867
0.000470136
0.000537319
0.000628708
0.000747447
0.000893903
0.00111038
0.00117125
0.00108565
0.000878137
0.000688414
0.0111993
0.0199947
0.00492035
)
;
    }
    sWall
    {
        Cmu             0.09;
        kappa           0.41;
        E               9.8;
        type            epsilonWallFunction;
        value           uniform 0.00341513;
    }
    nWall
    {
        Cmu             0.09;
        kappa           0.41;
        E               9.8;
        type            epsilonWallFunction;
        value           nonuniform List<scalar> 6(0.000308598 0.000369533 0.00061984 0.00078518 0.000824731 0.000688414);
    }
    sideWalls
    {
        type            empty;
    }
    glass1
    {
        Cmu             0.09;
        kappa           0.41;
        E               9.8;
        type            epsilonWallFunction;
        value           nonuniform List<scalar> 9(0.000135364 0.000569747 0.00138991 0.0027507 0.00472831 0.00739476 0.0108646 0.0119436 0.0111993);
    }
    glass2
    {
        Cmu             0.09;
        kappa           0.41;
        E               9.8;
        type            epsilonWallFunction;
        value           nonuniform List<scalar> 2(0.00189932 0.00144321);
    }
    sun
    {
        Cmu             0.09;
        kappa           0.41;
        E               9.8;
        type            epsilonWallFunction;
        value           nonuniform List<scalar> 
14
(
0.000135364
0.000149296
0.000133356
0.000149113
0.000165026
0.000180197
0.00019471
0.000208914
0.00022338
0.000238976
0.000252754
0.000263621
0.000270867
0.000274672
)
;
    }
    heatsource1
    {
        Cmu             0.09;
        kappa           0.41;
        E               9.8;
        type            epsilonWallFunction;
        value           nonuniform List<scalar> 3(0.000135196 0.000216469 0.000308598);
    }
    heatsource2
    {
        Cmu             0.09;
        kappa           0.41;
        E               9.8;
        type            epsilonWallFunction;
        value           nonuniform List<scalar> 4(0.000343606 0.000106667 0.000106667 0.000454627);
    }
    Table_master
    {
        Cmu             0.09;
        kappa           0.41;
        E               9.8;
        type            epsilonWallFunction;
        value           nonuniform List<scalar> 9(0.000144853 8.00315e-05 4.98132e-05 3.4956e-05 2.66797e-05 2.14294e-05 1.77824e-05 1.51614e-05 1.34678e-05);
    }
    Table_slave
    {
        Cmu             0.09;
        kappa           0.41;
        E               9.8;
        type            epsilonWallFunction;
        value           nonuniform List<scalar> 9(0.00015154 0.000132843 0.000127528 0.000125756 0.000123385 0.00011735 0.000105727 9.28325e-05 7.94292e-05);
    }
    inlet
    {
        type            turbulentMixingLengthDissipationRateInlet;
        mixingLength    0.01;
        phi             phi;
        k               k;
        value           uniform 0.000101881;
    }
    outlet
    {
        type            zeroGradient;
    }
}


// ************************************************************************* //
