/*--------------------------------*- C++ -*----------------------------------*\
  =========                 |
  \\      /  F ield         | OpenFOAM: The Open Source CFD Toolbox
   \\    /   O peration     | Website:  https://openfoam.org
    \\  /    A nd           | Version:  6
     \\/     M anipulation  |
\*---------------------------------------------------------------------------*/
FoamFile
{
    version     2.0;
    format      ascii;
    class       volScalarField;
    location    "300";
    object      epsilon;
}
// * * * * * * * * * * * * * * * * * * * * * * * * * * * * * * * * * * * * * //

dimensions      [0 2 -3 0 0 0 0];

internalField   nonuniform List<scalar> 
459
(
0.0002319
0.000280284
0.000284269
0.000318837
0.000351398
0.000382084
0.000411902
0.000442365
0.000473131
0.000496669
0.000507154
0.000497733
0.000463902
0.000409162
0.000347329
1.26239e-05
1.74333e-05
2.09323e-05
1.848e-05
1.65299e-05
1.65379e-05
1.72205e-05
1.72339e-05
1.63628e-05
1.45087e-05
1.18402e-05
8.98038e-06
6.47242e-06
4.86196e-06
4.64664e-06
6.54804e-06
2.07258e-05
8.27405e-05
4.18293e-05
0.000672594
0.00121955
0.000257814
0.000237341
0.000236935
0.000242255
0.000254374
0.000276032
0.000307277
0.00034049
0.000366504
0.000374542
0.000356986
0.000317414
0.000286934
0.000362399
5.4272e-05
1.85419e-05
5.37046e-05
4.71843e-05
4.78259e-05
4.81379e-05
4.71281e-05
4.73262e-05
4.71631e-05
4.61311e-05
4.30686e-05
3.74659e-05
3.00247e-05
2.19032e-05
1.45419e-05
9.86724e-06
1.01811e-05
3.38003e-05
0.000207149
9.53538e-05
0.00134504
0.00346433
0.000340013
0.000222353
0.000216177
0.000225338
0.000244449
0.000274653
0.000314704
0.000355692
0.000384272
0.000390221
0.000371691
0.000338186
0.000306026
0.000285537
0.000222611
0.000133489
0.000100469
7.30901e-05
5.41822e-05
4.17311e-05
3.44787e-05
5.07208e-05
4.31773e-05
3.76575e-05
3.30303e-05
2.88261e-05
2.46696e-05
2.05545e-05
1.67054e-05
1.35988e-05
1.67363e-05
5.47129e-05
0.000484922
0.000149161
0.00237076
0.00775243
0.000596959
0.000221323
0.000204557
0.000218677
0.000244937
0.000285884
0.0003421
0.0003957
0.000423659
0.000417537
0.000384095
0.000343375
0.000309234
0.000278369
0.00027794
0.000415907
0.000255398
0.000136634
8.4835e-05
5.92845e-05
4.48998e-05
3.80924e-05
7.67498e-05
7.23016e-05
7.58e-05
8.51089e-05
9.82123e-05
0.000111374
0.000118023
0.000110557
9.91237e-05
7.22579e-05
9.78801e-05
0.000658492
0.000209273
0.00387532
0.0144655
0.00128921
0.000245701
0.000191924
0.000207805
0.000244263
0.000308426
0.000404454
0.000482605
0.000508764
0.000482266
0.000422049
0.000360425
0.000307103
0.000245142
0.000182605
0.000153502
0.000111087
8.02548e-05
6.00944e-05
4.86304e-05
4.29925e-05
4.16388e-05
4.61502e-05
5.21263e-05
6.14905e-05
7.51857e-05
9.26116e-05
0.000110445
0.000122146
0.000120478
0.000106763
9.2618e-05
9.59261e-05
0.0002579
0.000401023
0.000420157
0.000320872
0.000282568
0.00603044
0.0219222
0.00316984
0.000414309
0.000209772
0.000202926
0.000241048
0.00035092
0.000529893
0.000631118
0.000642918
0.00058218
0.000484706
0.000395186
0.000324674
0.000244868
0.000162421
0.000107612
7.80984e-05
6.09597e-05
5.06e-05
4.63446e-05
4.6781e-05
5.08674e-05
5.89799e-05
7.17574e-05
9.08521e-05
0.000117766
0.000152076
0.000190024
0.000223569
0.000241733
0.000227638
0.000193981
0.000172638
0.000204386
0.000245284
0.000272877
0.000526473
0.000612183
0.00897278
0.0262545
0.00775558
0.001644
0.000650221
0.000402084
0.00037399
0.00059238
0.000805754
0.000871657
0.000830502
0.000713655
0.000565912
0.000440929
0.000353371
0.000259205
0.00016038
9.47608e-05
6.52612e-05
5.30076e-05
4.85152e-05
4.95501e-05
5.48243e-05
6.40124e-05
7.83629e-05
0.000100144
0.000131877
0.000175408
0.000230754
0.000296435
0.000367905
0.000438441
0.000500721
0.000507328
0.000511807
0.000578084
0.000672108
0.000682788
0.00101287
0.00101907
0.00991949
0.0326042
0.0161944
0.00864183
0.00446896
0.00243325
0.00164029
0.00149258
0.00140316
0.00127155
0.00109256
0.000866569
0.00064018
0.00047528
0.000379601
0.000274003
0.000155921
8.27478e-05
5.9258e-05
5.23404e-05
5.21577e-05
5.65499e-05
6.5158e-05
7.88279e-05
9.95746e-05
0.000130257
0.000173416
0.000231007
0.000304599
0.000396317
0.000510113
0.000655084
0.000851656
0.00113636
0.00151637
0.00208026
0.00278313
0.0028359
0.00568952
0.00128175
0.00945114
0.0171256
0.0139028
0.0103167
0.00734972
0.0051534
0.0037783
0.00286867
0.00223138
0.00175927
0.00136403
0.000978877
0.000660088
0.000469072
0.000390871
0.000275004
0.000134937
8.04852e-05
6.313e-05
5.88415e-05
6.01152e-05
6.53115e-05
7.47198e-05
8.96509e-05
0.000112175
0.000144635
0.000189539
0.000249049
0.000325497
0.00042129
0.000537792
0.000674237
0.000828646
0.00100178
0.00119307
0.0013959
0.00156796
0.0017021
0.00190493
0.00111155
0.00607396
0.0076047
0.00626176
0.00487865
0.00380634
0.00298752
0.00233713
0.00180817
0.00133965
0.000878506
0.000545376
0.000386249
0.000376488
0.000250409
0.000144749
0.000105351
9.13056e-05
8.67139e-05
8.7003e-05
9.08659e-05
9.83673e-05
0.000110413
0.000128579
0.000154964
0.000192096
0.000243049
0.000311381
0.000401061
0.000517205
0.000663405
0.000839582
0.00103429
0.00122389
0.00136736
0.00141644
0.00133907
0.00111918
0.000807428
0.00439192
0.00711724
0.00581735
0.00436285
0.00328214
0.00243549
0.00179924
0.00131417
0.000939925
0.000590033
0.000329061
0.000189145
0.000183026
0.000183892
0.000179909
0.000177141
0.000175726
0.000175816
0.000177491
0.00018075
0.000185597
0.000192191
0.000201021
0.000213121
0.000230283
0.000255324
0.000292718
0.000349089
0.000432449
0.000552736
0.000717057
0.000925822
0.00116378
0.0013828
0.00149067
0.00142742
0.00104151
0.000867552
0.00299176
0.00345181
0.00388398
0.00461812
0.00379548
0.00280185
0.00212139
0.00157621
0.00113219
0.0008509
0.000633319
0.000379395
0.000140344
0.000143684
0.00016625
0.000169847
0.000161872
0.000155549
0.000153335
0.000153862
0.000156296
0.000160224
0.000165488
0.000172051
0.000179905
0.000189096
0.000199978
0.000213862
0.000234095
0.000266988
0.000322403
0.00041109
0.000543267
0.000733529
0.000951816
0.00112828
0.00119291
0.00106259
0.000848618
0.00063959
)
;

boundaryField
{
    floor
    {
        Cmu             0.09;
        kappa           0.41;
        E               9.8;
        type            epsilonWallFunction;
        value           nonuniform List<scalar> 
29
(
0.000347329
1.26239e-05
1.74333e-05
2.09323e-05
1.848e-05
1.65299e-05
1.65379e-05
1.72205e-05
1.72339e-05
1.63628e-05
1.45087e-05
1.18402e-05
8.98038e-06
6.47242e-06
4.86196e-06
4.64664e-06
6.54804e-06
2.07258e-05
8.27405e-05
4.18293e-05
4.18293e-05
9.53538e-05
0.000149161
0.000209273
0.000347329
1.26239e-05
1.85419e-05
0.000133489
0.000415907
)
;
    }
    ceiling
    {
        Cmu             0.09;
        kappa           0.41;
        E               9.8;
        type            epsilonWallFunction;
        value           nonuniform List<scalar> 
43
(
0.00299176
0.00345181
0.00388398
0.00461812
0.00379548
0.00280185
0.00212139
0.00157621
0.00113219
0.0008509
0.000633319
0.000379395
0.000140344
0.000143684
0.00016625
0.000169847
0.000161872
0.000155549
0.000153335
0.000153862
0.000156296
0.000160224
0.000165488
0.000172051
0.000179905
0.000189096
0.000199978
0.000213862
0.000234095
0.000266988
0.000322403
0.00041109
0.000543267
0.000733529
0.000951816
0.00112828
0.00119291
0.00106259
0.000848618
0.00063959
0.00945114
0.0171256
0.00439192
)
;
    }
    sWall
    {
        Cmu             0.09;
        kappa           0.41;
        E               9.8;
        type            epsilonWallFunction;
        value           uniform 0.00299176;
    }
    nWall
    {
        Cmu             0.09;
        kappa           0.41;
        E               9.8;
        type            epsilonWallFunction;
        value           nonuniform List<scalar> 6(0.000282568 0.000612183 0.00101907 0.000807428 0.000867552 0.00063959);
    }
    sideWalls
    {
        type            empty;
    }
    glass1
    {
        Cmu             0.09;
        kappa           0.41;
        E               9.8;
        type            epsilonWallFunction;
        value           nonuniform List<scalar> 9(0.0002319 0.000672594 0.00134504 0.00237076 0.00387532 0.00603044 0.00897278 0.00991949 0.00945114);
    }
    glass2
    {
        Cmu             0.09;
        kappa           0.41;
        E               9.8;
        type            epsilonWallFunction;
        value           nonuniform List<scalar> 2(0.00128175 0.00111155);
    }
    sun
    {
        Cmu             0.09;
        kappa           0.41;
        E               9.8;
        type            epsilonWallFunction;
        value           nonuniform List<scalar> 
14
(
0.0002319
0.000280284
0.000284269
0.000318837
0.000351398
0.000382084
0.000411902
0.000442365
0.000473131
0.000496669
0.000507154
0.000497733
0.000463902
0.000409162
)
;
    }
    heatsource1
    {
        Cmu             0.09;
        kappa           0.41;
        E               9.8;
        type            epsilonWallFunction;
        value           nonuniform List<scalar> 3(0.000420157 0.000320872 0.000282568);
    }
    heatsource2
    {
        Cmu             0.09;
        kappa           0.41;
        E               9.8;
        type            epsilonWallFunction;
        value           nonuniform List<scalar> 4(0.000362399 5.4272e-05 5.4272e-05 0.000222611);
    }
    Table_master
    {
        Cmu             0.09;
        kappa           0.41;
        E               9.8;
        type            epsilonWallFunction;
        value           nonuniform List<scalar> 9(5.07208e-05 4.31773e-05 3.76575e-05 3.30303e-05 2.88261e-05 2.46696e-05 2.05545e-05 1.67054e-05 1.35988e-05);
    }
    Table_slave
    {
        Cmu             0.09;
        kappa           0.41;
        E               9.8;
        type            epsilonWallFunction;
        value           nonuniform List<scalar> 9(7.67498e-05 7.23016e-05 7.58e-05 8.51089e-05 9.82123e-05 0.000111374 0.000118023 0.000110557 9.91237e-05);
    }
    inlet
    {
        type            turbulentMixingLengthDissipationRateInlet;
        mixingLength    0.01;
        phi             phi;
        k               k;
        value           uniform 0.000101881;
    }
    outlet
    {
        type            zeroGradient;
    }
}


// ************************************************************************* //
