/*--------------------------------*- C++ -*----------------------------------*\
  =========                 |
  \\      /  F ield         | OpenFOAM: The Open Source CFD Toolbox
   \\    /   O peration     | Website:  https://openfoam.org
    \\  /    A nd           | Version:  6
     \\/     M anipulation  |
\*---------------------------------------------------------------------------*/
FoamFile
{
    version     2.0;
    format      ascii;
    class       surfaceScalarField;
    location    "300";
    object      phi;
}
// * * * * * * * * * * * * * * * * * * * * * * * * * * * * * * * * * * * * * //

dimensions      [1 0 -1 0 0 0 0];

internalField   nonuniform List<scalar> 
852
(
-0.00290143
0.0029647
-0.00372173
0.000820358
-0.004473
0.000751321
-0.00512446
0.000651525
-0.00563655
0.000512142
-0.00598381
0.000347311
-0.00613905
0.000155298
-0.00607094
-6.80582e-05
-0.00574613
-0.000324752
-0.00515137
-0.000594709
-0.00431079
-0.000840526
-0.00329031
-0.00102043
-0.00219063
-0.00109963
-0.00109822
-0.00109235
-0.00109586
-0.000994779
0.00100132
-0.00099907
4.41748e-06
-0.000784076
-0.000214847
-0.000675767
-0.000108155
-0.000648765
-2.68562e-05
-0.000646921
-1.71075e-06
-0.000636002
-1.07914e-05
-0.000615146
-2.07255e-05
-0.0005832
-3.18107e-05
-0.000538952
-4.4107e-05
-0.000482476
-5.63319e-05
-0.000411913
-7.04179e-05
-0.000329054
-8.27159e-05
-0.000240898
-8.80217e-05
-0.000140394
-0.00010038
8.34134e-07
-0.000141082
0.000197402
-0.000196397
0.000497474
-0.000299873
0.000503102
-0.00209577
0.00523024
-0.00301449
0.00173913
-0.00384766
0.00158455
-0.00451498
0.0013189
-0.00503127
0.00102849
-0.00538676
0.000702849
-0.00555742
0.000326014
-0.00551194
-0.000113482
-0.00522348
-0.000613161
-0.00468648
-0.00113166
-0.00393255
-0.00159441
-0.00302642
-0.00192651
-0.00206914
-0.00205686
-0.001223
-0.00193844
-0.000782956
-0.00153586
-6.99633e-06
-0.000775959
-7.01233e-06
0.000436656
0.000582382
0.000570823
-0.000129673
0.000620336
-0.000264288
0.000633537
-0.000121278
0.000617569
-1.08069e-05
0.000593166
2.27705e-05
0.000560263
2.22024e-05
0.000518889
2.07553e-05
0.000475515
1.16888e-05
0.000436915
-5.36809e-06
0.000406212
-2.548e-05
0.00038107
-4.5122e-05
0.000362093
-6.35863e-05
0.000355378
-8.11677e-05
0.000351937
-9.68204e-05
0.000299831
-8.88527e-05
0.000286725
-0.000183149
0.000282035
-0.000294989
0.000798721
-0.00150535
0.00699379
-0.00237025
0.00260409
-0.00315131
0.00236566
-0.00375199
0.00191964
-0.00422865
0.0015052
-0.00457254
0.0010468
-0.00475378
0.0005073
-0.004733
-0.000134209
-0.00447641
-0.000869705
-0.0039888
-0.00161922
-0.0033148
-0.00226837
-0.00251896
-0.00272231
-0.00169649
-0.00287929
-0.00096983
-0.00266505
-0.000432821
-0.00207282
-2.19441e-05
-0.00118679
-2.89108e-05
0.00147461
-0.00087596
0.00174115
-0.000396181
0.00159627
-0.000119378
0.0014957
-2.06826e-05
0.00146426
2.06572e-05
0.00148546
1.62348e-06
0.00150787
0.00152885
0.00154077
0.00153566
0.00151044
0.00146559
0.00140229
0.00132141
0.0012249
0.00087334
0.000262885
0.000464863
0.00022551
5.10369e-05
0.000119064
0.000869824
-0.00109095
0.00841659
-0.00185323
0.00336642
-0.00241864
0.00293114
-0.00286785
0.0023689
-0.00324973
0.00188713
-0.00354537
0.0013425
-0.00371657
0.000678545
-0.00370765
-0.00014307
-0.00347048
-0.00110683
-0.00303282
-0.00205683
-0.00245973
-0.00284142
-0.00180752
-0.00337448
-0.0011513
-0.00353547
-0.000565057
-0.00325125
-7.58471e-05
-0.00256198
0.000384389
-0.00164698
0.00115377
-0.000798251
0.00162801
-0.000461247
0.00115845
-0.00040635
0.00115128
-0.000388973
0.00119454
-0.000162597
0.00121416
-4.02559e-05
0.00124473
-9.85966e-06
0.00126445
-1.80204e-05
0.00130295
-3.85904e-05
0.00138455
-8.16818e-05
0.0015083
-0.000123834
0.00167379
-0.000165579
0.00187353
-0.000199824
0.00208286
-0.000209407
0.00224621
-0.000163431
0.00226615
-2.00229e-05
0.00202223
0.000243835
0.00165799
0.000627187
0.000793511
0.00109004
-0.00037163
0.00128454
0.000523269
-0.000782156
0.00959196
-0.00143528
0.0040196
-0.00164983
0.00314575
-0.00189152
0.00261065
-0.00213113
0.0021268
-0.0023315
0.00154293
-0.00245526
0.000802357
-0.00242538
-0.00017289
-0.00218296
-0.0013492
-0.0018045
-0.00243525
-0.00136666
-0.00327923
-0.000903211
-0.00383789
-0.000462875
-0.00397576
-8.73525e-05
-0.00362673
0.000222352
-0.00287165
0.000521691
-0.00194628
0.000852112
-0.00112863
0.00100962
-0.000618711
0.00100966
-0.000406348
0.000909888
-0.000289162
0.000879559
-0.000132227
0.000874286
-3.49405e-05
0.000877411
-1.29384e-05
0.000892224
-3.27828e-05
0.000930167
-7.64821e-05
0.000989944
-0.000141407
0.00108294
-0.000216779
0.00121558
-0.000298167
0.00139007
-0.000374259
0.00159845
-0.000417741
0.0018148
-0.000379737
0.00199166
-0.000196839
0.00207547
0.000160071
0.00207294
0.000629773
0.00208089
0.00108215
0.00210408
0.00126149
0.00173021
0.000897222
0.0012193
0.0005108
0.000310533
0.000908663
0.000368381
-0.000672152
0.0107085
-0.00118348
0.00453099
-0.000882129
0.00284445
-0.000853941
0.00258252
-0.000937167
0.00221009
-0.00100992
0.00161574
-0.00102861
0.000821101
-0.000904465
-0.000296973
-0.000643228
-0.00161038
-0.0003558
-0.00272263
-9.36358e-05
-0.00354136
0.000135413
-0.00406691
0.000318759
-0.00415907
0.000438494
-0.00374642
0.000520581
-0.00295369
0.000592016
-0.00201767
0.000652651
-0.00118923
0.000663313
-0.000629337
0.000606678
-0.000349678
0.000510678
-0.000193127
0.000457769
-7.92836e-05
0.000440933
-1.80691e-05
0.000438662
-1.0631e-05
0.000444739
-3.88225e-05
0.00046016
-9.18651e-05
0.000487459
-0.000168669
0.000538027
-0.000267312
0.000624564
-0.000384673
0.000757908
-0.000507578
0.000945286
-0.000605101
0.00118836
-0.000622793
0.00148235
-0.000490818
0.00179024
-0.000147796
0.00207807
0.000341982
0.00239572
0.000764546
0.00270359
0.000953662
0.00277612
0.000824722
0.00253133
0.000755609
0.00201138
0.00142863
0.00243751
-0.00091124
0.0121079
-0.00087566
0.00449546
7.30883e-05
0.00189576
0.000349892
0.00230577
0.00037776
0.00218228
0.000431354
0.0015622
0.000613548
0.000638967
0.000889719
-0.000573082
0.00112387
-0.00184448
0.00124867
-0.00284739
0.00126962
-0.00356227
0.00122061
-0.00401787
0.00111899
-0.0040574
0.000958393
-0.00358579
0.000763345
-0.0027586
0.000567471
-0.00182176
0.000393652
-0.00101538
0.000252671
-0.000488328
0.000137045
-0.000234027
4.83919e-05
-0.000104449
-1.24628e-06
-2.96212e-05
-2.3926e-05
4.6344e-06
-3.91134e-05
4.58027e-06
-5.73455e-05
-2.05664e-05
-7.9969e-05
-6.92187e-05
-0.000102502
-0.000146116
-0.000113998
-0.000255803
-0.000101386
-0.000397281
-5.17099e-05
-0.00055726
4.89912e-05
-0.000705814
0.000218969
-0.000792784
0.000484212
-0.000756068
0.000874565
-0.000538146
0.00133321
-0.000116643
0.00179551
0.000302273
0.00222166
0.000527538
0.00254844
0.000497957
0.00279613
0.000507936
0.00249135
0.00173342
0.00498787
0.00244883
0.0102016
0.00297559
0.00396875
0.00275744
0.00211396
0.0026311
0.00243218
0.00251866
0.00229477
0.00255236
0.00152856
0.00281241
0.00037898
0.00309001
-0.000850614
0.00311878
-0.0018732
0.00292383
-0.0026524
0.00259278
-0.00323119
0.00222526
-0.00365031
0.00181991
-0.00365201
0.0013445
-0.00311033
0.000840753
-0.00225482
0.000375364
-0.00135634
8.76882e-06
-0.000648759
-0.000211611
-0.000267931
-0.000337735
-0.000107888
-0.000414774
-2.7397e-05
-0.000462866
1.84836e-05
-0.000498039
3.98192e-05
-0.000535191
4.1743e-05
-0.000583269
2.75191e-05
-0.00064637
-6.11398e-06
-0.000723022
-6.94688e-05
-0.000807614
-0.000171225
-0.000895928
-0.00030899
-0.000984202
-0.000469016
-0.00106511
-0.000624939
-0.00111764
-0.000740282
-0.00110118
-0.000772544
-0.00095745
-0.000681887
-0.000630842
-0.000443244
-0.000263641
-6.49044e-05
-4.53404e-05
0.000309263
-1.07354e-05
0.000463383
6.34597e-06
0.000490901
-0.000255588
0.00199534
0.00505172
0.0107979
0.0147621
0.0120603
0.00481577
0.0101674
0.00432513
0.00874511
0.00371713
0.0078563
0.00241743
0.0071424
0.00109294
0.00632825
-3.64173e-05
0.00539891
-0.000943829
0.00443743
-0.00169089
0.00354649
-0.00234022
0.00283814
-0.00294193
0.00216391
-0.00297773
0.00138897
-0.00233535
0.000591551
-0.00145737
-7.59936e-05
-0.000688775
-0.000481005
-0.000243735
-0.000674446
-7.44834e-05
-0.000780235
-2.09502e-06
-0.00084455
3.69196e-05
-0.000888438
6.23718e-05
-0.000928833
8.02137e-05
-0.00097849
9.13967e-05
-0.00104456
9.35826e-05
-0.00113136
8.06691e-05
-0.00124538
4.45184e-05
-0.00139756
-1.90737e-05
-0.00160075
-0.00010584
-0.00187245
-0.000197364
-0.00223378
-0.000263656
-0.00270262
-0.000271483
-0.00328735
-0.00018785
-0.00397771
8.42974e-06
-0.00475551
0.000334528
-0.00560326
0.000782808
-0.00659946
0.00130544
-0.00795484
0.00181872
-0.00953438
0.0020704
-0.00862446
0.00108536
-0.00322771
0.00558334
0.00571619
0.00501096
0.00489753
0.00572787
0.00300024
0.00599934
0.00214598
0.0058311
0.0012612
0.00540596
0.000388754
0.00475669
-0.000294537
0.00393867
-0.000872851
0.00311439
-0.00151593
0.0025034
-0.00233089
0.00177563
-0.00224991
0.000825274
-0.00138497
-0.000128635
-0.000503432
-0.000715785
-0.000101616
-0.000975203
1.56854e-05
-0.00109568
4.59906e-05
-0.00115351
5.57283e-05
-0.00118232
6.57166e-05
-0.00119813
7.8179e-05
-0.00121004
9.21131e-05
-0.00122448
0.000105818
-0.00124743
0.000116513
-0.00128647
0.000119682
-0.00135165
0.000109668
-0.00145309
8.23114e-05
-0.00159868
3.96934e-05
-0.00178898
-7.1232e-06
-0.00201822
-3.44872e-05
-0.00227608
-1.36806e-05
-0.00255253
8.85414e-05
-0.00284812
0.000303963
-0.0031476
0.000633959
-0.00340264
0.0010378
-0.0035457
0.00144845
-0.00347706
0.00175005
-0.00289633
0.00148962
-0.00130871
-0.000502325
-0.0044551
-0.000495551
0.00625585
0.0016357
0.00276628
0.00264993
0.00198603
0.00326331
0.00153262
0.00359991
0.00092463
0.00358216
0.000406523
0.0032756
1.20447e-05
0.00276664
-0.000363865
0.00213731
-0.000886576
0.00151446
-0.00170796
0.000463926
-0.00119931
-0.000512457
-0.000408567
-0.0011213
0.000105415
-0.0013424
0.000119478
-0.00140675
8.00351e-05
-0.00141224
5.1461e-05
-0.00140027
4.3748e-05
-0.00137906
4.44876e-05
-0.00135051
4.96092e-05
-0.00131576
5.73541e-05
-0.00127664
6.66711e-05
-0.00123643
7.6289e-05
-0.00120061
8.38374e-05
-0.00117657
8.55965e-05
-0.00117191
7.76017e-05
-0.00119106
5.8795e-05
-0.00123353
3.52858e-05
-0.00128819
2.01054e-05
-0.00134354
4.15975e-05
-0.0013739
0.000118826
-0.0013457
0.000275693
-0.00123395
0.000522139
-0.000971986
0.000775773
-0.000481482
0.00095788
0.000302022
0.000966478
0.00133597
0.000455604
0.00155578
-0.000722215
-0.00281061
-0.00905999
-0.0115814
-0.00528588
-0.00249517
-0.000489088
0.00106118
0.00200326
0.00242794
0.00245942
0.00211616
0.00125138
-0.000435093
-0.00162019
-0.00201606
-0.0018986
-0.00176736
-0.0016756
-0.0016124
-0.0015569
-0.00150068
-0.00143938
-0.0013704
-0.00129218
-0.00120443
-0.00110924
-0.00101239
-0.000923654
-0.000853841
-0.000807689
-0.000776925
-0.000724954
-0.000596109
-0.00031079
0.00022056
0.00100512
0.00197146
0.00294623
0.00341022
0.00269668
)
;

boundaryField
{
    floor
    {
        type            calculated;
        value           nonuniform List<scalar> 
29
(
0
0
0
0
0
0
0
0
0
0
0
0
0
0
0
0
0
0
0
0
-5.43081e-06
-1.33965e-05
-1.98924e-05
-2.48665e-05
-2.30935e-06
-6.44182e-06
-1.76453e-05
-1.62209e-05
-1.29442e-05
)
;
    }
    ceiling
    {
        type            calculated;
        value           nonuniform List<scalar> 
43
(
-4.21354e-05
-4.09529e-05
-3.9697e-05
-2.43969e-05
-2.0019e-05
-1.76284e-05
-1.74227e-05
-1.81292e-05
-1.94138e-05
-2.05744e-05
-2.17631e-05
-2.13236e-05
-1.41854e-05
-1.27155e-05
-1.20573e-05
-1.17724e-05
-1.17424e-05
-1.17659e-05
-1.17705e-05
-1.17513e-05
-1.17097e-05
-1.16481e-05
-1.15697e-05
-1.14779e-05
-1.13771e-05
-1.12717e-05
-1.11633e-05
-1.1046e-05
-1.09019e-05
-1.07051e-05
-1.04334e-05
-1.00935e-05
-9.71034e-06
-9.29814e-06
-8.87777e-06
-8.54746e-06
-8.37765e-06
-8.48232e-06
-8.76884e-06
-8.59708e-06
7.59825e-06
4.63967e-06
-4.40976e-05
)
;
    }
    sWall
    {
        type            calculated;
        value           uniform -0.000248608;
    }
    nWall
    {
        type            calculated;
        value           nonuniform List<scalar> 6(-5.78591e-05 -5.76479e-05 -5.89197e-05 -8.1417e-05 -8.88101e-05 -0.000105435);
    }
    sideWalls
    {
        type            empty;
        value           nonuniform 0();
    }
    glass1
    {
        type            calculated;
        value           nonuniform List<scalar> 9(-6.32196e-05 -0.00016971 -0.000258154 -0.000331804 -0.00039316 -0.000444388 -0.000488074 -0.000542491 -0.000603882);
    }
    glass2
    {
        type            calculated;
        value           nonuniform List<scalar> 2(-0.000319346 -0.000345122);
    }
    sun
    {
        type            calculated;
        value           uniform 0;
    }
    heatsource1
    {
        type            calculated;
        value           nonuniform List<scalar> 3(2.05618e-07 2.05866e-07 2.06221e-07);
    }
    heatsource2
    {
        type            calculated;
        value           nonuniform List<scalar> 4(5.13606e-08 5.15131e-08 0 0);
    }
    Table_master
    {
        type            calculated;
        value           nonuniform List<scalar> 9(-1.54263e-07 -1.54311e-07 -1.54354e-07 -1.54402e-07 -1.54454e-07 -1.54514e-07 -1.5458e-07 -1.54652e-07 -1.54728e-07);
    }
    Table_slave
    {
        type            calculated;
        value           nonuniform List<scalar> 9(1.54032e-07 1.54018e-07 1.53967e-07 1.53898e-07 1.53816e-07 1.53733e-07 1.53672e-07 1.5367e-07 1.53685e-07);
    }
    inlet
    {
        type            calculated;
        value           uniform -0.00648377;
    }
    outlet
    {
        type            calculated;
        value           nonuniform List<scalar> 2(0.00935075 0.00256242);
    }
}


// ************************************************************************* //
