/*--------------------------------*- C++ -*----------------------------------*\
  =========                 |
  \\      /  F ield         | OpenFOAM: The Open Source CFD Toolbox
   \\    /   O peration     | Website:  https://openfoam.org
    \\  /    A nd           | Version:  6
     \\/     M anipulation  |
\*---------------------------------------------------------------------------*/
FoamFile
{
    version     2.0;
    format      ascii;
    class       surfaceScalarField;
    location    "700";
    object      phi;
}
// * * * * * * * * * * * * * * * * * * * * * * * * * * * * * * * * * * * * * //

dimensions      [1 0 -1 0 0 0 0];

internalField   nonuniform List<scalar> 
852
(
-0.0032069
0.00326083
-0.00455436
0.0013473
-0.00533294
0.000778432
-0.00562109
0.000287991
-0.00535751
-0.000263724
-0.00448971
-0.000867947
-0.00309016
-0.00139969
-0.00138573
-0.00170457
0.000302281
-0.00168816
0.00156854
-0.00126641
0.00239551
-0.000827122
0.0027708
-0.000375443
0.00266329
0.00010735
0.00193365
0.000729482
0.00193499
-0.000896129
0.000897496
-0.00125321
0.000356928
-0.00117082
-8.25664e-05
-0.000761207
-0.000409798
-0.000238514
-0.000522891
0.000301571
-0.00054028
0.000686951
-0.000385586
0.000863147
-0.000176388
0.00088665
-2.36333e-05
0.000806448
8.0166e-05
0.000669674
0.000136823
0.000521086
0.000148689
0.000393537
0.000127662
0.000297198
9.6429e-05
0.000217081
8.018e-05
0.00016211
5.50176e-05
0.000234504
-7.23473e-05
0.000328954
-9.43749e-05
0.000331394
-0.00230317
0.00571138
-0.00350972
0.00255369
-0.00429604
0.0015646
-0.00461178
0.000603583
-0.00438673
-0.000488918
-0.00360068
-0.00165414
-0.00239134
-0.00260916
-0.00102283
-0.00307321
0.000238437
-0.00294958
0.0012789
-0.00230702
0.00199709
-0.00154546
0.00240377
-0.000782272
0.00253134
-2.03808e-05
0.00250809
0.000752571
0.00295548
0.00148743
0.00147857
0.00147669
0.00147835
-0.000362231
0.00126408
-0.000350969
0.000345532
-7.66168e-05
-0.000357084
0.000257246
-0.000743853
0.000549283
-0.00081512
0.000757297
-0.000748491
0.000825905
-0.000454399
0.00087108
-0.000221771
0.000922731
-7.5477e-05
0.000963414
3.93337e-05
0.000991821
0.000108317
0.00101282
0.000127628
0.00102183
0.000118603
0.00100772
0.000110492
0.000928005
0.000159854
0.00062558
0.000357411
3.80117e-05
0.000515266
-0.000395051
0.00033869
-5.83335e-05
-0.00161517
0.00755421
-0.00260403
0.00354239
-0.00330601
0.00226642
-0.00359304
0.000890466
-0.00335857
-0.000723531
-0.00259371
-0.00241913
-0.00152395
-0.00367904
-0.000424906
-0.00417239
0.000519669
-0.0038943
0.00130278
-0.00309029
0.00186925
-0.00211209
0.00221665
-0.00112983
0.00239708
-0.000200976
0.00247711
0.000672381
0.00247289
0.00149149
0.00183784
0.00211157
0.003316
0.0004919
0.000779451
0.00094369
-0.000106444
0.00122535
-0.00063893
0.00137421
-0.0008929
0.00146009
-0.000901191
0.00150143
-0.000790026
0.00104699
0.00082517
0.000749656
0.000788976
0.000897306
0.00102496
0.00114361
0.00125415
0.00141406
0.00122634
0.000545049
0.0010257
0.00071586
0.000633208
0.000731128
0.000581965
-0.00111415
0.00896563
-0.00184941
0.00427748
-0.00232407
0.00274091
-0.00247977
0.001046
-0.00211978
-0.00108367
-0.00133623
-0.0032028
-0.000437065
-0.00457831
0.000356405
-0.00496598
0.00100062
-0.00453865
0.00151668
-0.00360651
0.00187938
-0.00247495
0.00209834
-0.00134895
0.00222393
-0.000326723
0.00231597
0.000580171
0.00244358
0.00136371
0.00265964
0.00189535
0.00379842
0.00217704
0.00262161
0.00118436
0.00280303
0.000597824
0.00272749
-3.11142e-05
0.0025884
-0.00050003
0.00243109
-0.000735784
0.00228022
-0.000750496
0.0020906
-0.000600571
0.00235751
-0.000267233
0.00246377
-0.000106576
0.00249552
-3.20575e-05
0.0024761
1.90986e-05
0.00241378
6.20089e-05
0.00231298
0.00010049
0.00216868
0.000143994
0.00195764
0.000210734
0.0016249
0.000332441
0.00154741
0.00062241
0.00137326
0.00088991
0.00100174
0.00110255
0.00159282
-0.000759507
0.0100824
-0.00126981
0.00478762
-0.00136633
0.00283725
-0.00119627
0.000875787
-0.000545808
-0.00173429
0.000211522
-0.00396024
0.000834418
-0.0052013
0.00127638
-0.00540805
0.0015854
-0.00484782
0.00178427
-0.00380555
0.00188081
-0.00257167
0.00190661
-0.00137493
0.00191983
-0.00034012
0.0019878
0.000512028
0.00218269
0.00116865
0.00250944
0.00156843
0.00298043
0.00170588
0.00298324
0.00118137
0.00304812
0.000532757
0.0029907
2.61222e-05
0.00281148
-0.000320987
0.00257005
-0.00049452
0.00232477
-0.000505378
0.00211651
-0.000392462
0.00204701
-0.000197892
0.00197878
-3.85012e-05
0.00188637
6.02004e-05
0.00178443
0.000120878
0.00168407
0.000162215
0.0015886
0.000195804
0.00149959
0.00023285
0.00142051
0.00028967
0.00136315
0.000389659
0.00140387
0.000581549
0.00148512
0.000808515
0.00155687
0.00103067
0.00208744
0.00106213
0.00151982
0.000567302
0.000869695
0.000649831
0.000911124
-0.000598494
0.0110897
-0.000870747
0.0050597
-0.00037876
0.00234509
0.000447543
4.93098e-05
0.0013556
-0.00264248
0.00194421
-0.00454894
0.00222301
-0.00548018
0.00227449
-0.00545964
0.00216688
-0.00474035
0.00196712
-0.00360597
0.00172766
-0.00233241
0.00150208
-0.00114954
0.00135344
-0.00019167
0.00134321
0.000522077
0.00149747
0.00101421
0.00177543
0.00129029
0.00215423
0.0013269
0.00238759
0.000947823
0.00244062
0.000479551
0.00236407
0.000102505
0.00218843
-0.000145507
0.0019554
-0.000261653
0.00171062
-0.000260764
0.00149056
-0.000172556
0.00132557
-3.30715e-05
0.0011961
9.08048e-05
0.0010874
0.000168739
0.000995475
0.000212642
0.000920449
0.000237083
0.00086615
0.00024995
0.000841314
0.000257537
0.000861839
0.000269
0.000949294
0.000302058
0.00113943
0.00039126
0.00142654
0.000521258
0.00179607
0.000660992
0.00215435
0.00070371
0.00208585
0.000635668
0.00149274
0.00124283
0.00244386
-0.000441412
0.0119887
-7.10248e-05
0.00468914
0.00149273
0.000781154
0.00278539
-0.00124353
0.00354593
-0.00340314
0.00382861
-0.00483169
0.0036666
-0.00531824
0.00318912
-0.00498227
0.00254818
-0.00409958
0.00186874
-0.00292674
0.00124663
-0.00171053
0.000754151
-0.000657283
0.00047223
9.00431e-05
0.000431261
0.000562852
0.000585876
0.000859405
0.000861457
0.00101453
0.00119345
0.000994733
0.00140453
0.000736559
0.00145589
0.00042802
0.00138541
0.000172815
0.00122925
1.04705e-05
0.00102315
-5.57296e-05
0.000801717
-3.95046e-05
0.000597117
3.18622e-05
0.000440334
0.000123529
0.000332998
0.000197959
0.000256282
0.000245278
0.000198792
0.00026996
0.000158373
0.000277336
0.000138808
0.000269357
0.000150548
0.000245647
0.000212482
0.000206918
0.00034911
0.00016528
0.000582061
0.000158153
0.000895266
0.000207892
0.00127112
0.000284981
0.00167668
0.000297991
0.00194756
0.000364645
0.00166368
0.00152659
0.00414731
0.00313654
0.00936595
0.00414863
0.00367688
0.00489742
3.21861e-05
0.00590553
-0.00225177
0.00622982
-0.00372748
0.00582243
-0.00442433
0.00489285
-0.00438873
0.00366799
-0.00375753
0.00238321
-0.002815
0.0012037
-0.00174748
0.000246856
-0.000753933
-0.000357137
-5.35256e-05
-0.000596409
0.0003291
-0.000574425
0.000540662
-0.000400404
0.000685185
-0.000141392
0.000755323
0.00012996
0.000723192
0.000294978
0.000571355
0.000331193
0.000391622
0.00026206
0.000241763
0.000124871
0.000147467
-4.33191e-05
0.000112263
-0.000209304
0.000126274
-0.000344266
0.000166617
-0.000436105
0.00021516
-0.000494422
0.000256072
-0.00053255
0.000283208
-0.000560199
0.000297421
-0.000583688
0.000300648
-0.000608716
0.000294217
-0.000643758
0.000280529
-0.000704869
0.00026787
-0.00081687
0.000277117
-0.00100182
0.000342939
-0.001286
0.000491918
-0.00170801
0.000706864
-0.00233099
0.000920844
-0.00309877
0.00113229
-0.00300909
0.00143678
0.00133342
0.00993187
0.0136016
0.0120139
0.00161974
0.0106665
-0.000904451
0.00899906
-0.00206
0.00704516
-0.00247045
0.00496477
-0.00230844
0.0029003
-0.00169326
0.00105082
-0.000965785
-0.000379853
-0.000317105
-0.00124555
0.000111503
-0.00159173
0.000292404
-0.00164779
0.000384928
-0.00156256
0.000455209
-0.00139099
0.0005134
-0.00117836
0.000542486
-0.000978195
0.000522819
-0.000855814
0.000448767
-0.000823005
0.000358603
-0.000862787
0.000281327
-0.000946217
0.000230673
-0.0010435
0.000209313
-0.0011297
0.000212232
-0.00119234
0.000229015
-0.0012286
0.000251189
-0.00124497
0.000272207
-0.00125159
0.000289601
-0.00125885
0.000304477
-0.0012784
0.00031999
-0.00132542
0.000341054
-0.00141983
0.000374763
-0.00158356
0.000431428
-0.00183418
0.00052758
-0.00218009
0.00068871
-0.00263278
0.000944465
-0.00323979
0.0013137
-0.00407603
0.00175682
-0.00498561
0.00204144
-0.00462136
0.00107191
-0.00312614
0.00528678
0.00316705
0.00378272
0.000599708
0.00313554
-0.00141287
0.00199643
-0.00133151
0.000509152
-0.000821428
-0.000923115
-0.000261319
-0.00196831
7.91152e-05
-0.00252626
0.000240564
-0.00271731
0.000302282
-0.0027334
0.000308232
-0.00266151
0.000312784
-0.00253616
0.000329611
-0.00237707
0.000354075
-0.00220708
0.000372254
-0.00205544
0.000370938
-0.00195263
0.000345708
-0.00190347
0.000309186
-0.00189614
0.00027374
-0.00191242
0.000246683
-0.00193438
0.000230989
-0.0019485
0.000226075
-0.00194869
0.000228926
-0.00193434
0.000236558
-0.00190885
0.000246443
-0.00187712
0.000257608
-0.00184385
0.000270952
-0.00181319
0.000289092
-0.00178868
0.000316305
-0.00177272
0.000358588
-0.00176581
0.000424307
-0.00176439
0.00052596
-0.00175701
0.00068115
-0.00172321
0.000910492
-0.0016417
0.00123201
-0.00135801
0.0014729
-0.000434537
0.00111764
0.000484055
0.000152772
-0.00260714
0.000313862
0.00292957
0.000404233
0.000509307
-0.00101058
1.8045e-06
-0.00234071
-1.64152e-06
-0.00327813
0.000115706
-0.0037586
0.000218842
-0.00393264
0.000252849
-0.00394089
0.000248522
-0.00386508
0.000226183
-0.00375714
0.000200004
-0.00363063
0.000185993
-0.00348822
0.000186915
-0.00333246
0.000198032
-0.0031717
0.000211211
-0.00301986
0.000218809
-0.00289143
0.000216986
-0.00279093
0.000208381
-0.00271436
0.000196861
-0.00265358
0.000185583
-0.00259971
0.000176789
-0.00254556
0.000171599
-0.00248702
0.000170068
-0.00242257
0.00017178
-0.00235246
0.000176006
-0.00227744
0.000182281
-0.00219757
0.000190769
-0.00211117
0.000202387
-0.00201399
0.000218834
-0.00189829
0.000242602
-0.00175162
0.000277363
-0.00155508
0.000329159
-0.00127951
0.000405336
-0.000866096
0.000496845
-0.000179675
0.000545369
0.000789091
0.000503876
0.00172796
0.000178469
0.00235924
-0.000478875
-0.000211899
-0.00678852
-0.00940811
-0.00645382
-0.00594563
-0.00595441
-0.00597108
-0.00587348
-0.00567536
-0.00544538
-0.0052213
-0.00502067
-0.00484701
-0.00468793
-0.00452843
-0.00435828
-0.00417548
-0.00398571
-0.00379845
-0.00362054
-0.00345487
-0.00330112
-0.00315674
-0.00301802
-0.00288121
-0.00274301
-0.00260087
-0.00245271
-0.00229631
-0.00212855
-0.00194461
-0.00173714
-0.00149512
-0.00120149
-0.000831827
-0.000370846
0.000138128
0.000603971
0.000741928
0.000220341
)
;

boundaryField
{
    floor
    {
        type            calculated;
        value           nonuniform List<scalar> 
29
(
0
0
0
0
0
0
0
0
0
0
0
0
0
0
0
0
0
0
0
0
-2.31776e-06
-5.42449e-06
-7.12882e-06
-9.20061e-06
-1.50716e-06
-1.5019e-06
-4.47015e-06
-7.39438e-06
-7.72066e-06
)
;
    }
    ceiling
    {
        type            calculated;
        value           nonuniform List<scalar> 
43
(
-2.61489e-05
-2.58057e-05
-2.51079e-05
7.98208e-07
1.02715e-05
1.47138e-05
1.77804e-05
2.03938e-05
2.25393e-05
2.41148e-05
2.52259e-05
2.60099e-05
2.6589e-05
2.70708e-05
2.75438e-05
2.80713e-05
2.86845e-05
2.93765e-05
3.01043e-05
3.08153e-05
3.14655e-05
3.2028e-05
3.24956e-05
3.28785e-05
3.31975e-05
3.3477e-05
3.37382e-05
3.39957e-05
3.42561e-05
3.4517e-05
3.47683e-05
3.49939e-05
3.5179e-05
3.53299e-05
3.55306e-05
3.60643e-05
3.76745e-05
4.0101e-05
4.22477e-05
4.4735e-05
9.66597e-06
6.99156e-06
-7.63565e-05
)
;
    }
    sWall
    {
        type            calculated;
        value           uniform -0.000248155;
    }
    nWall
    {
        type            calculated;
        value           nonuniform List<scalar> 6(-4.1686e-05 -4.00706e-05 -3.98598e-05 -3.53308e-05 -3.63693e-05 -3.67525e-05);
    }
    sideWalls
    {
        type            empty;
        value           nonuniform 0();
    }
    glass1
    {
        type            calculated;
        value           nonuniform List<scalar> 9(-5.40909e-05 -0.000147536 -0.000227823 -0.000297415 -0.000357448 -0.000408962 -0.00045772 -0.000513912 -0.000575729);
    }
    glass2
    {
        type            calculated;
        value           nonuniform List<scalar> 2(-0.000195319 -0.000162577);
    }
    sun
    {
        type            calculated;
        value           uniform 0;
    }
    heatsource1
    {
        type            calculated;
        value           nonuniform List<scalar> 3(2.02478e-07 2.02698e-07 2.02933e-07);
    }
    heatsource2
    {
        type            calculated;
        value           nonuniform List<scalar> 4(5.08418e-08 5.10291e-08 0 0);
    }
    Table_master
    {
        type            calculated;
        value           nonuniform List<scalar> 9(-1.52422e-07 -1.52567e-07 -1.52583e-07 -1.52538e-07 -1.52458e-07 -1.52386e-07 -1.52326e-07 -1.52274e-07 -1.5221e-07);
    }
    Table_slave
    {
        type            calculated;
        value           nonuniform List<scalar> 9(1.52056e-07 1.52035e-07 1.51991e-07 1.51959e-07 1.51934e-07 1.51925e-07 1.51932e-07 1.51957e-07 1.52007e-07);
    }
    inlet
    {
        type            calculated;
        value           uniform -0.006834;
    }
    outlet
    {
        type            calculated;
        value           nonuniform List<scalar> 2(0.00706243 0.002645);
    }
}


// ************************************************************************* //
