/*--------------------------------*- C++ -*----------------------------------*\
  =========                 |
  \\      /  F ield         | OpenFOAM: The Open Source CFD Toolbox
   \\    /   O peration     | Website:  https://openfoam.org
    \\  /    A nd           | Version:  6
     \\/     M anipulation  |
\*---------------------------------------------------------------------------*/
FoamFile
{
    version     2.0;
    format      ascii;
    class       volScalarField;
    location    "1300";
    object      epsilon;
}
// * * * * * * * * * * * * * * * * * * * * * * * * * * * * * * * * * * * * * //

dimensions      [0 2 -3 0 0 0 0];

internalField   nonuniform List<scalar> 
459
(
0.00043282
0.000561279
0.000594378
0.000683906
0.000774654
0.00086753
0.000967262
0.00106786
0.00114136
0.00116832
0.00113262
0.00102911
0.000866434
0.00066961
0.000480305
3.51672e-05
5.91852e-05
8.55206e-05
8.88663e-05
8.15479e-05
7.16242e-05
5.90113e-05
4.7753e-05
3.88603e-05
3.19892e-05
2.66524e-05
2.24614e-05
1.91315e-05
1.64563e-05
1.42385e-05
1.23126e-05
1.05315e-05
9.57281e-06
7.40331e-06
0.00108966
0.00158999
0.000527529
0.000511327
0.000535065
0.000576552
0.000640294
0.000723519
0.000801552
0.000848011
0.00084294
0.000781946
0.000674378
0.000543155
0.000435398
0.000508066
0.000128773
3.93949e-05
9.19669e-05
0.000104076
9.82258e-05
8.61735e-05
7.383e-05
6.77708e-05
5.46364e-05
4.2939e-05
3.37496e-05
2.67324e-05
2.13968e-05
1.73255e-05
1.42336e-05
1.19555e-05
1.05237e-05
9.88769e-06
2.60651e-05
1.7553e-05
0.00198096
0.00389699
0.000646591
0.000485053
0.000507755
0.000571415
0.000667957
0.000788903
0.000897516
0.00095941
0.000958046
0.000896305
0.00078606
0.000653727
0.00053364
0.000473718
0.000569374
0.000252787
0.000203276
0.000164143
0.000133062
0.00010834
9.3182e-05
0.000170442
0.000117273
8.33205e-05
6.11807e-05
4.63297e-05
3.6077e-05
2.8816e-05
2.3591e-05
1.98412e-05
1.51087e-05
1.27074e-05
5.04764e-05
2.83027e-05
0.00320247
0.00809653
0.00101596
0.000487573
0.000494037
0.000584036
0.000730838
0.000910502
0.00104656
0.00110876
0.00109468
0.00101695
0.000885291
0.000735317
0.000604299
0.00051969
0.000501055
0.000904299
0.000525341
0.000324652
0.000222405
0.00016362
0.000126703
0.000109177
0.000248294
0.000188724
0.000152455
0.000128174
0.000109694
9.42482e-05
8.08394e-05
6.81806e-05
5.52473e-05
3.28318e-05
2.14798e-05
8.65352e-05
3.93306e-05
0.00488238
0.0144746
0.00200309
0.000568927
0.000498149
0.000620119
0.000888083
0.00115086
0.00129125
0.00132761
0.00127992
0.00116618
0.00100127
0.000812849
0.000633269
0.000488386
0.000391222
0.000351525
0.000290024
0.000234074
0.000188864
0.000153008
0.000124755
0.000104676
0.000100171
9.27938e-05
8.57755e-05
7.89835e-05
7.19068e-05
6.43648e-05
5.68168e-05
4.96397e-05
4.30766e-05
3.44384e-05
2.67224e-05
6.06969e-05
4.66395e-05
7.5429e-05
0.000131417
0.000186328
0.00722118
0.0215578
0.00451937
0.00105961
0.000701063
0.000835587
0.00136471
0.00161646
0.00168329
0.0016487
0.00154526
0.00137936
0.00115941
0.000912081
0.000675274
0.000483695
0.000354492
0.000283329
0.000240465
0.000205697
0.000173267
0.00014429
0.000120177
0.000102412
9.27427e-05
8.81166e-05
8.53683e-05
8.25169e-05
7.84322e-05
7.22032e-05
6.3412e-05
5.40717e-05
4.5501e-05
3.7939e-05
3.3499e-05
4.53841e-05
4.85441e-05
5.84493e-05
0.000243325
0.000213602
0.010003
0.0258213
0.00943345
0.0034984
0.00227702
0.00230876
0.00247955
0.00243242
0.00229017
0.00211452
0.00190856
0.0016556
0.00135307
0.00102832
0.000725355
0.000488604
0.000336867
0.00025671
0.000214277
0.00018311
0.000154688
0.000129985
0.000110825
9.83835e-05
9.30436e-05
9.28141e-05
9.47862e-05
9.72739e-05
9.92369e-05
9.92099e-05
9.42548e-05
8.41668e-05
7.38533e-05
6.52594e-05
6.26998e-05
7.06977e-05
8.83998e-05
0.000133802
0.00032523
0.000313036
0.010684
0.0287238
0.0156357
0.00999141
0.00714828
0.005524
0.00438112
0.00361591
0.00309683
0.00270875
0.00235619
0.00197623
0.00155394
0.0011252
0.000740215
0.000458823
0.000295164
0.000216268
0.000177743
0.000150587
0.000128004
0.00011072
9.95092e-05
9.44471e-05
9.4976e-05
9.97783e-05
0.000107594
0.000118065
0.000131392
0.000147687
0.000166293
0.000181853
0.000193106
0.000215623
0.000260915
0.000383513
0.000664019
0.00121741
0.00411423
0.00109515
0.00993041
0.0168934
0.0135501
0.0102418
0.00782645
0.00618462
0.00507773
0.00432344
0.00377797
0.00330875
0.00281614
0.00225578
0.0016498
0.00108468
0.000603656
0.000327685
0.000212694
0.000161269
0.000133522
0.000114356
0.00010012
9.09179e-05
8.67287e-05
8.72135e-05
9.18648e-05
0.000100227
0.000112297
0.000128798
0.000151168
0.000181538
0.000222791
0.000278682
0.000356132
0.000468312
0.000633994
0.000861499
0.00113129
0.00138682
0.00158688
0.000876585
0.00491625
0.00661567
0.00671813
0.00623743
0.00557262
0.00493647
0.00428852
0.00356425
0.00275835
0.00188481
0.00102741
0.000546767
0.000295363
0.000180646
0.000129114
0.000103026
8.74984e-05
7.73026e-05
7.10289e-05
6.80263e-05
6.79534e-05
7.05473e-05
7.56337e-05
8.32854e-05
9.39259e-05
0.000108388
0.000127997
0.000154746
0.000191692
0.000243836
0.00031669
0.000417992
0.000554949
0.000724566
0.000903723
0.00105189
0.000987622
0.000446462
0.00339817
0.00674119
0.00669685
0.00539372
0.00454956
0.00383465
0.00295503
0.00204592
0.00129201
0.0007537
0.000420793
0.000239927
0.000148875
0.000105713
8.45447e-05
7.31278e-05
6.6518e-05
6.28579e-05
6.14414e-05
6.18853e-05
6.39753e-05
6.75887e-05
7.28156e-05
7.99602e-05
8.95066e-05
0.000102173
0.000119089
0.000142003
0.000173463
0.000216773
0.000276472
0.000357444
0.000461499
0.000581313
0.000696826
0.000842731
0.000466127
0.000477368
0.00216533
0.00252796
0.00282037
0.0031266
0.00233996
0.00182658
0.00161631
0.00140257
0.00112874
0.00084111
0.000584266
0.000389919
0.000260164
0.000180861
0.000134668
0.000106953
8.91723e-05
7.72811e-05
6.9518e-05
6.50194e-05
6.31831e-05
6.35327e-05
6.57697e-05
6.97746e-05
7.56687e-05
8.36126e-05
9.3796e-05
0.000106758
0.000123328
0.000144854
0.000172162
0.000206596
0.00025011
0.000305079
0.000373531
0.000457636
0.000473856
0.00033887
0.000289149
0.000478563
)
;

boundaryField
{
    floor
    {
        Cmu             0.09;
        kappa           0.41;
        E               9.8;
        type            epsilonWallFunction;
        value           nonuniform List<scalar> 
29
(
0.000480305
3.51672e-05
5.91852e-05
8.55206e-05
8.88663e-05
8.15479e-05
7.16242e-05
5.90113e-05
4.7753e-05
3.88603e-05
3.19892e-05
2.66524e-05
2.24614e-05
1.91315e-05
1.64563e-05
1.42385e-05
1.23126e-05
1.05315e-05
9.57281e-06
7.40331e-06
7.40331e-06
1.7553e-05
2.83027e-05
3.93306e-05
0.000480305
3.51672e-05
3.93949e-05
0.000252787
0.000904299
)
;
    }
    ceiling
    {
        Cmu             0.09;
        kappa           0.41;
        E               9.8;
        type            epsilonWallFunction;
        value           nonuniform List<scalar> 
43
(
0.00216533
0.00252796
0.00282037
0.0031266
0.00233996
0.00182658
0.00161631
0.00140257
0.00112874
0.00084111
0.000584266
0.000389919
0.000260164
0.000180861
0.000134668
0.000106953
8.91723e-05
7.72811e-05
6.9518e-05
6.50194e-05
6.31831e-05
6.35327e-05
6.57697e-05
6.97746e-05
7.56687e-05
8.36126e-05
9.3796e-05
0.000106758
0.000123328
0.000144854
0.000172162
0.000206596
0.00025011
0.000305079
0.000373531
0.000457636
0.000473856
0.00033887
0.000289149
0.000478563
0.00993041
0.0168934
0.00339817
)
;
    }
    sWall
    {
        Cmu             0.09;
        kappa           0.41;
        E               9.8;
        type            epsilonWallFunction;
        value           uniform 0.00216533;
    }
    nWall
    {
        Cmu             0.09;
        kappa           0.41;
        E               9.8;
        type            epsilonWallFunction;
        value           nonuniform List<scalar> 6(0.000186328 0.000213602 0.000313036 0.000446462 0.000477368 0.000478563);
    }
    sideWalls
    {
        type            empty;
    }
    glass1
    {
        Cmu             0.09;
        kappa           0.41;
        E               9.8;
        type            epsilonWallFunction;
        value           nonuniform List<scalar> 9(0.00043282 0.00108966 0.00198096 0.00320247 0.00488238 0.00722118 0.010003 0.010684 0.00993041);
    }
    glass2
    {
        Cmu             0.09;
        kappa           0.41;
        E               9.8;
        type            epsilonWallFunction;
        value           nonuniform List<scalar> 2(0.00109515 0.000876585);
    }
    sun
    {
        Cmu             0.09;
        kappa           0.41;
        E               9.8;
        type            epsilonWallFunction;
        value           nonuniform List<scalar> 
14
(
0.00043282
0.000561279
0.000594378
0.000683906
0.000774654
0.00086753
0.000967262
0.00106786
0.00114136
0.00116832
0.00113262
0.00102911
0.000866434
0.00066961
)
;
    }
    heatsource1
    {
        Cmu             0.09;
        kappa           0.41;
        E               9.8;
        type            epsilonWallFunction;
        value           nonuniform List<scalar> 3(7.5429e-05 0.000131417 0.000186328);
    }
    heatsource2
    {
        Cmu             0.09;
        kappa           0.41;
        E               9.8;
        type            epsilonWallFunction;
        value           nonuniform List<scalar> 4(0.000508066 0.000128773 0.000128773 0.000569374);
    }
    Table_master
    {
        Cmu             0.09;
        kappa           0.41;
        E               9.8;
        type            epsilonWallFunction;
        value           nonuniform List<scalar> 9(0.000170442 0.000117273 8.33205e-05 6.11807e-05 4.63297e-05 3.6077e-05 2.8816e-05 2.3591e-05 1.98412e-05);
    }
    Table_slave
    {
        Cmu             0.09;
        kappa           0.41;
        E               9.8;
        type            epsilonWallFunction;
        value           nonuniform List<scalar> 9(0.000248294 0.000188724 0.000152455 0.000128174 0.000109694 9.42482e-05 8.08394e-05 6.81806e-05 5.52473e-05);
    }
    inlet
    {
        type            turbulentMixingLengthDissipationRateInlet;
        mixingLength    0.01;
        phi             phi;
        k               k;
        value           uniform 0.000101881;
    }
    outlet
    {
        type            zeroGradient;
    }
}


// ************************************************************************* //
