/*--------------------------------*- C++ -*----------------------------------*\
  =========                 |
  \\      /  F ield         | OpenFOAM: The Open Source CFD Toolbox
   \\    /   O peration     | Website:  https://openfoam.org
    \\  /    A nd           | Version:  6
     \\/     M anipulation  |
\*---------------------------------------------------------------------------*/
FoamFile
{
    version     2.0;
    format      ascii;
    class       surfaceScalarField;
    location    "1900";
    object      phi;
}
// * * * * * * * * * * * * * * * * * * * * * * * * * * * * * * * * * * * * * //

dimensions      [1 0 -1 0 0 0 0];

internalField   nonuniform List<scalar> 
852
(
-0.00295902
0.00301635
-0.00399996
0.00104094
-0.00480017
0.000800208
-0.00542297
0.0006228
-0.00583489
0.000411923
-0.00600786
0.000172964
-0.00591372
-9.41359e-05
-0.00553071
-0.00038301
-0.00487515
-0.000655564
-0.00401257
-0.000862582
-0.00304331
-0.00096926
-0.00207923
-0.000964078
-0.0012226
-0.000856628
-0.000535433
-0.000687167
-0.000533768
-0.000783793
0.000786784
-0.000543025
-0.000240769
3.95856e-05
-0.00058261
0.000534399
-0.000494814
0.000878538
-0.000344138
0.00110342
-0.000224883
0.00122958
-0.000126158
0.00129126
-6.16809e-05
0.00132577
-3.45096e-05
0.00134727
-2.14987e-05
0.00135982
-1.25492e-05
0.00136508
-5.25804e-06
0.00136198
3.09593e-06
0.00134341
1.85669e-05
0.00128929
5.41208e-05
0.00116573
0.000123561
0.000961433
0.000204298
0.000710568
0.000250865
0.000714585
-0.00211984
0.00529066
-0.00314063
0.00206173
-0.0039695
0.00162908
-0.00458861
0.00124191
-0.00499905
0.000822362
-0.00518163
0.000355543
-0.00510493
-0.000170831
-0.00475149
-0.000736459
-0.00415019
-0.00125686
-0.00337719
-0.00163559
-0.00253094
-0.00181551
-0.0017061
-0.00178891
-0.000983134
-0.00157959
-0.000435501
-0.0012348
-0.000167837
-0.000801432
0.000118707
-0.000286595
0.000118656
0.00023664
0.000558862
0.000631033
-0.000635162
0.000894038
-0.000845615
0.00111337
-0.000714143
0.00128787
-0.00051864
0.00140071
-0.000337726
0.00142114
-0.000146589
0.00142625
-6.67868e-05
0.00143238
-4.06433e-05
0.0014375
-2.66186e-05
0.00144088
-1.59247e-05
0.00144272
-7.10131e-06
0.00144249
3.32764e-06
0.00143727
2.37855e-05
0.00140052
9.08693e-05
0.00124175
0.000282335
0.000963868
0.000482177
0.000615407
0.000599326
0.0013402
-0.00148982
0.00701681
-0.00237279
0.00294469
-0.00311333
0.00236962
-0.0036489
0.00177748
-0.00401348
0.00118695
-0.00418271
0.00052477
-0.00410229
-0.000251246
-0.00374693
-0.00109182
-0.0031714
-0.00183239
-0.00246947
-0.00233751
-0.00173638
-0.0025486
-0.00104449
-0.0024808
-0.0004457
-0.00217839
2.5841e-05
-0.00170634
0.000335774
-0.00111136
0.000474359
-0.00042518
0.000593015
0.00148314
-0.000914718
0.0017003
-0.000852319
0.00165224
-0.00079755
0.00163508
-0.000696986
0.00165464
-0.000538197
0.00169235
-0.000375435
0.00154591
0.00147928
0.00143879
0.00141232
0.00139655
0.0013896
0.00139308
0.00141702
0.00150804
0.00124792
0.000542464
0.000927246
0.000802847
0.000524192
0.00100238
0.00187983
-0.00104308
0.00836593
-0.00174503
0.00364664
-0.00224289
0.00286748
-0.00260172
0.00213632
-0.00285285
0.00143807
-0.00295917
0.000631093
-0.00282397
-0.000386445
-0.0024316
-0.00148419
-0.00188396
-0.00238004
-0.00128342
-0.00293805
-0.000705622
-0.0031264
-0.000189836
-0.00299659
0.000248175
-0.0026164
0.000609201
-0.00206737
0.000930085
-0.00143225
0.00129144
-0.000786535
0.00213333
-0.000248874
0.00247742
-0.000335709
0.00213446
-0.000571752
0.00200022
-0.000718081
0.00186965
-0.000666985
0.00174996
-0.00057729
0.00167107
-0.000459313
0.00160598
-0.000310346
0.00173469
-0.00012886
0.00181024
-7.5706e-05
0.00187018
-6.00908e-05
0.00191744
-4.74088e-05
0.00193915
-2.18607e-05
0.00191441
2.45814e-05
0.00181791
9.63453e-05
0.00161633
0.000201427
0.00125586
0.000360318
0.00110135
0.000696979
0.000798168
0.00110602
0.000337237
0.00146331
0.00223716
-0.000728698
0.00945986
-0.00126193
0.00417988
-0.00138424
0.00298979
-0.00147752
0.0022296
-0.00153936
0.00149991
-0.00149893
0.00059067
-0.00122282
-0.000662561
-0.000781052
-0.00192595
-0.000305159
-0.00285593
0.000126187
-0.0033694
0.000478972
-0.00347918
0.000748656
-0.00326627
0.000957272
-0.00282501
0.00113418
-0.00224427
0.00131325
-0.00161132
0.00154196
-0.00101525
0.00186361
-0.000570521
0.00196645
-0.000438551
0.00188593
-0.000491231
0.00171035
-0.000542498
0.00155017
-0.000506808
0.00141051
-0.000437623
0.00130508
-0.000353889
0.00124987
-0.000255133
0.00128174
-0.000160731
0.00132497
-0.000118936
0.00137388
-0.000109005
0.00142637
-9.98966e-05
0.00147324
-6.87264e-05
0.00149522
2.59503e-06
0.00147058
0.000120992
0.00138573
0.000286273
0.00124064
0.000505413
0.00110452
0.000833099
0.000949672
0.00126087
0.000599143
0.00181384
0.000500359
0.00233594
-0.000983022
0.00148318
-0.00144738
0.000464149
-0.00139894
-0.000630832
0.0105058
-0.000996752
0.0045458
-0.000602797
0.00259583
-0.000309144
0.00193594
-9.40778e-05
0.00128484
0.000232082
0.000264511
0.000714574
-0.00114505
0.00115257
-0.00236395
0.00146473
-0.00316808
0.00163756
-0.00354223
0.0016972
-0.00353882
0.00167571
-0.00324478
0.00160594
-0.00275524
0.00152541
-0.00216374
0.00146726
-0.00155317
0.00145628
-0.00100427
0.0014856
-0.000599842
0.00145281
-0.000405767
0.00132817
-0.00036659
0.00114923
-0.000363554
0.000983046
-0.000340626
0.000848199
-0.000302777
0.000752969
-0.000258659
0.000708288
-0.000210451
0.000718355
-0.000170798
0.000759294
-0.000159875
0.000817953
-0.000167664
0.000889353
-0.000171297
0.000968631
-0.000148004
0.00104666
-7.54357e-05
0.00110521
6.24467e-05
0.00113465
0.000256831
0.00114391
0.000496147
0.00117674
0.000800274
0.00127972
0.00115789
0.00146718
0.00162638
0.00191187
0.00189126
0.00216778
0.00122727
0.00177971
0.000852214
0.000438949
-0.000716159
0.0116817
-0.000601704
0.00443134
0.000474512
0.00151962
0.00115365
0.0012568
0.00173111
0.000707391
0.00237819
-0.000382569
0.00293122
-0.00169808
0.00323579
-0.00266853
0.00328617
-0.00321846
0.00312831
-0.00338437
0.00282657
-0.00323707
0.00244504
-0.00286326
0.00203884
-0.00234905
0.00165634
-0.00178125
0.00133024
-0.00122707
0.00108047
-0.000754497
0.00090376
-0.000423129
0.000753272
-0.000255278
0.000593516
-0.000206835
0.000431854
-0.000201891
0.000290919
-0.000199691
0.000182026
-0.000193883
0.000109919
-0.000186552
7.93617e-05
-0.000179894
8.93085e-05
-0.000180745
0.000126632
-0.000197198
0.000180969
-0.000222002
0.00025052
-0.000240847
0.000339536
-0.000237021
0.00045462
-0.000190519
0.000590136
-7.30692e-05
0.000730782
0.000116184
0.000882109
0.00034482
0.00108387
0.000598514
0.00138412
0.000857639
0.00184821
0.00116229
0.00252212
0.00121735
0.00304354
0.000705854
0.00305987
0.000835882
0.00356189
0.00260371
0.00959169
0.0032821
0.00375296
0.00344789
0.00135382
0.00390235
0.000802344
0.00459572
1.40271e-05
0.00528804
-0.00107489
0.00556896
-0.00197901
0.00544245
-0.00254201
0.00499687
-0.00277287
0.00433725
-0.00272475
0.00356608
-0.00246591
0.00276974
-0.00206691
0.00200904
-0.00158834
0.00133888
-0.00111109
0.000786073
-0.000674265
0.00037271
-0.000341135
9.74258e-05
-0.000147845
-8.56783e-05
-7.21742e-05
-0.000226069
-6.6444e-05
-0.000344672
-8.32891e-05
-0.000443065
-0.000101298
-0.000519036
-0.000117912
-0.000571141
-0.000134447
-0.000598647
-0.000152388
-0.000604559
-0.000174833
-0.000597728
-0.00020403
-0.000584424
-0.000235305
-0.000564434
-0.000260837
-0.000530393
-0.000271062
-0.000465266
-0.000255646
-0.000337593
-0.000200743
-0.00014282
-7.8588e-05
9.65403e-05
0.000105459
0.000387533
0.000307521
0.000748266
0.000496906
0.00122403
0.000686522
0.00172674
0.000714635
0.00186688
0.000565716
0.000928899
0.00177387
0.00475144
0.0101555
0.0139013
0.0122313
0.00302384
0.0113344
0.00169917
0.0106003
0.000748121
0.00970654
-0.000181085
0.00855619
-0.000828662
0.0072565
-0.00124232
0.00590168
-0.00141805
0.00456097
-0.00138404
0.00329765
-0.00120259
0.00216144
-0.000930708
0.00116439
-0.000591291
0.000347599
-0.0002943
-0.00025475
-7.19164e-05
-0.000629581
3.36971e-05
-0.000832142
5.47163e-05
-0.000946328
4.20114e-05
-0.00102887
1.60984e-05
-0.0011017
-1.04618e-05
-0.00116865
-3.43472e-05
-0.00122928
-5.72845e-05
-0.00128314
-8.05808e-05
-0.00133152
-0.000104012
-0.00137867
-0.000127685
-0.001432
-0.000150693
-0.00149875
-0.000168555
-0.0015858
-0.00017379
-0.00170107
-0.00015579
-0.00185494
-0.000101779
-0.00205663
9.4594e-07
-0.0022971
0.000161881
-0.00258571
0.000394068
-0.00299292
0.000714735
-0.00362213
0.00112612
-0.00454642
0.00161081
-0.00589313
0.00206135
-0.00760175
0.00227433
-0.00742914
0.00160125
-0.00238915
0.0051004
0.00455269
0.00409204
0.00270754
0.00448947
0.000350686
0.00452827
-0.000219879
0.00411867
-0.000419071
0.00343203
-0.000555676
0.00258275
-0.000568772
0.00166343
-0.000464727
0.000747581
-0.000286744
-0.000109946
-7.31816e-05
-0.000804427
0.000103191
-0.00125805
0.000159327
-0.00150211
0.000172136
-0.00162113
0.000152719
-0.00168696
0.000120547
-0.00173323
8.82823e-05
-0.00177595
5.88227e-05
-0.00182047
3.40572e-05
-0.00186883
1.40081e-05
-0.00192297
-3.1434e-06
-0.0019833
-2.02485e-05
-0.00205017
-3.71474e-05
-0.00212564
-5.22085e-05
-0.00221215
-6.41893e-05
-0.00231081
-6.98937e-05
-0.00242107
-6.35312e-05
-0.00253938
-3.74785e-05
-0.00265855
1.73964e-05
-0.00276693
0.000109326
-0.00285925
0.000254196
-0.00294058
0.000475398
-0.00301263
0.000786786
-0.0030711
0.00118459
-0.00307692
0.00161662
-0.0029608
0.00194523
-0.00227653
0.00159007
-0.000589961
-8.53193e-05
-0.00290094
-0.000436788
0.00504613
0.000856525
0.00141422
0.000816199
0.000391012
0.000538548
5.77722e-05
0.00015572
-3.62435e-05
-0.00036932
-3.0636e-05
-0.000957356
1.92638e-05
-0.00150404
8.1959e-05
-0.00193023
0.000139449
-0.00218661
0.000183191
-0.00228646
0.000203049
-0.00231768
0.000190543
-0.00231135
0.000165807
-0.00229663
0.000137998
-0.00228928
0.000113193
-0.00229347
9.2479e-05
-0.00230897
7.43214e-05
-0.00233295
5.80349e-05
-0.00236223
4.32875e-05
-0.00239504
2.96706e-05
-0.00243253
1.72418e-05
-0.00247495
5.26682e-06
-0.00252195
-5.2079e-06
-0.00257288
-1.32551e-05
-0.00262532
-1.74522e-05
-0.00267392
-1.49307e-05
-0.00270955
-1.84945e-06
-0.00272135
2.91894e-05
-0.00269849
8.64677e-05
-0.002621
0.000176707
-0.0024585
0.000312898
-0.0021826
0.000510888
-0.00177243
0.000774417
-0.00118452
0.00102871
-0.000120994
0.00088171
0.00176328
-0.000294212
0.0033746
-0.00169664
0.000559105
-0.0079306
-0.0107846
-0.00569439
-0.0042573
-0.00385224
-0.00378529
-0.00381546
-0.0038423
-0.00382096
-0.00373822
-0.00359908
-0.00341714
-0.00321615
-0.00302838
-0.00286591
-0.00273171
-0.00262269
-0.00253468
-0.00246507
-0.00241191
-0.00237362
-0.002349
-0.00233683
-0.00233662
-0.00234683
-0.00236501
-0.00238729
-0.00240694
-0.00241336
-0.0023886
-0.0023064
-0.0021338
-0.00182484
-0.00131775
-0.00054701
0.000478102
0.00135609
0.00105765
-0.000644569
)
;

boundaryField
{
    floor
    {
        type            calculated;
        value           nonuniform List<scalar> 
29
(
0
0
0
0
0
0
0
0
0
0
0
0
0
0
0
0
0
0
0
0
-4.01737e-06
-1.02113e-05
-1.54307e-05
-2.00954e-05
-1.66553e-06
-2.99035e-06
-8.71791e-06
-9.56422e-06
-8.38598e-06
)
;
    }
    ceiling
    {
        type            calculated;
        value           nonuniform List<scalar> 
43
(
-4.66705e-05
-4.53954e-05
-4.41248e-05
-2.28609e-05
-1.40509e-05
-9.17455e-06
-6.07919e-06
-3.79198e-06
-2.08104e-06
-7.77422e-07
3.10009e-07
1.24805e-06
2.06569e-06
2.76604e-06
3.3392e-06
3.79832e-06
4.17073e-06
4.47394e-06
4.70913e-06
4.87796e-06
4.98984e-06
5.05544e-06
5.07533e-06
5.05163e-06
4.99921e-06
4.9272e-06
4.83181e-06
4.71401e-06
4.57814e-06
4.4266e-06
4.26594e-06
4.10419e-06
3.94294e-06
3.79684e-06
3.67637e-06
3.60229e-06
3.724e-06
4.22356e-06
5.58472e-06
6.51584e-06
1.02482e-05
7.20665e-06
-5.66493e-05
)
;
    }
    sWall
    {
        type            calculated;
        value           uniform -0.000271801;
    }
    nWall
    {
        type            calculated;
        value           nonuniform List<scalar> 6(-4.86377e-05 -5.8179e-05 -6.30786e-05 -7.81749e-05 -8.54449e-05 -9.19795e-05);
    }
    sideWalls
    {
        type            empty;
        value           nonuniform 0();
    }
    glass1
    {
        type            calculated;
        value           nonuniform List<scalar> 9(-5.73257e-05 -0.00015447 -0.000236336 -0.000306043 -0.000365232 -0.000415122 -0.00045973 -0.000513695 -0.00057409);
    }
    glass2
    {
        type            calculated;
        value           nonuniform List<scalar> 2(-0.000260652 -0.000288539);
    }
    sun
    {
        type            calculated;
        value           uniform 0;
    }
    heatsource1
    {
        type            calculated;
        value           nonuniform List<scalar> 3(2.04202e-07 2.04137e-07 2.04155e-07);
    }
    heatsource2
    {
        type            calculated;
        value           nonuniform List<scalar> 4(5.11939e-08 5.12783e-08 0 0);
    }
    Table_master
    {
        type            calculated;
        value           nonuniform List<scalar> 9(-1.53158e-07 -1.53248e-07 -1.53281e-07 -1.53302e-07 -1.53318e-07 -1.53329e-07 -1.53335e-07 -1.53331e-07 -1.53303e-07);
    }
    Table_slave
    {
        type            calculated;
        value           nonuniform List<scalar> 9(1.53039e-07 1.53061e-07 1.53043e-07 1.53028e-07 1.53022e-07 1.53025e-07 1.53039e-07 1.53079e-07 1.53157e-07);
    }
    inlet
    {
        type            calculated;
        value           uniform -0.00662925;
    }
    outlet
    {
        type            calculated;
        value           nonuniform List<scalar> 2(0.00824907 0.00289944);
    }
}


// ************************************************************************* //
