/*--------------------------------*- C++ -*----------------------------------*\
  =========                 |
  \\      /  F ield         | OpenFOAM: The Open Source CFD Toolbox
   \\    /   O peration     | Website:  https://openfoam.org
    \\  /    A nd           | Version:  6
     \\/     M anipulation  |
\*---------------------------------------------------------------------------*/
FoamFile
{
    version     2.0;
    format      ascii;
    class       volScalarField;
    location    "1400";
    object      epsilon;
}
// * * * * * * * * * * * * * * * * * * * * * * * * * * * * * * * * * * * * * //

dimensions      [0 2 -3 0 0 0 0];

internalField   nonuniform List<scalar> 
459
(
0.00042901
0.000556255
0.000588811
0.000677382
0.000767067
0.00085872
0.000956905
0.00105696
0.001131
0.00115995
0.00112759
0.00102824
0.000870105
0.000677625
0.000490575
3.56462e-05
6.06244e-05
8.76769e-05
9.05953e-05
8.32345e-05
7.32033e-05
6.05227e-05
4.9173e-05
4.01665e-05
3.31756e-05
2.77231e-05
2.34235e-05
1.99985e-05
1.72354e-05
1.49352e-05
1.29289e-05
1.10603e-05
9.98176e-06
7.64893e-06
0.00108209
0.00157992
0.000522216
0.000505558
0.000528365
0.000568407
0.000630135
0.000711828
0.000789651
0.000837715
0.000835728
0.000778332
0.000674214
0.000545853
0.000439988
0.000518484
0.000126828
4.02843e-05
9.52394e-05
0.000106643
0.000100174
8.75406e-05
7.4828e-05
6.867e-05
5.55103e-05
4.37708e-05
3.4518e-05
2.74261e-05
2.20134e-05
1.78739e-05
1.47231e-05
1.24086e-05
1.09852e-05
1.03738e-05
2.61473e-05
1.7882e-05
0.00196913
0.00387908
0.00064062
0.000478529
0.000499633
0.000560906
0.000654425
0.000773069
0.000881768
0.000946005
0.000948431
0.000890762
0.000784632
0.000655922
0.000537283
0.000478965
0.000571657
0.000265946
0.000210255
0.000168212
0.000135415
0.000109729
9.41694e-05
0.000173976
0.00012025
8.58029e-05
6.32566e-05
4.80801e-05
3.75691e-05
3.0105e-05
2.47219e-05
2.08556e-05
1.5904e-05
1.33314e-05
4.91814e-05
2.84494e-05
0.00318599
0.00806764
0.00100905
0.00048046
0.000484491
0.000570567
0.000711962
0.000888996
0.00102659
0.00109224
0.00108261
0.00100939
0.000882853
0.000735868
0.000606614
0.000522978
0.000504782
0.000914792
0.000530281
0.000327109
0.000223551
0.000164
0.000126723
0.0001093
0.000252527
0.000193284
0.000157263
0.000133071
0.000114472
9.87265e-05
8.49833e-05
7.19269e-05
5.84879e-05
3.47732e-05
2.24824e-05
8.13428e-05
3.93077e-05
0.00486089
0.0144305
0.00199409
0.000561499
0.000487421
0.000602298
0.000858125
0.00112184
0.00126701
0.00130827
0.00126564
0.00115724
0.000997554
0.000813029
0.000635442
0.000490813
0.000392842
0.000352212
0.000290191
0.000233617
0.000187869
0.00015174
0.000123574
0.00010394
0.000100238
9.36082e-05
8.71996e-05
8.08323e-05
7.39709e-05
6.64872e-05
5.90027e-05
5.18786e-05
4.5317e-05
3.63407e-05
2.78578e-05
5.85618e-05
4.52483e-05
7.3911e-05
0.00012965
0.000183752
0.00719393
0.0214958
0.0045029
0.00104955
0.000687398
0.000807571
0.00131925
0.00158125
0.00165582
0.00162687
0.00152886
0.00136925
0.00115562
0.000913135
0.000678595
0.000486759
0.000356043
0.000283404
0.000239561
0.000204063
0.000171224
0.000142318
0.000118784
0.000101987
9.34598e-05
8.98951e-05
8.79961e-05
8.56933e-05
8.17625e-05
7.52652e-05
6.60716e-05
5.64128e-05
4.75382e-05
3.95889e-05
3.43422e-05
4.47315e-05
4.67819e-05
5.71492e-05
0.000239516
0.000210252
0.00997078
0.0257487
0.0093981
0.00347066
0.00223935
0.0022348
0.00242882
0.00239618
0.00226164
0.00209127
0.00189108
0.00164543
0.00135037
0.00103133
0.000730869
0.000493171
0.000338938
0.000256515
0.000212714
0.000180951
0.00015259
0.000128579
0.000110611
9.96442e-05
9.58161e-05
9.69391e-05
0.000100008
0.000103222
0.000105351
0.000104713
9.80749e-05
8.69566e-05
7.58428e-05
6.63837e-05
6.2596e-05
6.98492e-05
8.89492e-05
0.000141957
0.000325524
0.000317202
0.0106522
0.0286708
0.0156009
0.00995942
0.00709985
0.00549117
0.00435341
0.0035893
0.00307086
0.00268543
0.0023388
0.00196771
0.00155411
0.00113168
0.000749156
0.000465101
0.00029759
0.000215928
0.000176233
0.00014919
0.000127379
0.000111319
0.000101606
9.81648e-05
0.000100301
0.000106597
0.000115725
0.000127246
0.000141236
0.000157614
0.00017537
0.000186998
0.000197017
0.000218387
0.000262696
0.00039499
0.000729135
0.00137332
0.0039913
0.00118297
0.00990111
0.0168507
0.0135206
0.0102162
0.00780146
0.00615752
0.00504798
0.0042915
0.00374649
0.0032825
0.00279999
0.00225317
0.00165677
0.00109736
0.000618962
0.000334368
0.000215256
0.000162216
0.000134063
0.000115045
0.000101715
9.37772e-05
9.10325e-05
9.30168e-05
9.91279e-05
0.000108859
0.000122178
0.000139777
0.000163035
0.000193997
0.000235394
0.000291203
0.000367908
0.000482888
0.000652015
0.000881232
0.00114312
0.00137142
0.00154766
0.000968711
0.00491969
0.00661972
0.00669269
0.00620726
0.00554074
0.00490451
0.00426405
0.0035538
0.00276471
0.00191678
0.00105162
0.000560854
0.000302562
0.000183249
0.000130741
0.000104685
8.96584e-05
8.02558e-05
7.46822e-05
7.24468e-05
7.32353e-05
7.66863e-05
8.25911e-05
9.10074e-05
0.000102358
0.000117497
0.000137793
0.000165314
0.000203297
0.000256656
0.000330739
0.000432637
0.000565679
0.00071733
0.000847134
0.000901297
0.000846568
0.000536111
0.00339465
0.00672
0.00666087
0.00536868
0.00454132
0.00385897
0.00299983
0.00209432
0.00133131
0.000780449
0.000433611
0.0002468
0.000152913
0.000108714
8.7636e-05
7.66656e-05
7.06025e-05
6.7489e-05
6.65569e-05
6.7446e-05
6.99072e-05
7.39303e-05
7.96995e-05
8.75075e-05
9.7844e-05
0.000111516
0.000129792
0.000154622
0.000188738
0.000235753
0.000300563
0.000388063
0.000498758
0.000624211
0.000717251
0.000812094
0.000763739
0.000563799
0.00216087
0.00252349
0.00281594
0.00312083
0.0023354
0.00182167
0.00161013
0.00140394
0.00113589
0.000852877
0.000594766
0.00039714
0.000264398
0.000183412
0.000136534
0.000108717
9.11498e-05
7.96904e-05
7.25243e-05
6.87488e-05
6.77389e-05
6.90243e-05
7.23157e-05
7.76109e-05
8.48136e-05
9.4064e-05
0.000105761
0.000120507
0.000139234
0.000163476
0.000193973
0.000232269
0.000280644
0.000341983
0.000419049
0.000526296
0.000563187
0.000520899
0.00042826
0.000342406
)
;

boundaryField
{
    floor
    {
        Cmu             0.09;
        kappa           0.41;
        E               9.8;
        type            epsilonWallFunction;
        value           nonuniform List<scalar> 
29
(
0.000490575
3.56462e-05
6.06244e-05
8.76769e-05
9.05953e-05
8.32345e-05
7.32033e-05
6.05227e-05
4.9173e-05
4.01665e-05
3.31756e-05
2.77231e-05
2.34235e-05
1.99985e-05
1.72354e-05
1.49352e-05
1.29289e-05
1.10603e-05
9.98176e-06
7.64893e-06
7.64893e-06
1.7882e-05
2.84494e-05
3.93077e-05
0.000490575
3.56462e-05
4.02843e-05
0.000265946
0.000914792
)
;
    }
    ceiling
    {
        Cmu             0.09;
        kappa           0.41;
        E               9.8;
        type            epsilonWallFunction;
        value           nonuniform List<scalar> 
43
(
0.00216087
0.00252349
0.00281594
0.00312083
0.0023354
0.00182167
0.00161013
0.00140394
0.00113589
0.000852877
0.000594766
0.00039714
0.000264398
0.000183412
0.000136534
0.000108717
9.11498e-05
7.96904e-05
7.25243e-05
6.87488e-05
6.77389e-05
6.90243e-05
7.23157e-05
7.76109e-05
8.48136e-05
9.4064e-05
0.000105761
0.000120507
0.000139234
0.000163476
0.000193973
0.000232269
0.000280644
0.000341983
0.000419049
0.000526296
0.000563187
0.000520899
0.00042826
0.000342406
0.00990111
0.0168507
0.00339465
)
;
    }
    sWall
    {
        Cmu             0.09;
        kappa           0.41;
        E               9.8;
        type            epsilonWallFunction;
        value           uniform 0.00216087;
    }
    nWall
    {
        Cmu             0.09;
        kappa           0.41;
        E               9.8;
        type            epsilonWallFunction;
        value           nonuniform List<scalar> 6(0.000183752 0.000210252 0.000317202 0.000536111 0.000563799 0.000342406);
    }
    sideWalls
    {
        type            empty;
    }
    glass1
    {
        Cmu             0.09;
        kappa           0.41;
        E               9.8;
        type            epsilonWallFunction;
        value           nonuniform List<scalar> 9(0.00042901 0.00108209 0.00196913 0.00318599 0.00486089 0.00719393 0.00997078 0.0106522 0.00990111);
    }
    glass2
    {
        Cmu             0.09;
        kappa           0.41;
        E               9.8;
        type            epsilonWallFunction;
        value           nonuniform List<scalar> 2(0.00118297 0.000968711);
    }
    sun
    {
        Cmu             0.09;
        kappa           0.41;
        E               9.8;
        type            epsilonWallFunction;
        value           nonuniform List<scalar> 
14
(
0.00042901
0.000556255
0.000588811
0.000677382
0.000767067
0.00085872
0.000956905
0.00105696
0.001131
0.00115995
0.00112759
0.00102824
0.000870105
0.000677625
)
;
    }
    heatsource1
    {
        Cmu             0.09;
        kappa           0.41;
        E               9.8;
        type            epsilonWallFunction;
        value           nonuniform List<scalar> 3(7.3911e-05 0.00012965 0.000183752);
    }
    heatsource2
    {
        Cmu             0.09;
        kappa           0.41;
        E               9.8;
        type            epsilonWallFunction;
        value           nonuniform List<scalar> 4(0.000518484 0.000126828 0.000126828 0.000571657);
    }
    Table_master
    {
        Cmu             0.09;
        kappa           0.41;
        E               9.8;
        type            epsilonWallFunction;
        value           nonuniform List<scalar> 9(0.000173976 0.00012025 8.58029e-05 6.32566e-05 4.80801e-05 3.75691e-05 3.0105e-05 2.47219e-05 2.08556e-05);
    }
    Table_slave
    {
        Cmu             0.09;
        kappa           0.41;
        E               9.8;
        type            epsilonWallFunction;
        value           nonuniform List<scalar> 9(0.000252527 0.000193284 0.000157263 0.000133071 0.000114472 9.87265e-05 8.49833e-05 7.19269e-05 5.84879e-05);
    }
    inlet
    {
        type            turbulentMixingLengthDissipationRateInlet;
        mixingLength    0.01;
        phi             phi;
        k               k;
        value           uniform 0.000101881;
    }
    outlet
    {
        type            zeroGradient;
    }
}


// ************************************************************************* //
