/*--------------------------------*- C++ -*----------------------------------*\
  =========                 |
  \\      /  F ield         | OpenFOAM: The Open Source CFD Toolbox
   \\    /   O peration     | Website:  https://openfoam.org
    \\  /    A nd           | Version:  6
     \\/     M anipulation  |
\*---------------------------------------------------------------------------*/
FoamFile
{
    version     2.0;
    format      ascii;
    class       volVectorField;
    location    "1400";
    object      U;
}
// * * * * * * * * * * * * * * * * * * * * * * * * * * * * * * * * * * * * * //

dimensions      [0 1 -1 0 0 0 0];

internalField   nonuniform List<vector> 
459
(
(0.0339277 0.0859508 0)
(-0.167226 0.0255579 0)
(-0.192118 0.0178547 0)
(-0.223147 0.012106 0)
(-0.245537 0.00577234 0)
(-0.25818 -0.000964534 0)
(-0.259368 -0.00817213 0)
(-0.247872 -0.0158724 0)
(-0.224313 -0.023339 0)
(-0.190656 -0.02923 0)
(-0.150692 -0.0324428 0)
(-0.108866 -0.032446 0)
(-0.0694467 -0.0293815 0)
(-0.0375752 -0.0243641 0)
(-0.0271206 -0.0192458 0)
(-0.00681674 0.009023 0)
(-0.0294846 -0.0165747 0)
(-0.00794403 -0.0265774 0)
(0.0159174 -0.0206796 0)
(0.0315475 -0.0142838 0)
(0.0445246 -0.00932242 0)
(0.0527784 -0.00543219 0)
(0.0571067 -0.00338329 0)
(0.0590704 -0.00256418 0)
(0.0600456 -0.00221216 0)
(0.0606555 -0.00199301 0)
(0.0610072 -0.00181468 0)
(0.0610413 -0.0016004 0)
(0.0605707 -0.00118132 0)
(0.0590666 -0.000190555 0)
(0.0553932 0.00188108 0)
(0.048306 0.00410057 0)
(0.041707 0.00595145 0)
(-0.0126778 0.0204454 0)
(0.208338 0.176093 0)
(-0.156292 0.0676204 0)
(-0.154923 0.0531254 0)
(-0.187093 0.0411953 0)
(-0.209344 0.0276543 0)
(-0.222302 0.0123788 0)
(-0.224208 -0.00494245 0)
(-0.213685 -0.0236724 0)
(-0.19196 -0.0411586 0)
(-0.161417 -0.05429 0)
(-0.125968 -0.0609586 0)
(-0.0897007 -0.0605763 0)
(-0.056172 -0.0537485 0)
(-0.0287455 -0.0421131 0)
(-0.0113835 -0.0282731 0)
(0.00242383 -0.0102998 0)
(0.000879062 0.015748 0)
(0.0602284 0.0367096 0)
(0.0242486 -0.0180979 0)
(0.0330807 -0.0315726 0)
(0.0443141 -0.0282851 0)
(0.0533973 -0.0205312 0)
(0.0601604 -0.013003 0)
(0.0631386 -0.0055784 0)
(0.0637322 -0.00129776 0)
(0.0636876 0.000481883 0)
(0.0637998 0.00126247 0)
(0.0640118 0.00173796 0)
(0.0641676 0.00212904 0)
(0.0642244 0.00260526 0)
(0.0641372 0.00347998 0)
(0.063402 0.00562047 0)
(0.0597077 0.011556 0)
(0.0503324 0.016554 0)
(0.0456847 0.0199918 0)
(-0.0487834 0.0443262 0)
(0.368443 0.263525 0)
(-0.173062 0.107684 0)
(-0.116327 0.0859671 0)
(-0.147697 0.0647095 0)
(-0.167561 0.0424066 0)
(-0.179683 0.017587 0)
(-0.18127 -0.010576 0)
(-0.17009 -0.0405559 0)
(-0.148664 -0.0676151 0)
(-0.120276 -0.0867161 0)
(-0.0890331 -0.0952057 0)
(-0.0584038 -0.0930929 0)
(-0.0306482 -0.0817969 0)
(-0.00777447 -0.0635967 0)
(0.00914446 -0.0400054 0)
(0.0202085 -0.0135915 0)
(0.0242564 0.0236931 0)
(0.110024 -0.0260816 0)
(0.0745606 -0.0374491 0)
(0.0691848 -0.0384586 0)
(0.0707138 -0.0332547 0)
(0.0721225 -0.025412 0)
(0.0735411 -0.0185033 0)
(0.072351 -0.0147625 0)
(0.0675817 -0.0103928 0)
(0.0640881 -0.00800182 0)
(0.0625044 -0.00663072 0)
(0.0618242 -0.00574824 0)
(0.0614707 -0.00513557 0)
(0.0614269 -0.00460028 0)
(0.0621351 -0.00376702 0)
(0.0647121 -0.000680765 0)
(0.062721 0.0161442 0)
(0.0497426 0.027887 0)
(0.0518338 0.0359214 0)
(-0.0806992 0.0691655 0)
(0.513039 0.333857 0)
(-0.207757 0.143185 0)
(-0.0753446 0.113952 0)
(-0.105381 0.084782 0)
(-0.119829 0.0561777 0)
(-0.12877 0.0235783 0)
(-0.127333 -0.015302 0)
(-0.113099 -0.0571118 0)
(-0.0913619 -0.0929486 0)
(-0.0661165 -0.116342 0)
(-0.0409101 -0.125129 0)
(-0.0180064 -0.120741 0)
(0.0023963 -0.105237 0)
(0.0191389 -0.0823058 0)
(0.0334006 -0.0553602 0)
(0.048684 -0.0262565 0)
(0.0702021 0.00574355 0)
(0.101005 0.0167608 0)
(0.10603 -0.0223741 0)
(0.0924039 -0.0333674 0)
(0.0833799 -0.0329072 0)
(0.0781951 -0.0289328 0)
(0.0742743 -0.0229434 0)
(0.0715811 -0.0152776 0)
(0.0727244 -0.00924011 0)
(0.077696 -0.00688 0)
(0.0819144 -0.00557519 0)
(0.0846776 -0.00465972 0)
(0.0863501 -0.00365 0)
(0.0865034 -0.00224465 0)
(0.0840255 -0.00018381 0)
(0.0776537 0.00284128 0)
(0.0648703 0.00736325 0)
(0.0526202 0.0266745 0)
(0.0405518 0.0430142 0)
(0.0558674 0.0560231 0)
(-0.113829 0.0914271 0)
(0.638276 0.388322 0)
(-0.2503 0.172145 0)
(-0.0345511 0.130116 0)
(-0.0610831 0.0962846 0)
(-0.067528 0.0641803 0)
(-0.0704423 0.0263726 0)
(-0.0600632 -0.0223545 0)
(-0.040701 -0.0749784 0)
(-0.0200912 -0.115928 0)
(-0.000824424 -0.139803 0)
(0.0152748 -0.145888 0)
(0.0276074 -0.137846 0)
(0.0372664 -0.119757 0)
(0.0450807 -0.0952 0)
(0.0523491 -0.0676976 0)
(0.0610492 -0.0410306 0)
(0.0739146 -0.0215179 0)
(0.0846176 -0.0208884 0)
(0.0857062 -0.0287416 0)
(0.0792995 -0.0297104 0)
(0.0710308 -0.0269378 0)
(0.0641613 -0.0231502 0)
(0.0589186 -0.0186048 0)
(0.0556699 -0.0132016 0)
(0.0553334 -0.00732579 0)
(0.0576015 -0.00445676 0)
(0.0602576 -0.00342488 0)
(0.0627875 -0.00264651 0)
(0.0651085 -0.00107662 0)
(0.06688 0.00189243 0)
(0.0668815 0.00638092 0)
(0.0644985 0.0125545 0)
(0.059127 0.0210523 0)
(0.0522845 0.036228 0)
(0.0422571 0.0542436 0)
(0.0642694 0.0743815 0)
(-0.0211216 0.103548 0)
(0.0463986 0.0325883 0)
(-0.0618944 -0.0344083 0)
(-0.272247 -0.0570522 0)
(0.729421 0.433717 0)
(-0.291873 0.19161 0)
(-0.00330796 0.126658 0)
(-0.0158508 0.0975132 0)
(-0.011727 0.0665873 0)
(-0.00578527 0.0230152 0)
(0.0233794 -0.0398894 0)
(0.0451652 -0.0953896 0)
(0.0606088 -0.133209 0)
(0.06988 -0.152192 0)
(0.0736786 -0.154339 0)
(0.0734435 -0.143278 0)
(0.0706814 -0.123045 0)
(0.0669196 -0.0976329 0)
(0.0636451 -0.0706978 0)
(0.0622646 -0.0459046 0)
(0.0636191 -0.0275264 0)
(0.0645108 -0.0203847 0)
(0.0612512 -0.0201535 0)
(0.0542439 -0.0203778 0)
(0.0462852 -0.0190512 0)
(0.0395745 -0.0168566 0)
(0.0346606 -0.0141483 0)
(0.0318482 -0.0109906 0)
(0.0314181 -0.00800034 0)
(0.0330227 -0.00682101 0)
(0.0355991 -0.00667675 0)
(0.0386841 -0.00631875 0)
(0.0420912 -0.00472482 0)
(0.0455653 -0.00100156 0)
(0.0487297 0.00519086 0)
(0.0504056 0.0135118 0)
(0.0508465 0.0241195 0)
(0.0513994 0.0385294 0)
(0.0502874 0.0562615 0)
(0.0727223 0.0790091 0)
(0.0525462 0.0969867 0)
(0.0931791 0.0679029 0)
(0.116046 0.0446381 0)
(-0.128842 -0.00700807 0)
(0.781592 0.474973 0)
(-0.312801 0.177013 0)
(0.0236127 0.077062 0)
(0.042958 0.0735011 0)
(0.0583244 0.051589 0)
(0.0859933 -0.000312557 0)
(0.119827 -0.0642858 0)
(0.13887 -0.112728 0)
(0.145048 -0.141799 0)
(0.141032 -0.153013 0)
(0.129594 -0.149366 0)
(0.113667 -0.134633 0)
(0.0958339 -0.112709 0)
(0.0783493 -0.0874789 0)
(0.0628892 -0.0621243 0)
(0.0506898 -0.0397632 0)
(0.042175 -0.0234921 0)
(0.0357712 -0.0153944 0)
(0.0292842 -0.0131904 0)
(0.0222168 -0.0129294 0)
(0.0154976 -0.0124577 0)
(0.0100554 -0.0116568 0)
(0.00621664 -0.0106721 0)
(0.00416824 -0.00957878 0)
(0.00400561 -0.00879959 0)
(0.00537356 -0.00898706 0)
(0.00762116 -0.00964839 0)
(0.0104633 -0.00991755 0)
(0.0139262 -0.00890936 0)
(0.0181319 -0.00560343 0)
(0.0239932 0.00102273 0)
(0.0299834 0.0101463 0)
(0.0356418 0.0208848 0)
(0.0427927 0.0337314 0)
(0.0505867 0.0483751 0)
(0.0726291 0.0667742 0)
(0.0858981 0.0745098 0)
(0.118192 0.0519941 0)
(0.157859 0.0440144 0)
(-0.0352151 0.0939595 0)
(0.886286 0.477548 0)
(-0.0702533 0.15661 0)
(0.106295 0.00355724 0)
(0.169716 -0.0174618 0)
(0.183413 -0.0368691 0)
(0.219291 -0.0707639 0)
(0.240775 -0.103207 0)
(0.242919 -0.126211 0)
(0.228589 -0.137336 0)
(0.202736 -0.13686 0)
(0.170252 -0.12658 0)
(0.135361 -0.109128 0)
(0.101111 -0.0872342 0)
(0.0700047 -0.0641321 0)
(0.043478 -0.0421969 0)
(0.0229017 -0.0240481 0)
(0.00870017 -0.0121684 0)
(-0.000515001 -0.00695463 0)
(-0.00704837 -0.00611855 0)
(-0.0125585 -0.00670343 0)
(-0.0173065 -0.00734518 0)
(-0.0211067 -0.00786401 0)
(-0.0238659 -0.00831788 0)
(-0.0255234 -0.00880353 0)
(-0.0261156 -0.00953413 0)
(-0.0259448 -0.0106688 0)
(-0.0253979 -0.0119419 0)
(-0.0246132 -0.012905 0)
(-0.023451 -0.0130538 0)
(-0.0215298 -0.0117977 0)
(-0.0178958 -0.00838632 0)
(-0.00921246 -0.00207598 0)
(-0.000420061 0.00625854 0)
(0.0102122 0.0146232 0)
(0.0219169 0.0217426 0)
(0.041675 0.0290709 0)
(0.0602697 0.0221462 0)
(0.0798 -0.00523354 0)
(0.138813 0.0403156 0)
(-0.413284 0.206622 0)
(1.03144 0.429886 0)
(0.496639 0.285015 0)
(0.503036 0.191043 0)
(0.512016 0.11925 0)
(0.487833 0.0675497 0)
(0.444544 0.0139838 0)
(0.394228 -0.0340947 0)
(0.34044 -0.0678474 0)
(0.282867 -0.0849854 0)
(0.223963 -0.087662 0)
(0.16708 -0.0799484 0)
(0.114943 -0.0658149 0)
(0.0686051 -0.0480752 0)
(0.0299523 -0.0300915 0)
(-0.00150422 -0.0140348 0)
(-0.0220226 -0.00429063 0)
(-0.0329355 -0.000694891 0)
(-0.0389503 -0.000274889 0)
(-0.0428734 -0.00128883 0)
(-0.0463122 -0.00265528 0)
(-0.0494875 -0.00398113 0)
(-0.0523874 -0.00521982 0)
(-0.0549783 -0.0064032 0)
(-0.0572759 -0.00758328 0)
(-0.0593982 -0.0088257 0)
(-0.0616192 -0.0101157 0)
(-0.0642764 -0.0112383 0)
(-0.0676772 -0.0118189 0)
(-0.0721532 -0.0113275 0)
(-0.0781655 -0.00906546 0)
(-0.0863174 -0.00420951 0)
(-0.0966592 0.00385789 0)
(-0.107216 0.014661 0)
(-0.122487 0.0283723 0)
(-0.146538 0.0450412 0)
(-0.181892 0.0634714 0)
(-0.231833 0.0796106 0)
(-0.288723 0.0908438 0)
(-0.357324 0.0971629 0)
(-0.619389 0.0992436 0)
(-0.147423 0.0821077 0)
(0.134203 0.0602862 0)
(0.217126 0.00418067 0)
(0.200612 -0.0300992 0)
(0.184706 -0.0438384 0)
(0.161936 -0.0479446 0)
(0.129223 -0.0458952 0)
(0.0905419 -0.0392076 0)
(0.0506958 -0.0292594 0)
(0.0126266 -0.016806 0)
(-0.0243007 -0.00325815 0)
(-0.0476982 0.00419668 0)
(-0.0618651 0.00747474 0)
(-0.0686705 0.00779395 0)
(-0.0720288 0.00697623 0)
(-0.0742354 0.00596776 0)
(-0.076144 0.00498624 0)
(-0.0780585 0.00408679 0)
(-0.080252 0.00320072 0)
(-0.0827921 0.00218233 0)
(-0.0855944 0.00108592 0)
(-0.088685 -2.34009e-05 0)
(-0.0921377 -0.00105905 0)
(-0.096051 -0.00186539 0)
(-0.100503 -0.0021932 0)
(-0.105498 -0.00172716 0)
(-0.110948 -0.000112301 0)
(-0.11664 0.00300849 0)
(-0.12197 0.00807785 0)
(-0.126163 0.0158514 0)
(-0.129643 0.0274501 0)
(-0.132658 0.043264 0)
(-0.136001 0.0624052 0)
(-0.140175 0.0812213 0)
(-0.141997 0.0898451 0)
(-0.124679 0.0674689 0)
(-0.0810092 -0.0254977 0)
(-0.278471 -0.203206 0)
(-0.0221703 0.230284 0)
(0.0635222 0.0983516 0)
(0.0369052 0.0179202 0)
(0.024695 -0.00522149 0)
(0.0146355 -0.0101704 0)
(-0.00459709 -0.0110633 0)
(-0.0296781 -0.00844878 0)
(-0.0552255 -0.00390935 0)
(-0.0766643 0.000513059 0)
(-0.09126 0.00338488 0)
(-0.0980711 0.00347039 0)
(-0.100465 0.00114016 0)
(-0.100706 -0.0019168 0)
(-0.100043 -0.00537137 0)
(-0.0995489 -0.00888746 0)
(-0.0995989 -0.0122342 0)
(-0.100221 -0.0152773 0)
(-0.101314 -0.0178025 0)
(-0.102734 -0.0196451 0)
(-0.104386 -0.0207605 0)
(-0.106324 -0.0212626 0)
(-0.108513 -0.0211653 0)
(-0.110946 -0.0206761 0)
(-0.113598 -0.0198761 0)
(-0.116363 -0.0186584 0)
(-0.119016 -0.0167899 0)
(-0.121191 -0.0138884 0)
(-0.122383 -0.00937062 0)
(-0.122069 -0.00305638 0)
(-0.119277 0.00558311 0)
(-0.11257 0.017409 0)
(-0.100662 0.0331738 0)
(-0.0832527 0.0524375 0)
(-0.0612162 0.0711093 0)
(-0.0374139 0.0820618 0)
(0.00261581 0.0664012 0)
(0.143286 -0.00473256 0)
(-0.207189 -0.113866 0)
(-0.102447 -0.348269 0)
(-0.438884 -0.120417 0)
(-0.310514 0.0950744 0)
(-0.227241 -0.0201274 0)
(-0.181245 -0.040447 0)
(-0.167253 -0.0279603 0)
(-0.164937 -0.0149543 0)
(-0.166154 -0.00467191 0)
(-0.166419 0.00386317 0)
(-0.163998 0.0114165 0)
(-0.159104 0.0183877 0)
(-0.151913 0.024744 0)
(-0.143375 0.0302158 0)
(-0.134917 0.034849 0)
(-0.127365 0.0391892 0)
(-0.121047 0.0434551 0)
(-0.115963 0.047726 0)
(-0.11194 0.0517954 0)
(-0.108834 0.0552857 0)
(-0.106553 0.0578382 0)
(-0.105017 0.0592328 0)
(-0.104151 0.0594304 0)
(-0.103898 0.0585592 0)
(-0.104201 0.0567373 0)
(-0.104983 0.0543665 0)
(-0.106142 0.0517156 0)
(-0.107522 0.0489089 0)
(-0.108861 0.0460443 0)
(-0.10974 0.0431894 0)
(-0.109483 0.0404043 0)
(-0.106838 0.0385758 0)
(-0.0999318 0.03839 0)
(-0.0863045 0.0406183 0)
(-0.0640971 0.0461651 0)
(-0.0338976 0.0555375 0)
(0.0142951 0.0683495 0)
(0.0588578 0.0696053 0)
(0.101317 0.0550384 0)
(0.163628 0.0261987 0)
(-0.21985 -0.0283717 0)
)
;

boundaryField
{
    floor
    {
        type            noSlip;
    }
    ceiling
    {
        type            noSlip;
    }
    sWall
    {
        type            noSlip;
    }
    nWall
    {
        type            noSlip;
    }
    sideWalls
    {
        type            empty;
    }
    glass1
    {
        type            noSlip;
    }
    glass2
    {
        type            noSlip;
    }
    sun
    {
        type            noSlip;
    }
    heatsource1
    {
        type            noSlip;
    }
    heatsource2
    {
        type            noSlip;
    }
    Table_master
    {
        type            noSlip;
    }
    Table_slave
    {
        type            noSlip;
    }
    inlet
    {
        type            fixedValue;
        value           uniform (0.3 0 0);
    }
    outlet
    {
        type            zeroGradient;
    }
}


// ************************************************************************* //
