// -*- C++ -*-
// File generated by PyFoam - sorry for the ugliness

FoamFile
{
 version 2.0;
 format ascii;
 class volScalarField;
 location "800";
 object T;
}

dimensions [ 0 0 0 1 0 0 0 ];

internalField nonuniform List<scalar> 459
(
  303.378
  303.114
  303.101
  303.098
  303.094
  303.09
  303.086
  303.08
  303.071
  303.06
  303.047
  303.036
  303.03
  303.028
  303.034
  303.117
  303.098
  303.09
  303.092
  303.096
  303.099
  303.103
  303.107
  303.11
  303.114
  303.118
  303.121
  303.125
  303.128
  303.132
  303.135
  303.139
  303.144
  303.163
  303.557
  303.156
  303.133
  303.136
  303.14
  303.141
  303.139
  303.132
  303.115
  303.091
  303.063
  303.039
  303.023
  303.015
  303.013
  303.01
  303.005
  303.119
  303.083
  303.076
  303.078
  303.082
  303.086
  303.088
  303.089
  303.09
  303.091
  303.092
  303.093
  303.094
  303.095
  303.097
  303.101
  303.106
  303.115
  303.146
  303.744
  303.207
  303.17
  303.182
  303.197
  303.208
  303.213
  303.207
  303.181
  303.137
  303.088
  303.047
  303.021
  303.01
  303.008
  303.009
  303.008
  303.072
  303.066
  303.069
  303.077
  303.086
  303.093
  303.093
  303.093
  303.092
  303.092
  303.092
  303.092
  303.091
  303.091
  303.091
  303.094
  303.098
  303.105
  303.139
  303.933
  303.269
  303.206
  303.226
  303.256
  303.285
  303.305
  303.301
  303.259
  303.189
  303.113
  303.054
  303.018
  303.004
  303.005
  303.01
  303.014
  303.024
  303.036
  303.052
  303.07
  303.088
  303.104
  303.116
  303.127
  303.135
  303.143
  303.15
  303.155
  303.159
  303.163
  303.165
  303.166
  303.143
  303.123
  303.113
  303.139
  304.117
  303.346
  303.246
  303.262
  303.304
  303.353
  303.395
  303.391
  303.329
  303.229
  303.125
  303.051
  303.01
  302.997
  303.001
  303.013
  303.026
  303.04
  303.058
  303.079
  303.101
  303.122
  303.141
  303.156
  303.169
  303.18
  303.189
  303.197
  303.201
  303.203
  303.202
  303.198
  303.191
  303.173
  303.148
  303.127
  303.136
  303.21
  303.255
  303.261
  304.283
  303.447
  303.31
  303.302
  303.342
  303.403
  303.468
  303.449
  303.359
  303.236
  303.119
  303.036
  302.993
  302.985
  302.999
  303.022
  303.045
  303.069
  303.094
  303.12
  303.145
  303.167
  303.185
  303.201
  303.213
  303.223
  303.231
  303.236
  303.239
  303.238
  303.233
  303.225
  303.213
  303.195
  303.17
  303.145
  303.139
  303.17
  303.187
  303.222
  304.431
  303.607
  303.463
  303.427
  303.444
  303.5
  303.531
  303.471
  303.343
  303.194
  303.068
  302.989
  302.96
  302.97
  303.003
  303.043
  303.081
  303.115
  303.145
  303.172
  303.196
  303.216
  303.233
  303.245
  303.255
  303.263
  303.268
  303.271
  303.271
  303.268
  303.259
  303.247
  303.233
  303.215
  303.192
  303.168
  303.155
  303.163
  303.173
  303.202
  304.649
  304.031
  303.867
  303.763
  303.714
  303.699
  303.605
  303.434
  303.236
  303.064
  302.952
  302.907
  302.919
  302.966
  303.028
  303.089
  303.138
  303.177
  303.206
  303.23
  303.248
  303.264
  303.276
  303.285
  303.291
  303.296
  303.298
  303.298
  303.296
  303.291
  303.283
  303.271
  303.257
  303.24
  303.223
  303.206
  303.199
  303.212
  303.231
  303.359
  304.959
  304.671
  304.405
  304.175
  303.988
  303.774
  303.447
  303.128
  302.897
  302.78
  302.762
  302.814
  302.907
  303.005
  303.099
  303.171
  303.214
  303.242
  303.263
  303.279
  303.293
  303.303
  303.311
  303.316
  303.319
  303.321
  303.321
  303.32
  303.318
  303.315
  303.313
  303.313
  303.315
  303.322
  303.336
  303.36
  303.393
  303.426
  303.448
  303.503
  297.044
  299.186
  300.31
  300.751
  301.179
  301.605
  302.004
  302.346
  302.623
  302.845
  303.04
  303.148
  303.213
  303.253
  303.278
  303.296
  303.309
  303.319
  303.327
  303.333
  303.338
  303.34
  303.342
  303.343
  303.344
  303.345
  303.345
  303.347
  303.348
  303.351
  303.355
  303.364
  303.378
  303.397
  303.421
  303.444
  303.463
  303.484
  297.483
  299.363
  300.296
  300.982
  301.565
  302.082
  302.493
  302.779
  302.979
  303.114
  303.202
  303.254
  303.287
  303.308
  303.323
  303.334
  303.342
  303.348
  303.352
  303.355
  303.357
  303.359
  303.361
  303.362
  303.363
  303.364
  303.365
  303.367
  303.368
  303.371
  303.374
  303.381
  303.39
  303.403
  303.42
  303.438
  303.436
  303.466
  299.525
  299.455
  299.451
  301.216
  302.075
  302.519
  302.773
  302.95
  303.079
  303.168
  303.231
  303.274
  303.302
  303.321
  303.333
  303.341
  303.347
  303.351
  303.354
  303.357
  303.359
  303.361
  303.363
  303.365
  303.367
  303.368
  303.37
  303.372
  303.373
  303.375
  303.376
  303.379
  303.381
  303.385
  303.39
  303.4
  303.41
  303.416
  303.418
  303.456
)
;

boundaryField
{
  floor
  {
    type wallHeatTransfer;
    Tinf uniform 305.2;
    alphaWall uniform 0.24;
    value nonuniform List<scalar> 29
(
  303.257
  303.519
  303.458
  303.423
  303.422
  303.432
  303.446
  303.464
  303.484
  303.504
  303.524
  303.543
  303.561
  303.578
  303.595
  303.612
  303.628
  303.647
  303.661
  303.701
  303.701
  303.603
  303.553
  303.525
  303.257
  303.519
  303.509
  303.327
  303.216
)
;
  }
  ceiling
  {
    type wallHeatTransfer;
    Tinf uniform 303.2;
    alphaWall uniform 0.24;
    value nonuniform List<scalar> 43
(
  299.779
  299.704
  299.692
  301.341
  302.152
  302.569
  302.805
  302.97
  303.089
  303.171
  303.228
  303.266
  303.29
  303.304
  303.313
  303.319
  303.323
  303.326
  303.328
  303.33
  303.332
  303.334
  303.336
  303.338
  303.34
  303.342
  303.344
  303.347
  303.349
  303.351
  303.354
  303.356
  303.36
  303.364
  303.37
  303.38
  303.389
  303.394
  303.395
  303.428
  304.878
  304.612
  297.831
)
;
  }
  sWall
  {
    type wallHeatTransfer;
    Tinf uniform 315.2;
    alphaWall uniform 0.36;
    value uniform 301.102;
  }
  nWall
  {
    type wallHeatTransfer;
    Tinf uniform 307.2;
    alphaWall uniform 0.36;
    value nonuniform List<scalar> 6
(
  303.989
  303.934
  303.853
  304.019
  303.997
  304.055
)
;
  }
  sideWalls
  {
    type empty;
  }
  glass1
  {
    type wallHeatTransfer;
    Tinf uniform 315.2;
    alphaWall uniform 4.3;
    value nonuniform List<scalar> 9
(
  311.498
  310.861
  310.459
  310.151
  309.894
  309.66
  309.478
  309.543
  309.765
)
;
  }
  glass2
  {
    type wallHeatTransfer;
    Tinf uniform 307.2;
    alphaWall uniform 4.3;
    value nonuniform List<scalar> 2
(
  305.728
  305.833
)
;
  }
  sun
  {
    type wallHeatTransfer;
    Tinf uniform 305.2;
    alphaWall uniform 0.24;
    value nonuniform List<scalar> 14
(
  303.573
  303.323
  303.308
  303.298
  303.288
  303.279
  303.27
  303.26
  303.249
  303.237
  303.227
  303.221
  303.223
  303.234
)
;
  }
  heatsource1
  {
    type fixedGradient;
    gradient uniform 0;
  }
  heatsource2
  {
    type fixedGradient;
    gradient uniform 0;
  }
  Table_master
  {
    type zeroGradient;
  }
  Table_slave
  {
    type zeroGradient;
  }
  inlet
  {
    type fixedValue;
    value uniform 293.15;
  }
  outlet
  {
    type zeroGradient;
  }
} 	// ************************************************************************* //

