/*--------------------------------*- C++ -*----------------------------------*\
  =========                 |
  \\      /  F ield         | OpenFOAM: The Open Source CFD Toolbox
   \\    /   O peration     | Website:  https://openfoam.org
    \\  /    A nd           | Version:  6
     \\/     M anipulation  |
\*---------------------------------------------------------------------------*/
FoamFile
{
    version     2.0;
    format      ascii;
    class       volScalarField;
    location    "400";
    object      epsilon;
}
// * * * * * * * * * * * * * * * * * * * * * * * * * * * * * * * * * * * * * //

dimensions      [0 2 -3 0 0 0 0];

internalField   nonuniform List<scalar> 
459
(
0.000171874
0.000199016
0.000194122
0.000212781
0.000229257
0.000243524
0.00025603
0.000267344
0.000278176
0.000287971
0.000293774
0.000294124
0.000288679
0.000279643
0.000269694
1.96517e-05
3.16792e-05
2.30489e-05
1.45279e-05
9.46063e-06
6.64213e-06
4.92407e-06
3.85313e-06
3.26445e-06
3.16726e-06
3.44752e-06
3.97644e-06
4.50948e-06
5.00043e-06
5.45025e-06
6.09443e-06
9.7318e-06
4.00317e-05
2.46693e-05
0.000546357
0.00108762
0.000182694
0.000161415
0.000156635
0.000154836
0.000155805
0.000160755
0.000170879
0.000185333
0.000199797
0.000210676
0.000214954
0.000214543
0.000225948
0.000284007
0.000197636
9.87068e-05
6.61256e-05
4.36512e-05
2.99989e-05
2.12055e-05
1.58392e-05
1.30628e-05
1.13683e-05
1.06463e-05
1.06021e-05
1.09032e-05
1.12707e-05
1.1672e-05
1.21149e-05
1.27894e-05
1.30128e-05
1.70933e-05
0.000113441
5.29827e-05
0.00116419
0.00331112
0.000265724
0.000158222
0.000149395
0.00015095
0.000157274
0.000168693
0.000185185
0.000205208
0.000223621
0.000234628
0.000235004
0.000228223
0.000227106
0.000249552
0.000367914
0.000167742
6.28068e-05
3.3789e-05
2.453e-05
2.02021e-05
1.85004e-05
3.55673e-05
2.67416e-05
2.15884e-05
1.8275e-05
1.59941e-05
1.4361e-05
1.31682e-05
1.23015e-05
1.18942e-05
1.194e-05
1.79949e-05
0.000187897
9.20028e-05
0.00215835
0.00765309
0.000516224
0.000166978
0.000149628
0.000155774
0.000167164
0.000183998
0.000207208
0.000235975
0.000260706
0.000271211
0.000264442
0.000245765
0.000226827
0.000222039
0.000252533
0.000308601
0.00012234
4.23353e-05
2.52097e-05
2.05396e-05
1.91026e-05
2.07277e-05
5.36415e-05
5.06939e-05
5.51987e-05
6.33699e-05
7.23962e-05
7.90278e-05
7.96747e-05
7.38382e-05
6.64859e-05
4.57988e-05
4.44173e-05
0.000368209
0.000111402
0.00365394
0.0144547
0.00118157
0.000197095
0.000148115
0.00015608
0.000173186
0.000199407
0.000238
0.00028821
0.000327668
0.000339893
0.000324372
0.000289104
0.000247536
0.000216613
0.000209442
0.000190117
7.70939e-05
3.67555e-05
2.36376e-05
2.04636e-05
2.04972e-05
2.286e-05
2.88907e-05
3.53675e-05
4.37267e-05
5.35459e-05
6.33123e-05
7.04013e-05
7.16799e-05
6.56936e-05
6.00378e-05
5.30245e-05
5.11356e-05
0.000170941
0.000210353
0.000155817
0.000180897
0.000278804
0.00580495
0.0219144
0.00296188
0.000347858
0.000168668
0.000160096
0.000175458
0.000209044
0.000275635
0.000370993
0.000429101
0.000439203
0.000411162
0.000356027
0.000288145
0.000229538
0.000203739
0.000158484
7.57e-05
3.71809e-05
2.57575e-05
2.38407e-05
2.5328e-05
2.99157e-05
3.78238e-05
4.86652e-05
6.23415e-05
7.83621e-05
9.53306e-05
0.000110159
0.000117853
0.000112359
9.37735e-05
7.68257e-05
6.73867e-05
0.000103876
0.000137487
0.000134116
0.000346881
0.000352435
0.00878117
0.0261525
0.00740611
0.00142934
0.000512796
0.000305227
0.000261472
0.000278862
0.00040192
0.000537247
0.000586147
0.000572351
0.000519578
0.000439564
0.000342594
0.000252395
0.000212966
0.000172903
8.30962e-05
4.12391e-05
3.16609e-05
3.09328e-05
3.40368e-05
4.14544e-05
5.26339e-05
6.7529e-05
8.65789e-05
0.000109936
0.000137204
0.000166209
0.00019223
0.000206715
0.000186159
0.000159978
0.000149088
0.000176915
0.000240988
0.000331767
0.000620021
0.00063453
0.00977169
0.0331977
0.0161231
0.0083796
0.00409227
0.00204731
0.00121838
0.000930518
0.000920364
0.000903112
0.0008411
0.000750713
0.000645959
0.00052838
0.000398418
0.000276619
0.000222271
0.00019338
9.307e-05
4.93003e-05
4.26858e-05
4.31547e-05
4.84761e-05
5.85962e-05
7.20559e-05
8.9456e-05
0.000112675
0.000143236
0.000182184
0.000230316
0.000287963
0.000354433
0.000427502
0.000465249
0.000581594
0.000923434
0.00162812
0.00242038
0.00570504
0.00164544
0.00932567
0.017042
0.0138392
0.0102295
0.00718306
0.00486338
0.003339
0.00243931
0.00185752
0.0014531
0.00116262
0.000943454
0.000765681
0.000601873
0.000434787
0.000281986
0.00021978
0.000213261
0.000103493
6.47463e-05
6.24074e-05
6.43386e-05
7.18255e-05
8.23024e-05
9.45063e-05
0.000111182
0.000135538
0.000169481
0.000215169
0.000276179
0.000357558
0.000465344
0.000605817
0.000788451
0.00102621
0.00133879
0.00165005
0.00188401
0.00210176
0.00128478
0.0061309
0.00758896
0.00607214
0.00456923
0.00341429
0.0025894
0.00200215
0.0015694
0.0012448
0.000993972
0.000789718
0.000603684
0.000418045
0.000251089
0.000191503
0.000234136
0.000128018
9.39647e-05
9.73162e-05
0.000106877
0.00012068
0.000126333
0.000129652
0.000139453
0.000158123
0.000185372
0.000222151
0.000271031
0.000335976
0.000423295
0.000541909
0.000696375
0.000877751
0.00106334
0.00118562
0.00117977
0.00103039
0.000652098
0.00439633
0.00703028
0.00562862
0.00418085
0.00316965
0.00241104
0.00183695
0.00140544
0.00107534
0.000821082
0.00062296
0.000466
0.00033435
0.000193155
0.00012244
0.000121187
0.000132744
0.000154381
0.000152252
0.000183343
0.000195215
0.000197105
0.000185933
0.000177185
0.000177159
0.000186582
0.000207346
0.000242647
0.000296784
0.00037621
0.00048831
0.0006347
0.000806787
0.000991906
0.00111216
0.00118194
0.000875086
0.000681593
0.00299776
0.00345987
0.00389907
0.00466175
0.00389881
0.00289074
0.00230784
0.00183459
0.00144649
0.0011357
0.000908659
0.000727352
0.00057525
0.000443681
0.000323336
0.000156254
0.000121949
0.000150384
0.000138801
0.000103859
0.000113034
0.00013267
0.000145921
0.000138448
0.000136251
0.000140119
0.00015011
0.000166132
0.000189312
0.000221883
0.000268117
0.00033326
0.000418849
0.000528151
0.000659515
0.000856304
0.000894876
0.000811275
0.00064727
0.000499515
)
;

boundaryField
{
    floor
    {
        Cmu             0.09;
        kappa           0.41;
        E               9.8;
        type            epsilonWallFunction;
        value           nonuniform List<scalar> 
29
(
0.000269694
1.96517e-05
3.16792e-05
2.30489e-05
1.45279e-05
9.46063e-06
6.64213e-06
4.92407e-06
3.85313e-06
3.26445e-06
3.16726e-06
3.44752e-06
3.97644e-06
4.50948e-06
5.00043e-06
5.45025e-06
6.09443e-06
9.7318e-06
4.00317e-05
2.46693e-05
2.46693e-05
5.29827e-05
9.20028e-05
0.000111402
0.000269694
1.96517e-05
9.87068e-05
0.000167742
0.000308601
)
;
    }
    ceiling
    {
        Cmu             0.09;
        kappa           0.41;
        E               9.8;
        type            epsilonWallFunction;
        value           nonuniform List<scalar> 
43
(
0.00299776
0.00345987
0.00389907
0.00466175
0.00389881
0.00289074
0.00230784
0.00183459
0.00144649
0.0011357
0.000908659
0.000727352
0.00057525
0.000443681
0.000323336
0.000156254
0.000121949
0.000150384
0.000138801
0.000103859
0.000113034
0.00013267
0.000145921
0.000138448
0.000136251
0.000140119
0.00015011
0.000166132
0.000189312
0.000221883
0.000268117
0.00033326
0.000418849
0.000528151
0.000659515
0.000856304
0.000894876
0.000811275
0.00064727
0.000499515
0.00932567
0.017042
0.00439633
)
;
    }
    sWall
    {
        Cmu             0.09;
        kappa           0.41;
        E               9.8;
        type            epsilonWallFunction;
        value           uniform 0.00299776;
    }
    nWall
    {
        Cmu             0.09;
        kappa           0.41;
        E               9.8;
        type            epsilonWallFunction;
        value           nonuniform List<scalar> 6(0.000278804 0.000352435 0.00063453 0.000652098 0.000681593 0.000499515);
    }
    sideWalls
    {
        type            empty;
    }
    glass1
    {
        Cmu             0.09;
        kappa           0.41;
        E               9.8;
        type            epsilonWallFunction;
        value           nonuniform List<scalar> 9(0.000171874 0.000546357 0.00116419 0.00215835 0.00365394 0.00580495 0.00878117 0.00977169 0.00932567);
    }
    glass2
    {
        Cmu             0.09;
        kappa           0.41;
        E               9.8;
        type            epsilonWallFunction;
        value           nonuniform List<scalar> 2(0.00164544 0.00128478);
    }
    sun
    {
        Cmu             0.09;
        kappa           0.41;
        E               9.8;
        type            epsilonWallFunction;
        value           nonuniform List<scalar> 
14
(
0.000171874
0.000199016
0.000194122
0.000212781
0.000229257
0.000243524
0.00025603
0.000267344
0.000278176
0.000287971
0.000293774
0.000294124
0.000288679
0.000279643
)
;
    }
    heatsource1
    {
        Cmu             0.09;
        kappa           0.41;
        E               9.8;
        type            epsilonWallFunction;
        value           nonuniform List<scalar> 3(0.000155817 0.000180897 0.000278804);
    }
    heatsource2
    {
        Cmu             0.09;
        kappa           0.41;
        E               9.8;
        type            epsilonWallFunction;
        value           nonuniform List<scalar> 4(0.000284007 0.000197636 0.000197636 0.000367914);
    }
    Table_master
    {
        Cmu             0.09;
        kappa           0.41;
        E               9.8;
        type            epsilonWallFunction;
        value           nonuniform List<scalar> 9(3.55673e-05 2.67416e-05 2.15884e-05 1.8275e-05 1.59941e-05 1.4361e-05 1.31682e-05 1.23015e-05 1.18942e-05);
    }
    Table_slave
    {
        Cmu             0.09;
        kappa           0.41;
        E               9.8;
        type            epsilonWallFunction;
        value           nonuniform List<scalar> 9(5.36415e-05 5.06939e-05 5.51987e-05 6.33699e-05 7.23962e-05 7.90278e-05 7.96747e-05 7.38382e-05 6.64859e-05);
    }
    inlet
    {
        type            turbulentMixingLengthDissipationRateInlet;
        mixingLength    0.01;
        phi             phi;
        k               k;
        value           uniform 0.000101881;
    }
    outlet
    {
        type            zeroGradient;
    }
}


// ************************************************************************* //
