// -*- C++ -*-
// File generated by PyFoam - sorry for the ugliness

FoamFile
{
 version 2.0;
 format ascii;
 class volScalarField;
 location "400";
 object T;
}

dimensions [ 0 0 0 1 0 0 0 ];

internalField nonuniform List<scalar> 459
(
  302.944
  302.641
  302.629
  302.626
  302.624
  302.621
  302.618
  302.615
  302.612
  302.609
  302.603
  302.596
  302.587
  302.578
  302.571
  302.516
  302.536
  302.52
  302.482
  302.429
  302.364
  302.286
  302.202
  302.125
  302.079
  302.061
  302.059
  302.055
  302.048
  302.039
  302.032
  302.039
  302.054
  302.06
  303.162
  302.673
  302.65
  302.652
  302.655
  302.658
  302.659
  302.659
  302.658
  302.654
  302.643
  302.627
  302.605
  302.58
  302.56
  302.551
  302.551
  302.582
  302.575
  302.564
  302.548
  302.524
  302.494
  302.453
  302.408
  302.367
  302.332
  302.3
  302.268
  302.236
  302.204
  302.174
  302.144
  302.115
  302.1
  302.074
  303.383
  302.719
  302.679
  302.691
  302.704
  302.717
  302.727
  302.734
  302.737
  302.734
  302.718
  302.689
  302.648
  302.604
  302.567
  302.549
  302.55
  302.594
  302.589
  302.58
  302.57
  302.559
  302.546
  302.524
  302.499
  302.475
  302.452
  302.43
  302.407
  302.383
  302.358
  302.331
  302.305
  302.272
  302.236
  302.135
  303.596
  302.779
  302.71
  302.729
  302.755
  302.782
  302.806
  302.826
  302.837
  302.835
  302.814
  302.77
  302.708
  302.637
  302.577
  302.545
  302.549
  302.57
  302.586
  302.596
  302.596
  302.593
  302.59
  302.589
  302.594
  302.6
  302.606
  302.611
  302.616
  302.619
  302.62
  302.619
  302.616
  302.547
  302.466
  302.338
  302.164
  303.798
  302.856
  302.742
  302.76
  302.796
  302.836
  302.876
  302.911
  302.934
  302.938
  302.915
  302.859
  302.775
  302.678
  302.59
  302.54
  302.538
  302.561
  302.59
  302.606
  302.612
  302.614
  302.615
  302.617
  302.622
  302.627
  302.632
  302.637
  302.641
  302.644
  302.644
  302.64
  302.633
  302.603
  302.543
  302.437
  302.313
  302.392
  302.493
  302.514
  303.974
  302.953
  302.79
  302.783
  302.82
  302.866
  302.915
  302.963
  303.003
  303.018
  302.996
  302.933
  302.835
  302.718
  302.603
  302.535
  302.528
  302.558
  302.596
  302.618
  302.628
  302.633
  302.634
  302.637
  302.641
  302.646
  302.651
  302.656
  302.66
  302.662
  302.661
  302.657
  302.647
  302.627
  302.587
  302.513
  302.426
  302.415
  302.433
  302.467
  304.109
  303.114
  302.928
  302.849
  302.85
  302.883
  302.928
  302.975
  303.028
  303.059
  303.039
  302.971
  302.866
  302.74
  302.611
  302.529
  302.519
  302.554
  302.602
  302.63
  302.643
  302.648
  302.649
  302.651
  302.655
  302.66
  302.666
  302.671
  302.675
  302.676
  302.675
  302.67
  302.659
  302.641
  302.612
  302.565
  302.513
  302.488
  302.48
  302.497
  304.335
  303.589
  303.366
  303.169
  303.051
  303.004
  303.001
  303.023
  303.069
  303.084
  303.047
  302.965
  302.853
  302.725
  302.595
  302.517
  302.511
  302.551
  302.61
  302.642
  302.657
  302.66
  302.66
  302.663
  302.667
  302.673
  302.678
  302.683
  302.686
  302.687
  302.686
  302.682
  302.673
  302.655
  302.633
  302.606
  302.582
  302.574
  302.57
  302.691
  304.649
  304.327
  304.047
  303.775
  303.552
  303.395
  303.297
  303.245
  303.202
  303.12
  303.015
  302.898
  302.777
  302.655
  302.538
  302.486
  302.501
  302.553
  302.623
  302.656
  302.669
  302.669
  302.669
  302.672
  302.677
  302.682
  302.688
  302.692
  302.695
  302.697
  302.698
  302.698
  302.699
  302.702
  302.709
  302.723
  302.747
  302.774
  302.797
  302.857
  298.132
  300.789
  302.058
  302.521
  302.699
  302.761
  302.761
  302.744
  302.705
  302.652
  302.588
  302.516
  302.441
  302.447
  302.499
  302.568
  302.639
  302.669
  302.68
  302.676
  302.675
  302.679
  302.685
  302.69
  302.695
  302.7
  302.704
  302.708
  302.712
  302.716
  302.721
  302.726
  302.735
  302.749
  302.768
  302.787
  302.803
  302.82
  298.48
  300.731
  301.592
  302.04
  302.262
  302.361
  302.395
  302.407
  302.409
  302.402
  302.388
  302.367
  302.344
  302.439
  302.533
  302.619
  302.657
  302.679
  302.69
  302.684
  302.683
  302.687
  302.692
  302.697
  302.701
  302.705
  302.709
  302.713
  302.717
  302.721
  302.725
  302.731
  302.739
  302.75
  302.762
  302.776
  302.772
  302.802
  299.699
  299.646
  299.643
  301.04
  301.581
  302.003
  302.117
  302.175
  302.204
  302.218
  302.231
  302.242
  302.253
  302.262
  302.283
  302.507
  302.633
  302.642
  302.664
  302.688
  302.705
  302.705
  302.705
  302.709
  302.712
  302.715
  302.717
  302.719
  302.72
  302.722
  302.724
  302.726
  302.728
  302.731
  302.735
  302.745
  302.751
  302.756
  302.757
  302.792
)
;

boundaryField
{
  floor
  {
    type wallHeatTransfer;
    Tinf uniform 305.2;
    alphaWall uniform 0.24;
    value nonuniform List<scalar> 29
(
  302.885
  303.1
  303.06
  303.084
  303.111
  303.128
  303.129
  303.118
  303.096
  303.069
  303.042
  303.016
  302.99
  302.967
  302.945
  302.924
  302.901
  302.831
  302.641
  302.711
  302.711
  302.622
  302.609
  302.613
  302.885
  303.1
  302.981
  302.944
  302.874
)
;
  }
  ceiling
  {
    type wallHeatTransfer;
    Tinf uniform 303.2;
    alphaWall uniform 0.24;
    value nonuniform List<scalar> 43
(
  299.922
  299.863
  299.853
  301.162
  301.677
  302.08
  302.191
  302.25
  302.281
  302.299
  302.316
  302.331
  302.346
  302.361
  302.388
  302.602
  302.715
  302.719
  302.739
  302.765
  302.778
  302.775
  302.774
  302.778
  302.781
  302.783
  302.783
  302.783
  302.783
  302.782
  302.781
  302.779
  302.778
  302.778
  302.779
  302.785
  302.791
  302.796
  302.799
  302.834
  304.581
  304.282
  298.75
)
;
  }
  sWall
  {
    type wallHeatTransfer;
    Tinf uniform 315.2;
    alphaWall uniform 0.36;
    value uniform 301.136;
  }
  nWall
  {
    type wallHeatTransfer;
    Tinf uniform 307.2;
    alphaWall uniform 0.36;
    value nonuniform List<scalar> 6
(
  303.301
  303.219
  303.146
  303.421
  303.399
  303.438
)
;
  }
  sideWalls
  {
    type empty;
  }
  glass1
  {
    type wallHeatTransfer;
    Tinf uniform 315.2;
    alphaWall uniform 4.3;
    value nonuniform List<scalar> 9
(
  311.997
  311.24
  310.73
  310.316
  309.973
  309.677
  309.408
  309.442
  309.646
)
;
  }
  glass2
  {
    type wallHeatTransfer;
    Tinf uniform 307.2;
    alphaWall uniform 4.3;
    value nonuniform List<scalar> 2
(
  305.372
  305.514
)
;
  }
  sun
  {
    type wallHeatTransfer;
    Tinf uniform 305.2;
    alphaWall uniform 0.24;
    value nonuniform List<scalar> 14
(
  303.245
  302.971
  302.962
  302.952
  302.944
  302.937
  302.931
  302.925
  302.919
  302.914
  302.907
  302.9
  302.894
  302.889
)
;
  }
  heatsource1
  {
    type fixedGradient;
    gradient uniform 0;
  }
  heatsource2
  {
    type fixedGradient;
    gradient uniform 0;
  }
  Table_master
  {
    type zeroGradient;
  }
  Table_slave
  {
    type zeroGradient;
  }
  inlet
  {
    type fixedValue;
    value uniform 293.15;
  }
  outlet
  {
    type zeroGradient;
  }
} 	// ************************************************************************* //

