// -*- C++ -*-
// File generated by PyFoam - sorry for the ugliness

FoamFile
{
 version 2.0;
 format ascii;
 class volScalarField;
 location "700";
 object T;
}

dimensions [ 0 0 0 1 0 0 0 ];

internalField nonuniform List<scalar> 459
(
  303.036
  302.78
  302.769
  302.767
  302.766
  302.764
  302.759
  302.752
  302.746
  302.744
  302.751
  302.765
  302.773
  302.779
  302.792
  303.073
  303.042
  303.025
  303.031
  303.049
  303.064
  303.077
  303.089
  303.1
  303.112
  303.123
  303.135
  303.147
  303.159
  303.171
  303.184
  303.199
  303.219
  303.256
  303.202
  302.814
  302.792
  302.794
  302.796
  302.795
  302.785
  302.766
  302.746
  302.737
  302.745
  302.762
  302.774
  302.779
  302.784
  302.783
  302.781
  303.077
  303.006
  302.992
  303.006
  303.03
  303.053
  303.065
  303.076
  303.086
  303.095
  303.105
  303.116
  303.126
  303.137
  303.149
  303.162
  303.18
  303.203
  303.249
  303.378
  302.862
  302.826
  302.837
  302.85
  302.854
  302.835
  302.792
  302.751
  302.732
  302.742
  302.765
  302.784
  302.792
  302.793
  302.792
  302.787
  303.026
  302.974
  302.97
  302.999
  303.039
  303.075
  303.08
  303.086
  303.094
  303.103
  303.112
  303.122
  303.133
  303.144
  303.155
  303.17
  303.185
  303.206
  303.251
  303.56
  302.923
  302.868
  302.892
  302.924
  302.94
  302.904
  302.824
  302.755
  302.725
  302.737
  302.77
  302.8
  302.815
  302.817
  302.813
  302.805
  302.815
  302.839
  302.885
  302.948
  303.018
  303.084
  303.138
  303.182
  303.216
  303.246
  303.272
  303.297
  303.32
  303.342
  303.362
  303.379
  303.308
  303.256
  303.236
  303.261
  303.741
  303.003
  302.918
  302.95
  303.008
  303.039
  302.971
  302.846
  302.754
  302.717
  302.733
  302.779
  302.826
  302.854
  302.861
  302.859
  302.857
  302.874
  302.911
  302.971
  303.044
  303.12
  303.192
  303.252
  303.305
  303.346
  303.38
  303.407
  303.428
  303.443
  303.452
  303.454
  303.446
  303.396
  303.323
  303.273
  303.274
  303.464
  303.541
  303.532
  303.909
  303.107
  302.996
  303.021
  303.121
  303.115
  302.998
  302.848
  302.738
  302.7
  302.729
  302.798
  302.868
  302.916
  302.937
  302.943
  302.952
  302.984
  303.038
  303.109
  303.186
  303.262
  303.33
  303.387
  303.433
  303.47
  303.499
  303.52
  303.534
  303.54
  303.539
  303.53
  303.51
  303.463
  303.391
  303.325
  303.301
  303.382
  303.424
  303.474
  304.071
  303.274
  303.162
  303.183
  303.246
  303.158
  302.975
  302.794
  302.685
  302.67
  302.732
  302.838
  302.942
  303.015
  303.055
  303.072
  303.094
  303.141
  303.208
  303.28
  303.353
  303.42
  303.477
  303.523
  303.559
  303.586
  303.605
  303.617
  303.623
  303.622
  303.613
  303.596
  303.569
  303.525
  303.463
  303.398
  303.359
  303.38
  303.405
  303.443
  304.296
  303.702
  303.573
  303.553
  303.398
  303.118
  302.832
  302.639
  302.58
  302.637
  302.766
  302.93
  303.072
  303.168
  303.213
  303.236
  303.269
  303.325
  303.394
  303.462
  303.522
  303.573
  303.614
  303.644
  303.667
  303.682
  303.69
  303.694
  303.691
  303.682
  303.668
  303.648
  303.622
  303.582
  303.535
  303.486
  303.46
  303.479
  303.501
  303.607
  304.622
  304.335
  304.095
  303.807
  303.178
  302.65
  302.367
  302.323
  302.456
  302.672
  302.899
  303.134
  303.284
  303.35
  303.384
  303.415
  303.457
  303.511
  303.57
  303.625
  303.669
  303.702
  303.726
  303.741
  303.75
  303.752
  303.748
  303.74
  303.728
  303.713
  303.698
  303.683
  303.671
  303.664
  303.665
  303.678
  303.705
  303.736
  303.754
  303.81
  296.155
  296.992
  298.655
  300.142
  301.241
  302.049
  302.664
  303.083
  303.289
  303.408
  303.477
  303.52
  303.554
  303.589
  303.63
  303.675
  303.718
  303.754
  303.781
  303.798
  303.807
  303.809
  303.806
  303.799
  303.788
  303.776
  303.762
  303.749
  303.737
  303.727
  303.719
  303.717
  303.722
  303.736
  303.76
  303.793
  303.838
  303.907
  296.613
  298.346
  300.321
  301.775
  302.554
  303.013
  303.291
  303.449
  303.544
  303.604
  303.646
  303.68
  303.711
  303.742
  303.774
  303.804
  303.829
  303.848
  303.859
  303.864
  303.862
  303.857
  303.848
  303.837
  303.826
  303.813
  303.801
  303.788
  303.777
  303.766
  303.759
  303.754
  303.755
  303.762
  303.778
  303.808
  303.835
  303.888
  301.944
  300.061
  299.86
  302.048
  302.944
  303.295
  303.474
  303.591
  303.67
  303.724
  303.764
  303.795
  303.82
  303.841
  303.86
  303.876
  303.891
  303.902
  303.909
  303.911
  303.91
  303.906
  303.899
  303.89
  303.881
  303.871
  303.86
  303.849
  303.839
  303.828
  303.817
  303.807
  303.797
  303.79
  303.784
  303.786
  303.795
  303.809
  303.825
  303.886
)
;

boundaryField
{
  floor
  {
    type wallHeatTransfer;
    Tinf uniform 305.2;
    alphaWall uniform 0.24;
    value nonuniform List<scalar> 29
(
  303.072
  303.446
  303.382
  303.331
  303.319
  303.333
  303.351
  303.376
  303.402
  303.427
  303.452
  303.477
  303.5
  303.523
  303.546
  303.568
  303.591
  303.616
  303.646
  303.702
  303.702
  303.655
  303.633
  303.624
  303.072
  303.446
  303.454
  303.343
  303.037
)
;
  }
  ceiling
  {
    type wallHeatTransfer;
    Tinf uniform 303.2;
    alphaWall uniform 0.24;
    value nonuniform List<scalar> 43
(
  302.028
  300.271
  300.08
  302.12
  302.961
  303.288
  303.454
  303.56
  303.631
  303.677
  303.71
  303.736
  303.757
  303.774
  303.79
  303.804
  303.815
  303.823
  303.827
  303.827
  303.824
  303.818
  303.81
  303.801
  303.792
  303.782
  303.772
  303.763
  303.754
  303.745
  303.738
  303.731
  303.726
  303.722
  303.72
  303.725
  303.734
  303.745
  303.757
  303.807
  304.557
  304.29
  297.038
)
;
  }
  sWall
  {
    type wallHeatTransfer;
    Tinf uniform 315.2;
    alphaWall uniform 0.36;
    value uniform 303.232;
  }
  nWall
  {
    type wallHeatTransfer;
    Tinf uniform 307.2;
    alphaWall uniform 0.36;
    value nonuniform List<scalar> 6
(
  304.225
  304.156
  304.06
  304.378
  304.353
  304.431
)
;
  }
  sideWalls
  {
    type empty;
  }
  glass1
  {
    type wallHeatTransfer;
    Tinf uniform 315.2;
    alphaWall uniform 4.3;
    value nonuniform List<scalar> 9
(
  311.089
  310.484
  310.108
  309.825
  309.591
  309.38
  309.234
  309.316
  309.555
)
;
  }
  glass2
  {
    type wallHeatTransfer;
    Tinf uniform 307.2;
    alphaWall uniform 4.3;
    value nonuniform List<scalar> 2
(
  305.843
  305.965
)
;
  }
  sun
  {
    type wallHeatTransfer;
    Tinf uniform 305.2;
    alphaWall uniform 0.24;
    value nonuniform List<scalar> 14
(
  303.245
  302.996
  302.982
  302.972
  302.962
  302.953
  302.943
  302.933
  302.926
  302.927
  302.94
  302.971
  302.997
  303.029
)
;
  }
  heatsource1
  {
    type fixedGradient;
    gradient uniform 0;
  }
  heatsource2
  {
    type fixedGradient;
    gradient uniform 0;
  }
  Table_master
  {
    type zeroGradient;
  }
  Table_slave
  {
    type zeroGradient;
  }
  inlet
  {
    type fixedValue;
    value uniform 293.15;
  }
  outlet
  {
    type zeroGradient;
  }
} 	// ************************************************************************* //

