/*--------------------------------*- C++ -*----------------------------------*\
  =========                 |
  \\      /  F ield         | OpenFOAM: The Open Source CFD Toolbox
   \\    /   O peration     | Website:  https://openfoam.org
    \\  /    A nd           | Version:  6
     \\/     M anipulation  |
\*---------------------------------------------------------------------------*/
FoamFile
{
    version     2.0;
    format      ascii;
    class       surfaceScalarField;
    location    "1300";
    object      phi;
}
// * * * * * * * * * * * * * * * * * * * * * * * * * * * * * * * * * * * * * //

dimensions      [1 0 -1 0 0 0 0];

internalField   nonuniform List<scalar> 
852
(
-0.00295941
0.00301675
-0.00400008
0.00104067
-0.00480082
0.000800745
-0.00542422
0.000623399
-0.0058368
0.00041258
-0.0060104
0.0001736
-0.00591679
-9.3611e-05
-0.00553412
-0.000382676
-0.00487866
-0.000655452
-0.00401599
-0.000862672
-0.00304647
-0.000969521
-0.00208199
-0.00096448
-0.00122477
-0.000857218
-0.000536716
-0.000688057
-0.000535049
-0.000784778
0.000787772
-0.000544083
-0.000240695
3.91951e-05
-0.000583278
0.000534895
-0.0004957
0.000879542
-0.000344647
0.00110493
-0.000225389
0.00123148
-0.000126555
0.00129325
-6.17684e-05
0.00132784
-3.4587e-05
0.0013496
-2.176e-05
0.00136241
-1.28121e-05
0.00136773
-5.3136e-06
0.00136432
3.40231e-06
0.00134551
1.88106e-05
0.0012911
5.44097e-05
0.00116702
0.000124087
0.00096196
0.000205056
0.000710892
0.000251068
0.000714912
-0.0021203
0.00529159
-0.00314109
0.00206145
-0.00397058
0.00163024
-0.00459028
0.00124309
-0.00500128
0.000823585
-0.00518436
0.000356676
-0.00510801
-0.000169961
-0.00475469
-0.000735989
-0.00415333
-0.00125682
-0.00338007
-0.00163593
-0.00253342
-0.00181617
-0.00170808
-0.00178982
-0.000984579
-0.00158072
-0.000436531
-0.0012361
-0.00016889
-0.00080269
0.000118412
-0.000287353
0.000118361
0.000236619
0.000559883
0.000631585
-0.00063566
0.000894998
-0.000846691
0.00111477
-0.000715469
0.00129002
-0.000519901
0.00140353
-0.000338897
0.00142405
-0.000147074
0.00142919
-6.69097e-05
0.00143538
-4.07779e-05
0.00144058
-2.69564e-05
0.0014441
-1.63398e-05
0.00144607
-7.28176e-06
0.00144598
3.49471e-06
0.00144078
2.40078e-05
0.00140386
9.13378e-05
0.00124439
0.000283548
0.000965459
0.000483991
0.000615972
0.000600555
0.0013411
-0.00149025
0.00701829
-0.00237318
0.00294439
-0.00311424
0.0023713
-0.00365031
0.00177917
-0.00401538
0.00118865
-0.004185
0.000526298
-0.00410482
-0.000250144
-0.00374947
-0.00109134
-0.00317376
-0.00183253
-0.00247153
-0.00233816
-0.00173804
-0.00254967
-0.00104571
-0.00248215
-0.000446507
-0.00217992
2.5297e-05
-0.00170791
0.000335363
-0.00111276
0.000474162
-0.000426152
0.000592523
0.0014846
-0.000915133
0.00170218
-0.000853245
0.00165442
-0.000798929
0.00163773
-0.000698778
0.00165806
-0.000540234
0.00169691
-0.000377741
0.00154999
0.00148323
0.00144261
0.0014158
0.00139962
0.00139249
0.00139614
0.0014203
0.00151179
0.0012508
0.00054454
0.000929239
0.000805548
0.000525062
0.00100473
0.0018816
-0.00104347
0.00836796
-0.00174543
0.00364635
-0.00224344
0.00286931
-0.00260256
0.00213829
-0.00285404
0.00144013
-0.00296071
0.000632969
-0.00282569
-0.000385162
-0.00243326
-0.00148378
-0.0018854
-0.00238038
-0.00128458
-0.00293898
-0.000706446
-0.0031278
-0.00019033
-0.00299827
0.000247946
-0.00261819
0.000609111
-0.00206907
0.000930098
-0.00143374
0.00129163
-0.000787684
0.00213379
-0.000249639
0.00247848
-0.000336293
0.00213579
-0.00057244
0.0020021
-0.000719558
0.00187223
-0.000669057
0.0017532
-0.000579744
0.00167489
-0.000461929
0.00160997
-0.000312815
0.00174029
-0.000130475
0.00181699
-7.68532e-05
0.00187773
-6.08909e-05
0.00192539
-4.78136e-05
0.00194714
-2.19026e-05
0.00192225
2.47362e-05
0.00182536
9.67331e-05
0.00162289
0.000202313
0.00126068
0.000362064
0.00110504
0.000700174
0.000800668
0.00110992
0.000338497
0.0014669
0.00224021
-0.000729071
0.00946243
-0.00126242
0.00417969
-0.00138441
0.0029913
-0.00147776
0.00223164
-0.00153977
0.00150213
-0.0014997
0.000592906
-0.00122376
-0.000661104
-0.000781904
-0.00192563
-0.000305769
-0.00285652
0.000125885
-0.00337063
0.000478954
-0.00348087
0.000748872
-0.00326818
0.000957636
-0.00282696
0.00113462
-0.00224606
0.00131374
-0.00161286
0.00154259
-0.00101653
0.00186449
-0.000571541
0.00196765
-0.000439459
0.00188766
-0.00049245
0.00171262
-0.000544511
0.00155305
-0.000509486
0.0014139
-0.000440595
0.00130885
-0.000356884
0.00125401
-0.000257972
0.00128663
-0.000163095
0.00133038
-0.000120609
0.00137943
-0.000109934
0.00143167
-0.000100051
0.00147814
-6.83761e-05
0.00149965
3.22541e-06
0.00147443
0.000121949
0.00138903
0.000287716
0.00124334
0.000507757
0.00110668
0.000836829
0.00095103
0.00126558
0.000598977
0.00181896
0.000497583
0.0023416
-0.000986668
0.00148405
-0.00144995
0.000463077
-0.00140152
-0.000631197
0.0105089
-0.000997469
0.00454597
-0.000602927
0.00259676
-0.000309241
0.00193795
-9.42215e-05
0.00128711
0.000231684
0.000267001
0.000714137
-0.00114356
0.00115234
-0.00236384
0.00146482
-0.003169
0.001638
-0.0035438
0.0016979
-0.00354077
0.00167662
-0.0032469
0.00160698
-0.00275732
0.00152651
-0.00216559
0.00146838
-0.00155473
0.00145742
-0.00100557
0.00148686
-0.000600978
0.00145428
-0.000406873
0.00132995
-0.000368126
0.00115127
-0.000365827
0.000985251
-0.000343469
0.000850403
-0.000305746
0.000755052
-0.000261532
0.000710285
-0.000213206
0.00072036
-0.000173169
0.00076124
-0.000161489
0.000819622
-0.000168315
0.000890555
-0.000170984
0.000969494
-0.000147316
0.00104715
-7.44277e-05
0.00110539
6.37058e-05
0.0011348
0.000258312
0.00114415
0.000498403
0.00117708
0.000803903
0.00127977
0.00116288
0.00146627
0.00163245
0.00191006
0.00189781
0.00216441
0.0012297
0.00177687
0.000850614
0.000433529
-0.000717523
0.0116863
-0.000603434
0.00443188
0.000473671
0.00151966
0.00115282
0.00125881
0.00172991
0.000710021
0.0023772
-0.000380288
0.0029309
-0.00169726
0.00323603
-0.00266897
0.00328687
-0.00321984
0.0031294
-0.00338633
0.00282795
-0.00323932
0.00244663
-0.00286559
0.00204055
-0.00235123
0.00165808
-0.00178312
0.00133196
-0.00122861
0.00108208
-0.000755694
0.000905233
-0.000424128
0.00075455
-0.00025619
0.000594559
-0.000208135
0.00043252
-0.000203789
0.000291112
-0.000202061
0.00018173
-0.000196364
0.00010919
-0.000188992
7.82673e-05
-0.000182284
8.79057e-05
-0.000182808
0.000124912
-0.000198495
0.000178985
-0.000222388
0.000248303
-0.000240302
0.00033718
-0.000236193
0.000452198
-0.000189445
0.000587717
-7.18136e-05
0.000728498
0.000117531
0.000880303
0.000346598
0.00108262
0.000601585
0.00138327
0.000862241
0.00184727
0.00116844
0.00252081
0.00122427
0.00304173
0.000708781
0.00306123
0.00083111
0.00355791
0.00260425
0.00959591
0.00328177
0.00375435
0.00344655
0.00135488
0.00390086
0.000804498
0.00459453
1.6349e-05
0.00528778
-0.00107354
0.00556944
-0.00197892
0.0054435
-0.00254303
0.00499834
-0.00277468
0.00433903
-0.00272702
0.00356809
-0.00246838
0.00277192
-0.00206942
0.00201127
-0.00159058
0.00134106
-0.00111291
0.000788118
-0.000675667
0.000374308
-0.000341884
9.83373e-05
-0.000148158
-8.56147e-05
-7.22378e-05
-0.000226923
-6.68263e-05
-0.000346434
-8.42783e-05
-0.000445583
-0.000102912
-0.000522047
-0.0001199
-0.000574471
-0.000136568
-0.000602277
-0.000154478
-0.000608428
-0.000176656
-0.000601696
-0.000205227
-0.000588227
-0.000235858
-0.00056786
-0.000260669
-0.000533423
-0.000270629
-0.000467814
-0.000255055
-0.000339683
-0.000199945
-0.00014481
-7.73422e-05
9.49157e-05
0.000106873
0.000387195
0.000309305
0.000750031
0.000499405
0.00122875
0.000689724
0.00173488
0.000718149
0.00187623
0.000567431
0.000933074
0.00177426
0.00475191
0.0101599
0.0139071
0.0122347
0.00302719
0.0113369
0.00170232
0.0106027
0.000750575
0.00970912
-0.00017996
0.00855881
-0.000828616
0.00725906
-0.00124328
0.00590415
-0.00141977
0.00456338
-0.00138625
0.00330004
-0.00120504
0.0021639
-0.000933282
0.00116672
-0.000593401
0.000349571
-0.000295766
-0.000253615
-7.24811e-05
-0.000629618
3.41188e-05
-0.000833268
5.54927e-05
-0.000948324
4.28179e-05
-0.00103168
1.65324e-05
-0.00110528
-1.06841e-05
-0.0011728
-3.53928e-05
-0.00123363
-5.90691e-05
-0.0012875
-8.26984e-05
-0.00133581
-0.000106162
-0.00138281
-0.000129663
-0.00143578
-0.000152248
-0.00150204
-0.000169606
-0.00158848
-0.000174227
-0.00170332
-0.000155791
-0.00185704
-0.000101327
-0.00205889
1.89833e-06
-0.00229954
0.000163315
-0.00258869
0.000396016
-0.00299679
0.000717412
-0.00362709
0.0011297
-0.00455262
0.00161526
-0.00590034
0.00206587
-0.00761007
0.00227717
-0.00743599
0.00160018
-0.00239529
0.00510173
0.00455444
0.00409386
0.00271019
0.00449169
0.000352748
0.00453061
-0.000218883
0.00412115
-0.000419149
0.0034346
-0.00055674
0.00258525
-0.000570412
0.0016657
-0.000466695
0.000749489
-0.000288836
-0.000108797
-7.49956e-05
-0.000804573
0.000102375
-0.00125951
0.000159173
-0.0015044
0.000172406
-0.00162362
0.000153339
-0.00168943
0.0001213
-0.00173555
8.89405e-05
-0.00177812
5.91018e-05
-0.00182253
3.37292e-05
-0.0018709
1.29767e-05
-0.00192513
-4.84229e-06
-0.00198561
-2.22151e-05
-0.00205274
-3.90304e-05
-0.00212861
-5.38015e-05
-0.00221548
-6.53773e-05
-0.00231455
-7.05312e-05
-0.00242519
-6.35862e-05
-0.0025439
-3.70835e-05
-0.0026634
1.8176e-05
-0.00277191
0.000110403
-0.00286418
0.000255591
-0.00294535
0.000477179
-0.00301708
0.000789143
-0.00307509
0.00118771
-0.00308013
0.0016203
-0.0029627
0.00194844
-0.00227501
0.00158947
-0.000586511
-8.83161e-05
-0.0029036
-0.000437532
0.0050486
0.000856896
0.00141576
0.000817856
0.000391788
0.00054095
5.80225e-05
0.000158553
-3.67517e-05
-0.000366537
-3.16486e-05
-0.000955351
1.84011e-05
-0.00150345
8.13993e-05
-0.00193133
0.000139052
-0.00218931
0.000182982
-0.00229003
0.000203095
-0.00232163
0.000190772
-0.00231538
0.000166157
-0.00230039
0.000138348
-0.00229241
0.000113316
-0.00229566
9.2191e-05
-0.00231012
7.35614e-05
-0.00233323
5.68483e-05
-0.00236205
4.17881e-05
-0.00239507
2.81853e-05
-0.00243327
1.59839e-05
-0.00247663
4.33095e-06
-0.0025246
-5.83581e-06
-0.00257639
-1.35853e-05
-0.00262951
-1.74107e-05
-0.00267853
-1.45714e-05
-0.00271432
-1.29096e-06
-0.00272612
2.99801e-05
-0.0027031
8.73831e-05
-0.00262522
0.000177706
-0.0024621
0.000314056
-0.0021853
0.000512349
-0.00177407
0.000776474
-0.00118518
0.00103141
-0.000119887
0.000883141
0.00176565
-0.000296063
0.00337675
-0.00169941
0.000558644
-0.0079338
-0.010788
-0.00569524
-0.0042566
-0.00385075
-0.00378353
-0.00381418
-0.00384201
-0.00382151
-0.0037393
-0.00360053
-0.00341877
-0.00321771
-0.00302968
-0.00286683
-0.00273226
-0.00262309
-0.00253535
-0.00246646
-0.00241444
-0.00237758
-0.00235438
-0.00234339
-0.00234404
-0.00235479
-0.00237322
-0.00239538
-0.00241459
-0.00242038
-0.00239476
-0.00231158
-0.00213791
-0.00182774
-0.00131913
-0.000546278
0.000481577
0.00136104
0.00106081
-0.000644134
)
;

boundaryField
{
    floor
    {
        type            calculated;
        value           nonuniform List<scalar> 
29
(
0
0
0
0
0
0
0
0
0
0
0
0
0
0
0
0
0
0
0
0
-4.01974e-06
-1.02161e-05
-1.54394e-05
-2.01073e-05
-1.66769e-06
-2.99456e-06
-8.73e-06
-9.58258e-06
-8.39867e-06
)
;
    }
    ceiling
    {
        type            calculated;
        value           nonuniform List<scalar> 
43
(
-4.66641e-05
-4.53915e-05
-4.41231e-05
-2.28718e-05
-1.40684e-05
-9.19545e-06
-6.10154e-06
-3.81519e-06
-2.10476e-06
-8.04272e-07
2.80372e-07
1.21755e-06
2.03615e-06
2.73825e-06
3.31374e-06
3.77532e-06
4.14741e-06
4.4455e-06
4.67233e-06
4.83078e-06
4.93031e-06
4.98305e-06
4.99659e-06
4.97574e-06
4.92272e-06
4.84434e-06
4.74786e-06
4.63511e-06
4.50331e-06
4.35471e-06
4.19969e-06
4.04127e-06
3.8852e-06
3.73973e-06
3.62162e-06
3.55842e-06
3.679e-06
4.16838e-06
5.52886e-06
6.47237e-06
1.02412e-05
7.19924e-06
-5.66297e-05
)
;
    }
    sWall
    {
        type            calculated;
        value           uniform -0.000271767;
    }
    nWall
    {
        type            calculated;
        value           nonuniform List<scalar> 6(-4.86293e-05 -5.81821e-05 -6.3152e-05 -7.8201e-05 -8.55001e-05 -9.19626e-05);
    }
    sideWalls
    {
        type            empty;
        value           nonuniform 0();
    }
    glass1
    {
        type            calculated;
        value           nonuniform List<scalar> 9(-5.73445e-05 -0.000154539 -0.000236453 -0.000306194 -0.000365398 -0.000415291 -0.000459881 -0.000513842 -0.00057423);
    }
    glass2
    {
        type            calculated;
        value           nonuniform List<scalar> 2(-0.000260923 -0.000288789);
    }
    sun
    {
        type            calculated;
        value           uniform 0;
    }
    heatsource1
    {
        type            calculated;
        value           nonuniform List<scalar> 3(2.04206e-07 2.0414e-07 2.04158e-07);
    }
    heatsource2
    {
        type            calculated;
        value           nonuniform List<scalar> 4(5.11947e-08 5.1279e-08 0 0);
    }
    Table_master
    {
        type            calculated;
        value           nonuniform List<scalar> 9(-1.5316e-07 -1.5325e-07 -1.53282e-07 -1.53304e-07 -1.5332e-07 -1.53331e-07 -1.53336e-07 -1.53332e-07 -1.53304e-07);
    }
    Table_slave
    {
        type            calculated;
        value           nonuniform List<scalar> 9(1.53041e-07 1.53063e-07 1.53045e-07 1.53029e-07 1.53023e-07 1.53026e-07 1.53039e-07 1.53079e-07 1.53157e-07);
    }
    inlet
    {
        type            calculated;
        value           uniform -0.00662898;
    }
    outlet
    {
        type            calculated;
        value           nonuniform List<scalar> 2(0.00825223 0.00289955);
    }
}


// ************************************************************************* //
