/*--------------------------------*- C++ -*----------------------------------*\
  =========                 |
  \\      /  F ield         | OpenFOAM: The Open Source CFD Toolbox
   \\    /   O peration     | Website:  https://openfoam.org
    \\  /    A nd           | Version:  6
     \\/     M anipulation  |
\*---------------------------------------------------------------------------*/
FoamFile
{
    version     2.0;
    format      ascii;
    class       surfaceScalarField;
    location    "1700";
    object      phi;
}
// * * * * * * * * * * * * * * * * * * * * * * * * * * * * * * * * * * * * * //

dimensions      [1 0 -1 0 0 0 0];

internalField   nonuniform List<scalar> 
852
(
-0.00295901
0.00301634
-0.00399986
0.00104085
-0.00480006
0.000800207
-0.00542295
0.000622888
-0.00583505
0.000412098
-0.00600826
0.000173212
-0.00591443
-9.38267e-05
-0.00553177
-0.000382664
-0.00487653
-0.000655238
-0.00401419
-0.000862344
-0.00304502
-0.00096917
-0.00208085
-0.00096417
-0.00122389
-0.000856954
-0.000536169
-0.000687724
-0.000534504
-0.000783761
0.000786751
-0.000541981
-0.00024178
4.17358e-05
-0.000583716
0.000537211
-0.000495475
0.000881447
-0.000344236
0.0011063
-0.000224853
0.00123247
-0.000126168
0.00129411
-6.16439e-05
0.00132861
-3.44943e-05
0.00135012
-2.15166e-05
0.00136268
-1.25606e-05
0.0013679
-5.21618e-06
0.00136462
3.27789e-06
0.00134583
1.87952e-05
0.0012914
5.44231e-05
0.00116745
0.000123951
0.00096248
0.000204971
0.000710908
0.000251572
0.000714925
-0.00211981
0.00529062
-0.00314053
0.00206156
-0.00396939
0.00162907
-0.00458857
0.00124206
-0.00499915
0.000822677
-0.00518195
0.000356014
-0.00510555
-0.000170225
-0.00475243
-0.000735783
-0.00415143
-0.00125624
-0.00337861
-0.00163516
-0.00253239
-0.00181539
-0.00170745
-0.00178911
-0.000984275
-0.00158013
-0.000436387
-0.00123561
-0.000168546
-0.000802344
0.000118606
-0.000287203
0.000118555
0.00023787
0.0005576
0.000633291
-0.000637201
0.000896589
-0.000847015
0.00111614
-0.000715029
0.00129084
-0.000518933
0.00140368
-0.000337692
0.00142404
-0.000146528
0.00142915
-6.67579e-05
0.00143531
-4.06544e-05
0.00144048
-2.66833e-05
0.00144392
-1.59985e-05
0.00144583
-7.12719e-06
0.00144566
3.45077e-06
0.0014404
2.40481e-05
0.0014035
9.13222e-05
0.0012442
0.00028326
0.000965577
0.00048359
0.00061608
0.00060107
0.00134122
-0.00148981
0.00701677
-0.00237273
0.00294449
-0.00311327
0.00236961
-0.00364889
0.00177768
-0.0040136
0.00118738
-0.00418304
0.000525455
-0.00410293
-0.000250331
-0.00374789
-0.00109082
-0.0031726
-0.00183154
-0.00247079
-0.00233698
-0.00173766
-0.00254851
-0.00104565
-0.00248112
-0.000446676
-0.00217911
2.50414e-05
-0.00170733
0.000335147
-0.00111245
0.000473994
-0.00042605
0.000592549
0.00148446
-0.000917299
0.00170188
-0.000854616
0.00165431
-0.000799443
0.00163758
-0.000698306
0.0016575
-0.000538849
0.00169506
-0.000375247
0.00154868
0.00148208
0.00144157
0.00141504
0.0013992
0.00139223
0.00139583
0.00142003
0.00151151
0.00125054
0.000544225
0.000929096
0.000805035
0.000525079
0.00100509
0.00188173
-0.00104309
0.00836591
-0.00174504
0.00364644
-0.00224291
0.00286748
-0.00260179
0.00213656
-0.00285303
0.00143862
-0.00295959
0.000632021
-0.00282476
-0.000385166
-0.0024327
-0.00148288
-0.00188521
-0.00237903
-0.00128469
-0.00293749
-0.000706782
-0.00312642
-0.000190844
-0.00299706
0.000247331
-0.00261728
0.000608499
-0.0020685
0.000929548
-0.0014335
0.00129122
-0.000787723
0.0021337
-0.000249934
0.00247907
-0.00033698
0.00213562
-0.000573846
0.00200142
-0.000720423
0.00187117
-0.000669186
0.00175202
-0.000579155
0.00167392
-0.000460755
0.00161007
-0.000311389
0.00173975
-0.000129837
0.0018162
-7.66018e-05
0.00187673
-6.06869e-05
0.00192409
-4.75131e-05
0.00194531
-2.1373e-05
0.0019197
2.54598e-05
0.00182217
9.73717e-05
0.00161947
0.000202556
0.00125767
0.000361639
0.0011028
0.000699101
0.000799116
0.00110872
0.000338075
0.00146613
0.0022399
-0.000728732
0.00945988
-0.00126201
0.00417972
-0.00138434
0.00298981
-0.00147767
0.00222989
-0.0015396
0.00150056
-0.00149956
0.00059198
-0.00122388
-0.000660848
-0.000782355
-0.00192441
-0.000306502
-0.00285488
0.000124954
-0.00336895
0.000477907
-0.00347937
0.000747771
-0.00326692
0.000956502
-0.00282601
0.0011335
-0.0022455
0.00131266
-0.00161266
0.00154157
-0.00101663
0.00186356
-0.000571929
0.00196677
-0.000440193
0.00188624
-0.000493315
0.00171075
-0.000544927
0.00155091
-0.000509348
0.00141184
-0.000440081
0.00130723
-0.000356153
0.00125303
-0.00025719
0.00128588
-0.000162685
0.00132986
-0.000120584
0.00137918
-0.000110009
0.00143158
-9.99068e-05
0.00147781
-6.76071e-05
0.00149864
4.63668e-06
0.00147257
0.000123441
0.00138647
0.000288648
0.0012405
0.000507615
0.00110398
0.00083562
0.000948958
0.00126374
0.000598348
0.00181674
0.000498834
0.00233942
-0.000984765
0.0014834
-0.00144871
0.000463738
-0.00140027
-0.000630885
0.0105059
-0.000996873
0.00454571
-0.00060297
0.0025959
-0.000309461
0.00193638
-9.45734e-05
0.00128567
0.000231079
0.000266328
0.000713148
-0.00114292
0.00115109
-0.00236235
0.00146337
-0.00316717
0.00163641
-0.00354199
0.00169622
-0.00353918
0.0016749
-0.0032456
0.00160523
-0.00275635
0.00152474
-0.002165
0.00146659
-0.00155451
0.0014556
-0.00100564
0.00148498
-0.000601307
0.00145224
-0.000407447
0.00132761
-0.000368689
0.00114879
-0.000366108
0.000982961
-0.00034352
0.000848676
-0.000305795
0.000754183
-0.00026166
0.000710376
-0.000213383
0.00072125
-0.000173558
0.000762805
-0.000162138
0.000821789
-0.000168993
0.000893149
-0.000171267
0.000972065
-0.000146524
0.00104886
-7.21589e-05
0.00110549
6.68118e-05
0.00113349
0.000260649
0.00114192
0.000499181
0.00117451
0.000803035
0.00127763
0.00116062
0.0014653
0.00162907
0.0019107
0.00189401
0.00216663
0.00122747
0.00177849
0.000851878
0.000436405
-0.000716249
0.0116819
-0.000601886
0.00443134
0.000474162
0.00151986
0.00115289
0.00125766
0.00172954
0.000709016
0.00237623
-0.000380358
0.00292943
-0.00169612
0.00323425
-0.00266716
0.00328489
-0.00321781
0.00312731
-0.0033844
0.00282579
-0.00323767
0.00244444
-0.00286425
0.00203832
-0.00235022
0.00165579
-0.00178247
0.00132955
-0.00122827
0.00107957
-0.000755665
0.000902679
-0.000424413
0.000752043
-0.000256811
0.000592243
-0.000208889
0.000430669
-0.000204533
0.000290034
-0.000202886
0.000181618
-0.000197379
0.000110108
-0.00019015
8.01791e-05
-0.000183454
9.06816e-05
-0.000184061
0.000128425
-0.000199881
0.000183105
-0.000223673
0.000252884
-0.000241046
0.000341961
-0.000235601
0.000456689
-0.000186887
0.000590522
-6.70213e-05
0.000729095
0.000122075
0.000879401
0.000348875
0.00108097
0.000601468
0.00138161
0.00085997
0.00184643
0.00116426
0.00252153
0.0012189
0.00304366
0.000705346
0.00306122
0.000834317
0.00356072
0.0026037
0.00959186
0.00328199
0.00375305
0.00344742
0.00135443
0.00390128
0.000803797
0.00459396
1.63437e-05
0.00528619
-0.00107259
0.00556737
-0.0019773
0.00544123
-0.00254103
0.00499603
-0.0027726
0.00433673
-0.0027251
0.00356581
-0.00246674
0.00276963
-0.00206807
0.00200894
-0.00158953
0.00133863
-0.00111217
0.000785548
-0.000675187
0.000371816
-0.000341932
9.619e-05
-0.000148787
-8.71456e-05
-7.34756e-05
-0.000227663
-6.83719e-05
-0.000346313
-8.58825e-05
-0.000444609
-0.00010459
-0.000520333
-0.000121655
-0.00057215
-0.000138333
-0.000599427
-0.000156177
-0.00060515
-0.000178338
-0.000598104
-0.000206927
-0.000584443
-0.000237335
-0.000563962
-0.000261526
-0.000529347
-0.000270215
-0.000463365
-0.000252869
-0.000334694
-0.000195692
-0.000141199
-7.14193e-05
9.60405e-05
0.000111635
0.000386616
0.000310892
0.000747815
0.000498771
0.00122452
0.000687549
0.00172835
0.000715079
0.00186842
0.000565275
0.000929645
0.00177309
0.00475105
0.0101557
0.0139016
0.0122309
0.00302507
0.0113332
0.00170149
0.010599
0.00075055
0.00970575
-0.000179329
0.00855587
-0.000827419
0.00725655
-0.00124171
0.00590203
-0.00141808
0.00456155
-0.00138462
0.00329836
-0.00120355
0.00216224
-0.000931957
0.00116504
-0.000592325
0.000347915
-0.000295047
-0.000254831
-7.24414e-05
-0.000630011
3.32476e-05
-0.000832855
5.40573e-05
-0.000947321
4.09898e-05
-0.00103028
1.45911e-05
-0.00110354
-1.26297e-05
-0.00117082
-3.73068e-05
-0.00123163
-6.08481e-05
-0.00128568
-8.42763e-05
-0.0013343
-0.000107557
-0.00138169
-0.000130953
-0.00143508
-0.000153532
-0.00150167
-0.000170753
-0.00158823
-0.000174958
-0.00170274
-0.000155707
-0.00185548
-0.000100134
-0.00205534
4.16963e-06
-0.00229299
0.000166231
-0.00258013
0.000398778
-0.00298822
0.000718976
-0.00361882
0.00112937
-0.00454448
0.00161321
-0.00589233
0.00206294
-0.00760196
0.0022749
-0.00742951
0.00160064
-0.00238988
0.0051006
0.00455357
0.00409288
0.00270921
0.00449086
0.000352568
0.00452986
-0.000218333
0.00412055
-0.000418106
0.00343427
-0.000555427
0.00258525
-0.000569063
0.00166602
-0.000465397
0.00075011
-0.000287641
-0.000107783
-7.40637e-05
-0.00080293
0.000102822
-0.00125719
0.000159215
-0.00150172
0.000172089
-0.00162107
0.000152597
-0.00168719
0.000120174
-0.00173376
8.75656e-05
-0.00177686
5.76886e-05
-0.00182192
3.24237e-05
-0.00187114
1.19203e-05
-0.00192625
-5.74073e-06
-0.0019875
-2.30257e-05
-0.00205524
-3.98161e-05
-0.00213154
-5.46537e-05
-0.00221857
-6.65049e-05
-0.00231742
-7.19026e-05
-0.00242739
-6.49824e-05
-0.00254492
-3.81784e-05
-0.00266279
1.77348e-05
-0.00276954
0.00011092
-0.00286029
0.000256977
-0.00294036
0.000478847
-0.00301164
0.000790262
-0.00306994
0.00118767
-0.00307589
0.00161917
-0.0029599
0.00194694
-0.00227552
0.00159052
-0.000589336
-8.55518e-05
-0.00290102
-0.000437137
0.00504734
0.000856713
0.00141536
0.000817409
0.000391872
0.000540738
5.83381e-05
0.000158898
-3.6266e-05
-0.000365532
-3.09968e-05
-0.000953553
1.8958e-05
-0.00150067
8.17158e-05
-0.00192755
0.000139247
-0.0021847
0.000183081
-0.00228495
0.000203078
-0.00231634
0.000190597
-0.00231009
0.000165842
-0.00229546
0.000137963
-0.00228829
0.000113004
-0.00229282
9.21052e-05
-0.0023089
7.37666e-05
-0.00233371
5.72325e-05
-0.00236394
4.2148e-05
-0.00239806
2.83831e-05
-0.00243697
1.5885e-05
-0.00248071
3.91831e-06
-0.00252883
-6.52996e-06
-0.00258074
-1.45932e-05
-0.00263396
-1.86862e-05
-0.002683
-1.59404e-05
-0.00271865
-2.53073e-06
-0.00272989
2.89756e-05
-0.00270594
8.69722e-05
-0.00262692
0.000177955
-0.00246274
0.000314667
-0.00218524
0.000512763
-0.00177376
0.00077618
-0.00118503
0.00103044
-0.00012126
0.000883177
0.00176328
-0.000294012
0.00337486
-0.00169714
0.00055931
-0.00793128
-0.0107849
-0.00569345
-0.00425523
-0.00384931
-0.00378179
-0.00381198
-0.00383918
-0.00381813
-0.00373564
-0.0035967
-0.00341486
-0.00321385
-0.00302601
-0.00286351
-0.00272934
-0.0026205
-0.00253287
-0.00246381
-0.00241145
-0.00237429
-0.00235095
-0.00234012
-0.00234124
-0.00235276
-0.00237226
-0.00239577
-0.00241641
-0.00242351
-0.00239895
-0.00231623
-0.00214237
-0.00183164
-0.00132267
-0.000550155
0.000476684
0.00135614
0.00105792
-0.000644791
)
;

boundaryField
{
    floor
    {
        type            calculated;
        value           nonuniform List<scalar> 
29
(
0
0
0
0
0
0
0
0
0
0
0
0
0
0
0
0
0
0
0
0
-4.01751e-06
-1.02114e-05
-1.54319e-05
-2.00991e-05
-1.66561e-06
-2.99018e-06
-8.71857e-06
-9.56494e-06
-8.38693e-06
)
;
    }
    ceiling
    {
        type            calculated;
        value           nonuniform List<scalar> 
43
(
-4.6665e-05
-4.53901e-05
-4.41203e-05
-2.28601e-05
-1.40528e-05
-9.17783e-06
-6.08267e-06
-3.79552e-06
-2.08376e-06
-7.80317e-07
3.06806e-07
1.24525e-06
2.06316e-06
2.76213e-06
3.33467e-06
3.79505e-06
4.16779e-06
4.46936e-06
4.70489e-06
4.87539e-06
4.98531e-06
5.04328e-06
5.05874e-06
5.03898e-06
4.98795e-06
4.91231e-06
4.8163e-06
4.70155e-06
4.56887e-06
4.41755e-06
4.2567e-06
4.09397e-06
3.93547e-06
3.78911e-06
3.66793e-06
3.5972e-06
3.7171e-06
4.21113e-06
5.57395e-06
6.51219e-06
1.02486e-05
7.2065e-06
-5.66371e-05
)
;
    }
    sWall
    {
        type            calculated;
        value           uniform -0.000271792;
    }
    nWall
    {
        type            calculated;
        value           nonuniform List<scalar> 6(-4.86428e-05 -5.81849e-05 -6.30998e-05 -7.81959e-05 -8.54713e-05 -9.19935e-05);
    }
    sideWalls
    {
        type            empty;
        value           nonuniform 0();
    }
    glass1
    {
        type            calculated;
        value           nonuniform List<scalar> 9(-5.73271e-05 -0.000154474 -0.000236343 -0.00030605 -0.000365237 -0.000415127 -0.000459732 -0.000513696 -0.000574093);
    }
    glass2
    {
        type            calculated;
        value           nonuniform List<scalar> 2(-0.000260678 -0.000288575);
    }
    sun
    {
        type            calculated;
        value           uniform 0;
    }
    heatsource1
    {
        type            calculated;
        value           nonuniform List<scalar> 3(2.04202e-07 2.04137e-07 2.04155e-07);
    }
    heatsource2
    {
        type            calculated;
        value           nonuniform List<scalar> 4(5.11939e-08 5.12783e-08 0 0);
    }
    Table_master
    {
        type            calculated;
        value           nonuniform List<scalar> 9(-1.53158e-07 -1.53247e-07 -1.5328e-07 -1.53302e-07 -1.53317e-07 -1.53328e-07 -1.53334e-07 -1.5333e-07 -1.53302e-07);
    }
    Table_slave
    {
        type            calculated;
        value           nonuniform List<scalar> 9(1.53038e-07 1.5306e-07 1.53042e-07 1.53027e-07 1.5302e-07 1.53024e-07 1.53038e-07 1.53078e-07 1.53156e-07);
    }
    inlet
    {
        type            calculated;
        value           uniform -0.0066291;
    }
    outlet
    {
        type            calculated;
        value           nonuniform List<scalar> 2(0.00824974 0.00289902);
    }
}


// ************************************************************************* //
