// -*- C++ -*-
// File generated by PyFoam - sorry for the ugliness

FoamFile
{
 version 2.0;
 format ascii;
 class volVectorField;
 location "1200";
 object U;
}

dimensions [ 0 1 -1 0 0 0 0 ];

internalField nonuniform List<vector> 459
(
  (0.0351508 0.0857334 0)
  (-0.166732 0.0252518 0)
  (-0.191087 0.0178521 0)
  (-0.222097 0.0122899 0)
  (-0.244743 0.0061312 0)
  (-0.257958 -0.000427665 0)
  (-0.260098 -0.00745967 0)
  (-0.249772 -0.0149949 0)
  (-0.227495 -0.0224195 0)
  (-0.194987 -0.0284319 0)
  (-0.155815 -0.0319366 0)
  (-0.114261 -0.0323808 0)
  (-0.0744987 -0.029986 0)
  (-0.041785 -0.026031 0)
  (-0.030159 -0.0224526 0)
  (-0.00519757 0.00872707 0)
  (-0.0286738 -0.0168942 0)
  (-0.00681507 -0.0265072 0)
  (0.0164339 -0.0202234 0)
  (0.0318319 -0.0138022 0)
  (0.0443139 -0.0089125 0)
  (0.0521225 -0.0051844 0)
  (0.0561472 -0.00323478 0)
  (0.0579435 -0.00245287 0)
  (0.0588214 -0.00211645 0)
  (0.0593563 -0.00190922 0)
  (0.0596418 -0.00174259 0)
  (0.0596226 -0.0015376 0)
  (0.0591157 -0.00113158 0)
  (0.0576038 -0.000161504 0)
  (0.0539755 0.00187158 0)
  (0.0470273 0.00397437 0)
  (0.041211 0.00549233 0)
  (-0.0148416 0.0201226 0)
  (0.210431 0.175742 0)
  (-0.156401 0.0668586 0)
  (-0.154321 0.0528991 0)
  (-0.186538 0.0413527 0)
  (-0.209034 0.0282287 0)
  (-0.222531 0.0134199 0)
  (-0.225359 -0.0034197 0)
  (-0.215927 -0.0218103 0)
  (-0.195343 -0.0392735 0)
  (-0.165743 -0.0527329 0)
  (-0.130855 -0.0600312 0)
  (-0.0947286 -0.0604103 0)
  (-0.0609514 -0.0544851 0)
  (-0.0331108 -0.0438971 0)
  (-0.0153235 -0.0310119 0)
  (-0.00128547 -0.0127895 0)
  (-0.00167173 0.015425 0)
  (0.0636919 0.0359068 0)
  (0.0253913 -0.0177242 0)
  (0.0335218 -0.0309467 0)
  (0.0445831 -0.0274562 0)
  (0.0533954 -0.0196646 0)
  (0.0598061 -0.0122176 0)
  (0.0625648 -0.0051524 0)
  (0.0630828 -0.00110821 0)
  (0.063029 0.000586124 0)
  (0.0631342 0.0013403 0)
  (0.0633337 0.00180467 0)
  (0.0634799 0.00218864 0)
  (0.0635292 0.00265064 0)
  (0.0634412 0.00350322 0)
  (0.0627122 0.00560326 0)
  (0.0590376 0.0114746 0)
  (0.049698 0.0162556 0)
  (0.045912 0.0191489 0)
  (-0.0517228 0.0438281 0)
  (0.371216 0.263106 0)
  (-0.173888 0.106734 0)
  (-0.116003 0.0857437 0)
  (-0.147552 0.0650397 0)
  (-0.167635 0.0433857 0)
  (-0.180281 0.0193077 0)
  (-0.182879 -0.00812174 0)
  (-0.172808 -0.037628 0)
  (-0.152395 -0.0647988 0)
  (-0.124718 -0.0845507 0)
  (-0.0937266 -0.0941128 0)
  (-0.0630299 -0.0931259 0)
  (-0.0349734 -0.0830344 0)
  (-0.0117324 -0.0659632 0)
  (0.00559397 -0.0432729 0)
  (0.017242 -0.016667 0)
  (0.0221717 0.0202642 0)
  (0.111208 -0.028214 0)
  (0.0741972 -0.0379553 0)
  (0.0685582 -0.0380055 0)
  (0.0701191 -0.0323692 0)
  (0.0715049 -0.0243834 0)
  (0.0727879 -0.0174057 0)
  (0.0715303 -0.0139694 0)
  (0.0670675 -0.00991761 0)
  (0.0638431 -0.00770273 0)
  (0.0624011 -0.00643242 0)
  (0.0618023 -0.00561575 0)
  (0.0615155 -0.00504897 0)
  (0.0615319 -0.00454319 0)
  (0.0622814 -0.00374326 0)
  (0.0648608 -0.000716101 0)
  (0.0628134 0.016045 0)
  (0.0496594 0.0275443 0)
  (0.0527034 0.0349323 0)
  (-0.0840505 0.0684656 0)
  (0.516216 0.333444 0)
  (-0.209207 0.142222 0)
  (-0.0751906 0.113771 0)
  (-0.10561 0.0852731 0)
  (-0.120241 0.0575368 0)
  (-0.129758 0.0260166 0)
  (-0.129658 -0.0117877 0)
  (-0.116551 -0.0530419 0)
  (-0.0955539 -0.0892977 0)
  (-0.070701 -0.11374 0)
  (-0.0453235 -0.12405 0)
  (-0.0221544 -0.121018 0)
  (-0.00152612 -0.107032 0)
  (0.0157223 -0.0849492 0)
  (0.0300942 -0.0586974 0)
  (0.045325 -0.0298712 0)
  (0.0670838 0.00139045 0)
  (0.0975408 0.0147719 0)
  (0.103139 -0.0237817 0)
  (0.0896073 -0.033717 0)
  (0.0809674 -0.032479 0)
  (0.0763201 -0.0281699 0)
  (0.0729211 -0.0220838 0)
  (0.0707668 -0.0144053 0)
  (0.0723078 -0.00882956 0)
  (0.077379 -0.00673823 0)
  (0.081754 -0.00557339 0)
  (0.0847805 -0.00472226 0)
  (0.0867244 -0.00373083 0)
  (0.0871122 -0.00231561 0)
  (0.0847573 -0.000219186 0)
  (0.0784042 0.00285487 0)
  (0.0655747 0.00743271 0)
  (0.0531111 0.0267012 0)
  (0.0406435 0.042863 0)
  (0.0569744 0.0553576 0)
  (-0.118574 0.0905278 0)
  (0.641646 0.388001 0)
  (-0.252146 0.171331 0)
  (-0.0344339 0.13003 0)
  (-0.0616296 0.0969424 0)
  (-0.0681858 0.0658595 0)
  (-0.0718391 0.029553 0)
  (-0.0635723 -0.0175025 0)
  (-0.0449992 -0.0698555 0)
  (-0.0246113 -0.111828 0)
  (-0.00536142 -0.137193 0)
  (0.011437 -0.145275 0)
  (0.0241691 -0.138609 0)
  (0.0342171 -0.121722 0)
  (0.0422736 -0.0980452 0)
  (0.0496007 -0.0710863 0)
  (0.0581645 -0.0445307 0)
  (0.0707196 -0.0245439 0)
  (0.081405 -0.0225722 0)
  (0.0827491 -0.029858 0)
  (0.0765913 -0.0302543 0)
  (0.0686643 -0.0270077 0)
  (0.0622693 -0.0229616 0)
  (0.0575522 -0.018341 0)
  (0.0548444 -0.0130281 0)
  (0.0549645 -0.0075104 0)
  (0.0575671 -0.00486264 0)
  (0.0605349 -0.0039068 0)
  (0.0633789 -0.003116 0)
  (0.0659753 -0.00147514 0)
  (0.067959 0.0016332 0)
  (0.0680535 0.00628849 0)
  (0.0656406 0.0126189 0)
  (0.0601522 0.0212431 0)
  (0.0531139 0.0364651 0)
  (0.0426229 0.0544025 0)
  (0.0651938 0.0743179 0)
  (-0.0233036 0.102867 0)
  (0.0460787 0.0308837 0)
  (-0.0627659 -0.0347851 0)
  (-0.273529 -0.0575262 0)
  (0.732754 0.433574 0)
  (-0.293908 0.191068 0)
  (-0.00317539 0.126752 0)
  (-0.0167551 0.0984117 0)
  (-0.0128001 0.0684519 0)
  (-0.00839357 0.0277388 0)
  (0.0184304 -0.0333611 0)
  (0.0404025 -0.0899652 0)
  (0.0562254 -0.129489 0)
  (0.0661217 -0.150296 0)
  (0.0706215 -0.154186 0)
  (0.0709811 -0.144532 0)
  (0.0687084 -0.12537 0)
  (0.0652282 -0.100644 0)
  (0.0620173 -0.0740609 0)
  (0.0604878 -0.0492288 0)
  (0.0615558 -0.0304007 0)
  (0.062309 -0.0223983 0)
  (0.0591054 -0.0215039 0)
  (0.0522409 -0.0212241 0)
  (0.0445136 -0.0195169 0)
  (0.0381476 -0.0171134 0)
  (0.0336523 -0.0143617 0)
  (0.0312905 -0.0113016 0)
  (0.0312744 -0.00853579 0)
  (0.0332105 -0.00752359 0)
  (0.0360679 -0.00743407 0)
  (0.0394039 -0.00703554 0)
  (0.0430277 -0.0053221 0)
  (0.04664 -0.0013992 0)
  (0.0499456 0.00507112 0)
  (0.0516194 0.013657 0)
  (0.0519666 0.024464 0)
  (0.0523892 0.038976 0)
  (0.0509638 0.0566974 0)
  (0.0736979 0.0794059 0)
  (0.0523644 0.0968565 0)
  (0.0935475 0.0675347 0)
  (0.116623 0.0444822 0)
  (-0.129937 -0.00748006 0)
  (0.784045 0.475005 0)
  (-0.314953 0.176719 0)
  (0.0233419 0.0776119 0)
  (0.0413401 0.0756293 0)
  (0.0556947 0.0553663 0)
  (0.0785183 0.00677841 0)
  (0.113894 -0.0577728 0)
  (0.134032 -0.107841 0)
  (0.141246 -0.138862 0)
  (0.138324 -0.151969 0)
  (0.127897 -0.149987 0)
  (0.112797 -0.136559 0)
  (0.0955602 -0.115483 0)
  (0.0783763 -0.0906844 0)
  (0.0629536 -0.0654697 0)
  (0.050548 -0.0428883 0)
  (0.0416652 -0.0260905 0)
  (0.0349253 -0.0172816 0)
  (0.0282377 -0.0144955 0)
  (0.0211078 -0.0138432 0)
  (0.0144596 -0.0131219 0)
  (0.00921492 -0.0122089 0)
  (0.00565305 -0.0112379 0)
  (0.00390831 -0.0102562 0)
  (0.0040154 -0.00964573 0)
  (0.00558275 -0.00995196 0)
  (0.00797938 -0.0106368 0)
  (0.0109465 -0.0108409 0)
  (0.0145253 -0.00968807 0)
  (0.0188407 -0.00615326 0)
  (0.0248271 0.000803732 0)
  (0.030958 0.0102961 0)
  (0.0366304 0.0213022 0)
  (0.0437659 0.0342899 0)
  (0.0514585 0.0489569 0)
  (0.0736954 0.0673549 0)
  (0.0867081 0.0746639 0)
  (0.119152 0.0517392 0)
  (0.158948 0.0437652 0)
  (-0.03487 0.0942113 0)
  (0.888577 0.478121 0)
  (-0.0723018 0.15653 0)
  (0.105312 0.00493142 0)
  (0.167437 -0.0130874 0)
  (0.178953 -0.0294954 0)
  (0.212753 -0.0642752 0)
  (0.235599 -0.098116 0)
  (0.239401 -0.122884 0)
  (0.22664 -0.135867 0)
  (0.202238 -0.137091 0)
  (0.170937 -0.128202 0)
  (0.136933 -0.111809 0)
  (0.103244 -0.0904794 0)
  (0.072308 -0.0675147 0)
  (0.0456709 -0.0454903 0)
  (0.0246278 -0.0268519 0)
  (0.00974699 -0.0142527 0)
  (-0.000138622 -0.00837562 0)
  (-0.00711777 -0.00713632 0)
  (-0.0128306 -0.00751062 0)
  (-0.017627 -0.00805178 0)
  (-0.0213677 -0.00855472 0)
  (-0.024021 -0.00906406 0)
  (-0.0255756 -0.00965313 0)
  (-0.0261072 -0.0104938 0)
  (-0.0259294 -0.0116903 0)
  (-0.0254069 -0.0129595 0)
  (-0.0246522 -0.0138571 0)
  (-0.0235082 -0.0138859 0)
  (-0.021582 -0.0124573 0)
  (-0.017895 -0.0088199 0)
  (-0.00892515 -0.00220606 0)
  (0.000154586 0.00647896 0)
  (0.0108845 0.0149766 0)
  (0.0226438 0.022114 0)
  (0.0425307 0.0294352 0)
  (0.0609546 0.0222022 0)
  (0.0801902 -0.00550426 0)
  (0.139343 0.0406037 0)
  (-0.417192 0.20819 0)
  (1.03328 0.430659 0)
  (0.497767 0.285602 0)
  (0.503556 0.193153 0)
  (0.510215 0.122929 0)
  (0.482977 0.0719697 0)
  (0.442237 0.0194174 0)
  (0.393581 -0.0293993 0)
  (0.341241 -0.0650281 0)
  (0.285092 -0.0842658 0)
  (0.227438 -0.0887178 0)
  (0.171383 -0.0822711 0)
  (0.119778 -0.0690431 0)
  (0.073582 -0.0516278 0)
  (0.0346443 -0.0335534 0)
  (0.00281225 -0.0171458 0)
  (-0.0191224 -0.00617142 0)
  (-0.0310055 -0.00186856 0)
  (-0.0376985 -0.00110109 0)
  (-0.0420912 -0.00195122 0)
  (-0.0458095 -0.00326584 0)
  (-0.0491469 -0.00459307 0)
  (-0.0521403 -0.00586355 0)
  (-0.0548082 -0.00710653 0)
  (-0.0571974 -0.0083626 0)
  (-0.0594405 -0.00967097 0)
  (-0.0618101 -0.0109886 0)
  (-0.0646291 -0.0120886 0)
  (-0.0681896 -0.0125931 0)
  (-0.0728149 -0.0119737 0)
  (-0.0789657 -0.00953317 0)
  (-0.0872397 -0.00444878 0)
  (-0.0977451 0.0039091 0)
  (-0.108338 0.0149946 0)
  (-0.123758 0.0289452 0)
  (-0.148166 0.045782 0)
  (-0.18408 0.064254 0)
  (-0.234788 0.0802149 0)
  (-0.29229 0.0910305 0)
  (-0.361021 0.0967485 0)
  (-0.623532 0.0981136 0)
  (-0.150794 0.085889 0)
  (0.137066 0.067734 0)
  (0.221449 0.0133077 0)
  (0.205092 -0.0237364 0)
  (0.18999 -0.0403725 0)
  (0.168328 -0.0471534 0)
  (0.136644 -0.0470457 0)
  (0.0985434 -0.0416642 0)
  (0.0586189 -0.0325971 0)
  (0.0208757 -0.0210105 0)
  (-0.0173165 -0.00666047 0)
  (-0.0427126 0.00195447 0)
  (-0.0584856 0.00591456 0)
  (-0.0665236 0.00667925 0)
  (-0.0702379 0.00589342 0)
  (-0.0726674 0.00480217 0)
  (-0.074688 0.00363968 0)
  (-0.0767458 0.00248902 0)
  (-0.0791422 0.00131684 0)
  (-0.0818585 9.157e-05 0)
  (-0.0848495 -0.00113136 0)
  (-0.0881445 -0.00228733 0)
  (-0.0918104 -0.00329059 0)
  (-0.0959469 -0.0039953 0)
  (-0.100633 -0.00416513 0)
  (-0.105866 -0.00348521 0)
  (-0.111538 -0.00158833 0)
  (-0.117407 0.0019066 0)
  (-0.122876 0.00741406 0)
  (-0.127083 0.0156182 0)
  (-0.130538 0.0276501 0)
  (-0.133522 0.0438715 0)
  (-0.136898 0.0633366 0)
  (-0.141203 0.0822785 0)
  (-0.143201 0.090685 0)
  (-0.125737 0.067663 0)
  (-0.0808502 -0.026592 0)
  (-0.280232 -0.205511 0)
  (-0.0254224 0.235438 0)
  (0.0638193 0.104906 0)
  (0.0403634 0.023834 0)
  (0.0282235 -0.000952984 0)
  (0.0216175 -0.00801783 0)
  (0.00519134 -0.0112805 0)
  (-0.0193524 -0.00937054 0)
  (-0.0457444 -0.00449297 0)
  (-0.0689571 0.000490502 0)
  (-0.0856644 0.00413763 0)
  (-0.0946137 0.00516187 0)
  (-0.0978204 0.0033782 0)
  (-0.0986641 0.000706957 0)
  (-0.0983423 -0.00233567 0)
  (-0.0980083 -0.00541993 0)
  (-0.0981478 -0.00821553 0)
  (-0.0987809 -0.0106264 0)
  (-0.0998295 -0.0125175 0)
  (-0.101175 -0.0138177 0)
  (-0.10281 -0.0145935 0)
  (-0.104766 -0.0149152 0)
  (-0.107034 -0.0149208 0)
  (-0.109614 -0.0147289 0)
  (-0.112463 -0.014299 0)
  (-0.115458 -0.0135011 0)
  (-0.118362 -0.0120998 0)
  (-0.120806 -0.00973312 0)
  (-0.122268 -0.00586704 0)
  (-0.12215 -0.000147122 0)
  (-0.119457 0.00800247 0)
  (-0.112725 0.0194796 0)
  (-0.100685 0.0350518 0)
  (-0.0831286 0.0542628 0)
  (-0.0609983 0.072886 0)
  (-0.0372163 0.083706 0)
  (0.00321575 0.0677747 0)
  (0.143417 -0.00370171 0)
  (-0.207859 -0.116348 0)
  (0.941671 -0.00471853 0)
  (-0.538033 -0.458863 0)
  (-0.316081 0.0922798 0)
  (-0.225065 -0.0197802 0)
  (-0.175689 -0.0451489 0)
  (-0.159266 -0.0348522 0)
  (-0.156367 -0.0223322 0)
  (-0.15801 -0.0119835 0)
  (-0.15966 -0.00313078 0)
  (-0.158062 0.00425783 0)
  (-0.154039 0.0107904 0)
  (-0.147601 0.0166159 0)
  (-0.139596 0.0215123 0)
  (-0.131444 0.0253842 0)
  (-0.124127 0.0288367 0)
  (-0.118007 0.0320645 0)
  (-0.113149 0.0351299 0)
  (-0.109401 0.0378796 0)
  (-0.106612 0.0400182 0)
  (-0.104679 0.0413189 0)
  (-0.103515 0.0416982 0)
  (-0.103042 0.0412225 0)
  (-0.103189 0.0400172 0)
  (-0.103885 0.038367 0)
  (-0.105047 0.0365422 0)
  (-0.106566 0.0346508 0)
  (-0.108261 0.0327855 0)
  (-0.10985 0.0310309 0)
  (-0.110895 0.0294648 0)
  (-0.110715 0.0281773 0)
  (-0.108069 0.0278208 0)
  (-0.101038 0.0290606 0)
  (-0.0871183 0.0326386 0)
  (-0.0644531 0.0394439 0)
  (-0.0337663 0.049973 0)
  (0.0157492 0.0640578 0)
  (0.0608135 0.0652262 0)
  (0.103928 0.0498563 0)
  (0.164882 0.0197324 0)
  (-0.21465 -0.0365965 0)
)
;

boundaryField
{
  floor
  {
    type noSlip;
  }
  ceiling
  {
    type noSlip;
  }
  sWall
  {
    type noSlip;
  }
  nWall
  {
    type noSlip;
  }
  sideWalls
  {
    type empty;
  }
  glass1
  {
    type noSlip;
  }
  glass2
  {
    type noSlip;
  }
  sun
  {
    type noSlip;
  }
  heatsource1
  {
    type noSlip;
  }
  heatsource2
  {
    type noSlip;
  }
  Table_master
  {
    type noSlip;
  }
  Table_slave
  {
    type noSlip;
  }
  inlet
  {
    type fixedValue;
    value uniform (0.3 0 0);
  }
  outlet
  {
    type zeroGradient;
  }
} 	// ************************************************************************* //

