/*--------------------------------*- C++ -*----------------------------------*\
  =========                 |
  \\      /  F ield         | OpenFOAM: The Open Source CFD Toolbox
   \\    /   O peration     | Website:  https://openfoam.org
    \\  /    A nd           | Version:  6
     \\/     M anipulation  |
\*---------------------------------------------------------------------------*/
FoamFile
{
    version     2.0;
    format      ascii;
    class       volScalarField;
    location    "300";
    object      epsilon;
}
// * * * * * * * * * * * * * * * * * * * * * * * * * * * * * * * * * * * * * //

dimensions      [0 2 -3 0 0 0 0];

internalField   nonuniform List<scalar> 
459
(
0.000147054
0.000154668
9.07409e-05
9.75012e-05
0.000109157
0.000121971
0.000135611
0.000150239
0.000166469
0.000183222
0.000197953
0.000209033
0.00021502
0.000214862
0.000205115
3.01927e-05
5.97021e-05
1.88589e-05
5.469e-06
2.50001e-06
2.01719e-06
2.0075e-06
2.06298e-06
2.40943e-06
3.21863e-06
4.29574e-06
5.65329e-06
7.5279e-06
1.05073e-05
1.6091e-05
2.48367e-05
3.12387e-05
3.40567e-05
2.60585e-05
0.000878952
0.00201559
0.000180827
7.77448e-05
7.76619e-05
8.44495e-05
9.24345e-05
0.000101627
0.000112671
0.000125643
0.000139947
0.000155134
0.000169961
0.000182073
0.000194927
0.000261903
8.14959e-05
5.40771e-05
0.00019433
4.37804e-05
2.10536e-05
1.51633e-05
7.17733e-06
1.92301e-06
1.67519e-06
2.86729e-06
5.41488e-06
8.9623e-06
1.38141e-05
2.14925e-05
3.56064e-05
5.36289e-05
6.33226e-05
6.60277e-05
8.6069e-05
5.21837e-05
0.0023315
0.00678219
0.000570294
0.000109446
8.4333e-05
8.91435e-05
9.81573e-05
0.000109108
0.000121943
0.000136694
0.000152591
0.00016921
0.000186008
0.000202263
0.00021976
0.000251052
0.000333561
0.000183495
0.000263265
8.88581e-05
6.91173e-05
7.05869e-05
7.31299e-05
1.34907e-05
2.9003e-06
6.1201e-06
1.3044e-05
2.19143e-05
3.29232e-05
4.77563e-05
6.99262e-05
0.000107024
8.02594e-05
8.49605e-05
9.92067e-05
8.41958e-05
0.00457686
0.0144428
0.0014687
0.000185582
0.000101884
0.000102202
0.000112701
0.000126152
0.000141477
0.000158461
0.000175266
0.000191447
0.000207222
0.000223321
0.000243072
0.000278574
0.00036146
0.000539119
0.000281781
0.000133494
9.7435e-05
9.33872e-05
0.000101023
0.000119637
0.00016245
0.000152119
0.000144689
0.000138819
0.00013543
0.000136503
0.000145481
0.000169522
0.000229992
0.000163424
0.000196426
0.000262817
0.000313715
0.0075192
0.0237051
0.00311792
0.000362197
0.000141306
0.000128319
0.000139988
0.000157813
0.00017851
0.000200172
0.000218794
0.000234663
0.000248723
0.000260021
0.00026508
0.00025989
0.000243317
0.000211629
0.000153072
0.000116951
0.000102657
9.97899e-05
0.000101343
0.000104283
0.000107122
0.000108025
0.000110915
0.000116936
0.000127562
0.000144951
0.00017183
0.000211129
0.000264861
0.000328784
0.000427794
0.000561302
0.000652751
0.000926635
0.000640692
0.000423486
0.0111139
0.0312257
0.00585136
0.000920906
0.000296463
0.000213991
0.000213616
0.000232692
0.00026025
0.00028295
0.000296008
0.000304958
0.000314936
0.000326263
0.000333803
0.000328936
0.00030409
0.000259766
0.000208711
0.000169556
0.000147094
0.000137815
0.000135157
0.000135042
0.000135534
0.000137096
0.000141623
0.000150673
0.00016648
0.000192603
0.000233998
0.00029646
0.000385684
0.000506494
0.000662103
0.000840704
0.000964134
0.000942214
0.000546036
0.000471951
0.0150454
0.0337859
0.0108866
0.0033392
0.00126268
0.000676725
0.000520312
0.000478523
0.00048626
0.000469318
0.00043921
0.000411713
0.00039654
0.000394868
0.000399952
0.000399127
0.000380018
0.000339971
0.000289274
0.000243694
0.000212335
0.00019484
0.000186464
0.000183046
0.000182301
0.000184475
0.00019111
0.000203993
0.000225574
0.000259646
0.000311632
0.000387735
0.000491356
0.000628573
0.000794278
0.000960247
0.00106667
0.0010625
0.000931342
0.000451349
0.0154926
0.0384537
0.0207412
0.0129877
0.00679119
0.00345084
0.00202143
0.00140488
0.00110188
0.000883768
0.000714386
0.000590798
0.000509348
0.00046457
0.000447751
0.000443483
0.000431833
0.000403241
0.000361513
0.000318367
0.000283652
0.000260269
0.000246366
0.000238998
0.00023615
0.000237934
0.000246081
0.000263385
0.000294028
0.000344141
0.000420698
0.000528321
0.000666607
0.000818413
0.000972621
0.00113318
0.00131838
0.00155199
0.00178277
0.000997469
0.0136124
0.0212951
0.0395753
0.0293466
0.0174949
0.0100525
0.00591916
0.00367133
0.00237132
0.00159855
0.00113176
0.000842761
0.000661395
0.000549928
0.000487165
0.000457091
0.000441563
0.00042514
0.000401105
0.000372166
0.000344532
0.000322237
0.000306222
0.000295721
0.000289716
0.000288183
0.00029238
0.000304874
0.000329232
0.000370074
0.000432312
0.000524254
0.00065106
0.000817377
0.00103418
0.0012901
0.0014499
0.00187704
0.00401293
0.00135626
0.102439
0.108392
0.0292235
0.0131292
0.00712313
0.00427177
0.00275306
0.00187723
0.00133997
0.00099767
0.000773324
0.000624198
0.000526262
0.000465477
0.000431461
0.000414124
0.000404095
0.000395265
0.000385591
0.000375449
0.000365826
0.000357502
0.000350948
0.000346715
0.000345786
0.000349783
0.000361098
0.00038256
0.000417323
0.000467063
0.000528438
0.000591999
0.000641125
0.000647921
0.000626578
0.000641153
0.00132212
0.00120921
0.076707
0.0624107
0.021985
0.0106596
0.00612259
0.00387715
0.00263524
0.00189525
0.00142879
0.00112082
0.000910742
0.000764739
0.000663367
0.000595276
0.00055321
0.000531171
0.000522909
0.000522042
0.000523163
0.000522734
0.000519187
0.000512375
0.000502888
0.000491562
0.000479207
0.000466626
0.000455344
0.000445584
0.000439838
0.00044115
0.000448416
0.000453993
0.000447037
0.000421233
0.000394933
0.000398583
0.00115647
0.000822366
0.00337735
0.0118456
0.0327696
0.0250071
0.0139935
0.00844227
0.00549873
0.00379291
0.00272918
0.00202827
0.00155594
0.0012257
0.00098796
0.000813635
0.000684726
0.000589685
0.000520922
0.000473203
0.000442426
0.000424778
0.000416436
0.000413771
0.000413749
0.000414221
0.000414002
0.000412773
0.0004109
0.000409233
0.000409049
0.000416531
0.000433838
0.000459072
0.000485545
0.000501153
0.000492539
0.000460624
0.000421693
0.000375376
0.000386572
0.000334587
)
;

boundaryField
{
    floor
    {
        Cmu             0.09;
        kappa           0.41;
        E               9.8;
        type            epsilonWallFunction;
        value           nonuniform List<scalar> 
29
(
0.000205115
3.01927e-05
5.97021e-05
1.88589e-05
5.469e-06
2.50001e-06
2.01719e-06
2.0075e-06
2.06298e-06
2.40943e-06
3.21863e-06
4.29574e-06
5.65329e-06
7.5279e-06
1.05073e-05
1.6091e-05
2.48367e-05
3.12387e-05
3.40567e-05
2.60585e-05
2.60585e-05
5.21837e-05
8.41958e-05
0.000313715
0.000205115
3.01927e-05
5.40771e-05
0.000183495
0.000539119
)
;
    }
    ceiling
    {
        Cmu             0.09;
        kappa           0.41;
        E               9.8;
        type            epsilonWallFunction;
        value           nonuniform List<scalar> 
43
(
0.00337735
0.0118456
0.0327696
0.0250071
0.0139935
0.00844227
0.00549873
0.00379291
0.00272918
0.00202827
0.00155594
0.0012257
0.00098796
0.000813635
0.000684726
0.000589685
0.000520922
0.000473203
0.000442426
0.000424778
0.000416436
0.000413771
0.000413749
0.000414221
0.000414002
0.000412773
0.0004109
0.000409233
0.000409049
0.000416531
0.000433838
0.000459072
0.000485545
0.000501153
0.000492539
0.000460624
0.000421693
0.000375376
0.000386572
0.000334587
0.0136124
0.0212951
0.076707
)
;
    }
    sWall
    {
        Cmu             0.09;
        kappa           0.41;
        E               9.8;
        type            epsilonWallFunction;
        value           uniform 0.00337735;
    }
    nWall
    {
        Cmu             0.09;
        kappa           0.41;
        E               9.8;
        type            epsilonWallFunction;
        value           nonuniform List<scalar> 6(0.000423486 0.000471951 0.000451349 0.00120921 0.000822366 0.000334587);
    }
    sideWalls
    {
        type            empty;
    }
    glass1
    {
        Cmu             0.09;
        kappa           0.41;
        E               9.8;
        type            epsilonWallFunction;
        value           nonuniform List<scalar> 9(0.000147054 0.000878952 0.0023315 0.00457686 0.0075192 0.0111139 0.0150454 0.0154926 0.0136124);
    }
    glass2
    {
        Cmu             0.09;
        kappa           0.41;
        E               9.8;
        type            epsilonWallFunction;
        value           nonuniform List<scalar> 2(0.000997469 0.00135626);
    }
    sun
    {
        Cmu             0.09;
        kappa           0.41;
        E               9.8;
        type            epsilonWallFunction;
        value           nonuniform List<scalar> 
14
(
0.000147054
0.000154668
9.07409e-05
9.75012e-05
0.000109157
0.000121971
0.000135611
0.000150239
0.000166469
0.000183222
0.000197953
0.000209033
0.00021502
0.000214862
)
;
    }
    heatsource1
    {
        Cmu             0.09;
        kappa           0.41;
        E               9.8;
        type            epsilonWallFunction;
        value           nonuniform List<scalar> 3(0.000926635 0.000640692 0.000423486);
    }
    heatsource2
    {
        Cmu             0.09;
        kappa           0.41;
        E               9.8;
        type            epsilonWallFunction;
        value           nonuniform List<scalar> 4(0.000261903 8.14959e-05 8.14959e-05 0.000333561);
    }
    Table_master
    {
        Cmu             0.09;
        kappa           0.41;
        E               9.8;
        type            epsilonWallFunction;
        value           nonuniform List<scalar> 9(1.34907e-05 2.9003e-06 6.1201e-06 1.3044e-05 2.19143e-05 3.29232e-05 4.77563e-05 6.99262e-05 0.000107024);
    }
    Table_slave
    {
        Cmu             0.09;
        kappa           0.41;
        E               9.8;
        type            epsilonWallFunction;
        value           nonuniform List<scalar> 9(0.00016245 0.000152119 0.000144689 0.000138819 0.00013543 0.000136503 0.000145481 0.000169522 0.000229992);
    }
    inlet
    {
        type            turbulentMixingLengthDissipationRateInlet;
        mixingLength    0.01;
        phi             phi;
        k               k;
        value           uniform 0.102439;
    }
    outlet
    {
        type            zeroGradient;
    }
}


// ************************************************************************* //
