/*--------------------------------*- C++ -*----------------------------------*\
  =========                 |
  \\      /  F ield         | OpenFOAM: The Open Source CFD Toolbox
   \\    /   O peration     | Website:  https://openfoam.org
    \\  /    A nd           | Version:  6
     \\/     M anipulation  |
\*---------------------------------------------------------------------------*/
FoamFile
{
    version     2.0;
    format      ascii;
    class       volScalarField;
    location    "600";
    object      alphat;
}
// * * * * * * * * * * * * * * * * * * * * * * * * * * * * * * * * * * * * * //

dimensions      [1 -1 -1 0 0 0 0];

internalField   nonuniform List<scalar> 
459
(
0.000851312
0.000873273
0.00066449
0.000629006
0.000637287
0.000653295
0.000672848
0.000694634
0.000717778
0.000741062
0.000763218
0.000782752
0.000798085
0.000806883
0.00080163
0.000359654
0.000397585
0.000411685
0.000364335
0.000311929
0.000274527
0.000258031
0.000270958
0.00029464
0.000321516
0.000347246
0.00036511
0.000366973
0.000361151
0.000356223
0.000354299
0.000357622
0.000339658
0.000311779
0.00155966
0.0032361
0.00169808
0.00257719
0.00303561
0.00315693
0.00323275
0.00330455
0.00336691
0.00340662
0.00340261
0.0033216
0.00310758
0.00266606
0.00189109
0.000896772
0.000613971
0.000543737
0.000995411
0.00115125
0.00112584
0.000884324
0.000612015
0.000502913
0.000633487
0.000832042
0.0010258
0.00117802
0.00125691
0.00124726
0.00121079
0.00119718
0.0012873
0.000991721
0.000708882
0.000397472
0.00218788
0.00601655
0.00256477
0.00294119
0.00428086
0.00473347
0.00489683
0.00498667
0.00503853
0.00504577
0.00498573
0.00481957
0.00448508
0.00389708
0.00300216
0.00192783
0.00097241
0.000808836
0.00220185
0.00193254
0.00149755
0.00103007
0.000653541
0.00035881
0.000382124
0.000413006
0.000443726
0.000475094
0.000509595
0.000551691
0.000608513
0.000696911
0.00199304
0.00195626
0.00152393
0.000683969
0.00274767
0.00915771
0.0045168
0.00328258
0.00446463
0.00537434
0.00581801
0.00606812
0.00622931
0.00632956
0.00635895
0.00628354
0.0060387
0.0055228
0.00462391
0.00332729
0.00193145
0.00108135
0.00278753
0.00290846
0.00241692
0.00187768
0.00142963
0.00108151
0.000804693
0.000807684
0.000812117
0.000818724
0.00082971
0.000847634
0.000875847
0.000919577
0.000989102
0.00283368
0.00284007
0.00231888
0.0010109
0.0032318
0.0121774
0.00741898
0.00487556
0.00458479
0.00518003
0.00589586
0.00645183
0.00686893
0.00720496
0.00747606
0.0076802
0.00780158
0.0078077
0.00765568
0.00731414
0.0068094
0.00627758
0.00613477
0.0057166
0.00536118
0.00512533
0.00497206
0.00480556
0.00463773
0.00452174
0.00439502
0.00425473
0.00410753
0.00396607
0.00384759
0.00377003
0.00374694
0.00379364
0.00362966
0.00336964
0.00292507
0.00121518
0.00106937
0.000918862
0.00365434
0.0145429
0.0108618
0.00771774
0.00592541
0.00517808
0.00538537
0.00600766
0.00666754
0.00729249
0.00785753
0.00834344
0.0087449
0.00905399
0.00924775
0.00929093
0.00915286
0.00884643
0.00846473
0.00807295
0.00774187
0.00748959
0.00729241
0.00711877
0.00694966
0.00677218
0.00657461
0.00634792
0.00608409
0.00577909
0.0054384
0.00508023
0.00472829
0.00439416
0.00406563
0.00372099
0.00329682
0.00274652
0.00208897
0.000933138
0.00399504
0.0153615
0.0130038
0.01038
0.0081964
0.00646995
0.00551608
0.00542968
0.0058858
0.00657833
0.00737586
0.00814386
0.00881556
0.0093714
0.00979784
0.0100684
0.0101491
0.0100373
0.00979116
0.0094913
0.00919859
0.00893988
0.00871759
0.00852319
0.00834326
0.00816651
0.00798523
0.00778966
0.00756461
0.00728762
0.00693167
0.00647743
0.00593292
0.00534021
0.00474655
0.00416012
0.00355112
0.0029101
0.00220233
0.00100019
0.00396636
0.0129015
0.0116888
0.0113584
0.00979475
0.00795326
0.00652772
0.00569754
0.00543999
0.0057073
0.00638436
0.00722551
0.00806934
0.0088317
0.00946826
0.0099494
0.0102369
0.0103332
0.0102721
0.0101117
0.0099064
0.00969298
0.0094904
0.0093048
0.00913405
0.0089749
0.00882569
0.00868485
0.0085483
0.00840485
0.00822963
0.00797842
0.00759232
0.00702836
0.00630427
0.00548191
0.0046255
0.00387335
0.00329889
0.00174417
0.00374466
0.00431304
0.0130545
0.0133476
0.0110622
0.0088154
0.00720612
0.00621937
0.00574582
0.00569039
0.00597308
0.00649887
0.00715719
0.00785045
0.00850045
0.009065
0.0095
0.00978111
0.00991278
0.00992423
0.00985466
0.00973999
0.00960598
0.00946762
0.00933148
0.0092007
0.00907728
0.00896401
0.00886466
0.00878231
0.00871557
0.00865303
0.0085683
0.0084239
0.00819187
0.00786764
0.00741797
0.00671111
0.00618612
0.00185837
0.0264893
0.0227374
0.0130332
0.00963204
0.00811383
0.00724192
0.00679212
0.00665367
0.00672954
0.00693804
0.00722246
0.00754929
0.00790002
0.00825854
0.00859893
0.00889083
0.00911068
0.00924827
0.00931029
0.00931402
0.00927723
0.00921481
0.00913669
0.00904825
0.00895384
0.00885814
0.00876596
0.00868123
0.00860504
0.00853215
0.00844633
0.00831773
0.00810873
0.00778718
0.00732726
0.00669513
0.00570993
0.00188203
0.0085332
0.0170917
0.0122058
0.00930657
0.00779325
0.00703686
0.00674639
0.00675157
0.0069291
0.00718683
0.00746202
0.0077205
0.00795072
0.00815276
0.00832818
0.00847547
0.00859141
0.0086741
0.00872468
0.00874726
0.00874793
0.00873279
0.00870516
0.00865763
0.0085942
0.00851985
0.00843784
0.00834899
0.00825094
0.00813747
0.00799787
0.00781713
0.00757771
0.00726102
0.00684584
0.00629056
0.00575781
0.00189665
0.00157273
0.00200103
0.00565156
0.00512736
0.00434083
0.00366128
0.00314317
0.00276004
0.0024807
0.0022824
0.00214842
0.00206456
0.00201723
0.00199388
0.0019843
0.00198152
0.00198127
0.00198106
0.00197938
0.00197546
0.001969
0.00196006
0.00194904
0.00193645
0.00192282
0.00190952
0.00189614
0.00188236
0.00186803
0.00185297
0.00183689
0.00181931
0.00179949
0.00177655
0.0017495
0.00171715
0.00167755
0.00162853
0.00160357
0.00139386
)
;

boundaryField
{
    floor
    {
        type            compressible::alphatWallFunction;
        Prt             0.85;
        value           nonuniform List<scalar> 
29
(
0.000114102
4.73268e-05
5.33481e-05
5.55676e-05
4.80727e-05
3.96263e-05
3.3489e-05
3.07494e-05
3.29018e-05
3.68076e-05
4.11894e-05
4.53391e-05
4.81972e-05
4.84949e-05
4.75668e-05
4.678e-05
4.64735e-05
4.70079e-05
4.41261e-05
3.96136e-05
3.96131e-05
5.33395e-05
9.69437e-05
0.00014397
0.000114101
4.73261e-05
7.59253e-05
0.000115102
0.000153794
)
;
    }
    ceiling
    {
        type            compressible::alphatWallFunction;
        Prt             0.85;
        value           nonuniform List<scalar> 
43
(
0.000221304
0.000277822
0.000724416
0.000662725
0.000568976
0.000486603
0.000422755
0.000374842
0.000339469
0.0003141
0.000296821
0.000285944
0.000279781
0.000276729
0.000275473
0.000275103
0.000275064
0.00027503
0.000274807
0.00027429
0.000273441
0.000272269
0.000270825
0.000269174
0.000267388
0.000265641
0.000263883
0.000262073
0.000260188
0.000258206
0.000256088
0.00025377
0.000251156
0.000248126
0.000244549
0.000240264
0.000235007
0.00022848
0.000225149
0.000196937
0.000496613
0.000565435
0.00105467
)
;
    }
    sWall
    {
        type            compressible::alphatWallFunction;
        Prt             0.85;
        value           uniform 0.000220455;
    }
    nWall
    {
        type            compressible::alphatWallFunction;
        Prt             0.85;
        value           nonuniform List<scalar> 6(0.000130801 0.000132838 0.000142291 0.000261706 0.000263613 0.000196664);
    }
    sideWalls
    {
        type            empty;
    }
    glass1
    {
        type            compressible::alphatWallFunction;
        Prt             0.85;
        value           nonuniform List<scalar> 9(0.000118218 0.000214733 0.000296417 0.00036723 0.000427349 0.000479126 0.000520481 0.000517175 0.000490551);
    }
    glass2
    {
        type            compressible::alphatWallFunction;
        Prt             0.85;
        value           nonuniform List<scalar> 2(0.000243028 0.000258064);
    }
    sun
    {
        type            compressible::alphatWallFunction;
        Prt             0.85;
        value           nonuniform List<scalar> 
14
(
0.000121251
0.000124381
9.40418e-05
8.87832e-05
9.00177e-05
9.23957e-05
9.52893e-05
9.85009e-05
0.000101899
0.000105305
0.000108533
0.00011137
0.00011359
0.000114862
)
;
    }
    heatsource1
    {
        type            compressible::alphatWallFunction;
        Prt             0.85;
        value           nonuniform List<scalar> 3(0.000172398 0.000152164 0.000130948);
    }
    heatsource2
    {
        type            compressible::alphatWallFunction;
        Prt             0.85;
        value           nonuniform List<scalar> 4(0.000127795 8.65804e-05 8.65794e-05 0.000138531);
    }
    Table_master
    {
        type            compressible::alphatWallFunction;
        Prt             0.85;
        value           nonuniform List<scalar> 9(4.72803e-05 5.09918e-05 5.58635e-05 6.06633e-05 6.55209e-05 7.08168e-05 7.72177e-05 8.57631e-05 9.88672e-05);
    }
    Table_slave
    {
        type            compressible::alphatWallFunction;
        Prt             0.85;
        value           nonuniform List<scalar> 9(0.000114571 0.000115003 0.000115643 0.000116597 0.000118181 0.00012076 0.000124805 0.000131045 0.000140894);
    }
    inlet
    {
        type            fixedValue;
        value           uniform 1.94e-05;
    }
    outlet
    {
        type            zeroGradient;
    }
}


// ************************************************************************* //
