/*--------------------------------*- C++ -*----------------------------------*\
  =========                 |
  \\      /  F ield         | OpenFOAM: The Open Source CFD Toolbox
   \\    /   O peration     | Website:  https://openfoam.org
    \\  /    A nd           | Version:  6
     \\/     M anipulation  |
\*---------------------------------------------------------------------------*/
FoamFile
{
    version     2.0;
    format      ascii;
    class       volScalarField;
    location    "1100";
    object      alphat;
}
// * * * * * * * * * * * * * * * * * * * * * * * * * * * * * * * * * * * * * //

dimensions      [1 -1 -1 0 0 0 0];

internalField   nonuniform List<scalar> 
459
(
0.00123591
0.0013486
0.00137417
0.00143977
0.00150056
0.00155791
0.0016149
0.00166931
0.00170751
0.00172218
0.00170634
0.00165503
0.00156592
0.00144165
0.00129597
0.000535171
0.00063756
0.000720018
0.00072693
0.000705411
0.000674855
0.000632587
0.00058961
0.000550608
0.000516153
0.00048579
0.000458945
0.000435115
0.00041386
0.000394402
0.000375775
0.000356702
0.000345539
0.000317209
0.00168225
0.00399261
0.00377656
0.00438003
0.00497207
0.00556588
0.00608203
0.00648414
0.00685811
0.00716948
0.00737546
0.00743189
0.00728571
0.00681151
0.00548091
0.00131917
0.000818496
0.000557789
0.00117258
0.00164059
0.00199382
0.00220214
0.00221103
0.0017454
0.00149674
0.00132011
0.00118528
0.00107879
0.000992603
0.000920154
0.000853023
0.000788304
0.000730874
0.000679794
0.00081152
0.000424196
0.00205323
0.00541619
0.00460515
0.0057326
0.00625123
0.00662933
0.00692548
0.00718723
0.00749152
0.00782157
0.00813843
0.00838293
0.00850165
0.00840605
0.00783891
0.00601424
0.00135864
0.00104618
0.00152141
0.00197831
0.00242212
0.00275163
0.00271949
0.000902042
0.000797077
0.000711882
0.000642774
0.000586324
0.000539796
0.000501153
0.00046907
0.000442922
0.000476474
0.000546133
0.000917298
0.00049721
0.00240954
0.00692956
0.00454655
0.00598417
0.00637345
0.00646853
0.00654957
0.00669993
0.00695685
0.00730147
0.007697
0.0080595
0.00833129
0.00843549
0.00831465
0.00766334
0.00514044
0.00158862
0.00189617
0.00240854
0.00297028
0.00347082
0.00381517
0.00363697
0.00102181
0.000933076
0.000869476
0.000821069
0.000780003
0.000741919
0.000705366
0.000666961
0.00062244
0.000584643
0.00058949
0.0010739
0.000554859
0.0027727
0.0089036
0.00491587
0.0057064
0.00623914
0.00618306
0.00613338
0.00624958
0.00649152
0.00684433
0.00728163
0.00768066
0.00795951
0.00806663
0.0080032
0.00774077
0.00707893
0.00598895
0.0056073
0.0055328
0.00557198
0.00562232
0.00561751
0.00543243
0.00461905
0.00421632
0.00398064
0.00379908
0.00360892
0.00333919
0.002968
0.00251235
0.00200477
0.00150147
0.00111185
0.001091
0.00075563
0.000690924
0.000831624
0.000933439
0.00315835
0.0110678
0.00676344
0.00551926
0.00603333
0.00619983
0.00603906
0.00614879
0.00635039
0.00667784
0.0071033
0.00751913
0.00779636
0.00785791
0.0077211
0.00748365
0.00725389
0.00709922
0.00709332
0.00711025
0.00706753
0.00695434
0.00677488
0.00651639
0.00613185
0.00578421
0.00547426
0.00517613
0.00487336
0.0045513
0.00415217
0.00365907
0.00307233
0.00242504
0.00184407
0.00134845
0.00104849
0.000899268
0.00127518
0.000975516
0.00352018
0.0126272
0.00969644
0.0070119
0.00654475
0.00657939
0.00641798
0.00632922
0.00642859
0.00674028
0.00718844
0.00762451
0.00788796
0.00789072
0.00767321
0.00741195
0.0073389
0.00752627
0.0077638
0.00783697
0.00771386
0.00745049
0.00709613
0.00668207
0.00623816
0.00582302
0.00544323
0.00509051
0.0047648
0.00447339
0.00421908
0.00391455
0.00348414
0.00294609
0.00242225
0.00192213
0.00157219
0.00144098
0.00142553
0.00109976
0.00359615
0.0114423
0.00993249
0.00880425
0.00811494
0.00734864
0.00670807
0.00644212
0.00656814
0.00698744
0.00752742
0.00798483
0.00818271
0.00806293
0.00773499
0.007477
0.00756023
0.007886
0.00802426
0.00786712
0.00749784
0.00699793
0.00643502
0.00587392
0.00536987
0.00494608
0.00459174
0.00429674
0.00406205
0.00389393
0.00379874
0.00375982
0.00362378
0.00330201
0.00300936
0.00285095
0.00291971
0.0032238
0.00403846
0.00167773
0.00350596
0.00419054
0.00473706
0.00491159
0.00492921
0.00504767
0.00538435
0.00596986
0.00675155
0.00757517
0.0082465
0.00859737
0.00851688
0.00808328
0.00761557
0.00751745
0.00758278
0.00757882
0.00735012
0.00690057
0.00630253
0.00564633
0.00501877
0.00448375
0.00406133
0.00373473
0.00347724
0.00326991
0.00310032
0.00295761
0.00283125
0.00271346
0.00262241
0.0025564
0.00253019
0.00253923
0.0025261
0.00243787
0.00228081
0.00155935
0.00216705
0.00383689
0.00529462
0.00651158
0.0074985
0.00838318
0.0090701
0.00941243
0.00936215
0.00894088
0.00820727
0.00738425
0.0068815
0.00669758
0.0065056
0.00615176
0.00563769
0.00503434
0.00442594
0.00387949
0.00343731
0.00310772
0.0028696
0.00269762
0.0025732
0.00248497
0.00242609
0.00239261
0.00238437
0.00240523
0.00243914
0.00248321
0.00253323
0.00257099
0.00256465
0.00249484
0.00221133
0.00124613
0.00251947
0.00536779
0.00733543
0.00825082
0.00886311
0.00928471
0.00924119
0.00865306
0.00775898
0.00680443
0.00600541
0.0054318
0.00505531
0.00472488
0.00432724
0.00387397
0.00341809
0.00301322
0.00269207
0.00245936
0.00229904
0.00218879
0.00211463
0.00207227
0.0020579
0.00206719
0.00209634
0.00214084
0.00220538
0.00228674
0.00238208
0.00248537
0.00258198
0.00264894
0.00267012
0.00264717
0.00190959
0.00127374
0.00215174
0.00226651
0.00235109
0.00241845
0.00218774
0.00200775
0.00192197
0.00183474
0.00170852
0.00155311
0.00137632
0.00120139
0.00104703
0.000924975
0.000836859
0.00077465
0.000729587
0.000696603
0.000673681
0.000660023
0.000654735
0.000656647
0.000664669
0.000678088
0.000696706
0.000719894
0.000747474
0.000779759
0.000817357
0.00086138
0.000911301
0.00096716
0.00102946
0.00109859
0.00117402
0.00125486
0.00127144
0.00113686
0.00108044
0.00127948
)
;

boundaryField
{
    floor
    {
        type            compressible::alphatWallFunction;
        Prt             0.85;
        value           nonuniform List<scalar> 
29
(
0.000183332
7.46044e-05
8.99781e-05
0.000102139
0.00010315
9.99975e-05
9.55007e-05
8.92391e-05
8.28196e-05
7.69439e-05
7.171e-05
6.70616e-05
6.29212e-05
5.922e-05
5.58971e-05
5.28358e-05
4.98871e-05
4.68479e-05
4.50595e-05
4.04864e-05
4.04858e-05
5.7516e-05
6.88146e-05
7.75875e-05
0.00018333
7.46035e-05
7.8029e-05
0.000148782
0.000222866
)
;
    }
    ceiling
    {
        type            compressible::alphatWallFunction;
        Prt             0.85;
        value           nonuniform List<scalar> 
43
(
0.000296701
0.00031149
0.000322339
0.000331066
0.000301516
0.000278214
0.000267033
0.000255601
0.000238945
0.000218243
0.000194408
0.000170478
0.00014903
0.00013181
0.000119214
0.000110226
0.000103661
9.88252e-05
9.54483e-05
9.34296e-05
9.26466e-05
9.293e-05
9.41172e-05
9.60992e-05
9.88413e-05
0.000102244
0.000106274
0.000110969
0.000116407
0.000122737
0.000129869
0.000137794
0.000146571
0.000156238
0.000166706
0.000177842
0.000180115
0.000161561
0.000153713
0.000181225
0.000467301
0.000550569
0.000343687
)
;
    }
    sWall
    {
        type            compressible::alphatWallFunction;
        Prt             0.85;
        value           uniform 0.000295482;
    }
    nWall
    {
        type            compressible::alphatWallFunction;
        Prt             0.85;
        value           nonuniform List<scalar> 6(0.00013269 0.000138642 0.000156059 0.000176318 0.000180102 0.000180895);
    }
    sideWalls
    {
        type            empty;
    }
    glass1
    {
        type            compressible::alphatWallFunction;
        Prt             0.85;
        value           nonuniform List<scalar> 9(0.000170798 0.00023022 0.000278405 0.00032389 0.000369582 0.000417467 0.000461887 0.000471286 0.000460509);
    }
    glass2
    {
        type            compressible::alphatWallFunction;
        Prt             0.85;
        value           nonuniform List<scalar> 2(0.000233131 0.000217483);
    }
    sun
    {
        type            compressible::alphatWallFunction;
        Prt             0.85;
        value           nonuniform List<scalar> 
14
(
0.000175121
0.000190515
0.000193991
0.000202875
0.000211068
0.000218763
0.000226379
0.000233621
0.00023869
0.000240634
0.000238534
0.00023172
0.000219831
0.000203124
)
;
    }
    heatsource1
    {
        type            compressible::alphatWallFunction;
        Prt             0.85;
        value           nonuniform List<scalar> 3(9.79826e-05 0.000118454 0.000133008);
    }
    heatsource2
    {
        type            compressible::alphatWallFunction;
        Prt             0.85;
        value           nonuniform List<scalar> 4(0.000186631 0.000116563 0.000116561 0.000192005);
    }
    Table_master
    {
        type            compressible::alphatWallFunction;
        Prt             0.85;
        value           nonuniform List<scalar> 9(0.000128538 0.000113466 0.000101059 9.08627e-05 8.24342e-05 7.54117e-05 6.95218e-05 6.45884e-05 6.05359e-05);
    }
    Table_slave
    {
        type            compressible::alphatWallFunction;
        Prt             0.85;
        value           nonuniform List<scalar> 9(0.000145489 0.000132956 0.000123888 0.000116934 0.000110996 0.000105455 0.000100105 9.44481e-05 8.78396e-05);
    }
    inlet
    {
        type            fixedValue;
        value           uniform 1.94e-05;
    }
    outlet
    {
        type            zeroGradient;
    }
}


// ************************************************************************* //
