/*--------------------------------*- C++ -*----------------------------------*\
  =========                 |
  \\      /  F ield         | OpenFOAM: The Open Source CFD Toolbox
   \\    /   O peration     | Website:  https://openfoam.org
    \\  /    A nd           | Version:  6
     \\/     M anipulation  |
\*---------------------------------------------------------------------------*/
FoamFile
{
    version     2.0;
    format      ascii;
    class       volScalarField;
    location    "1100";
    object      nut;
}
// * * * * * * * * * * * * * * * * * * * * * * * * * * * * * * * * * * * * * //

dimensions      [0 2 -1 0 0 0 0];

internalField   nonuniform List<scalar> 
459
(
0.00106465
0.00116071
0.00118267
0.00123911
0.00129141
0.00134075
0.00138978
0.00143657
0.0014694
0.00148197
0.00146828
0.00142408
0.00134738
0.00124044
0.00111512
0.000460622
0.000548712
0.000619662
0.000625615
0.000607103
0.000580813
0.000544442
0.00050746
0.000473899
0.000444249
0.000418122
0.000395021
0.000374515
0.000356225
0.000339481
0.000323453
0.000307039
0.000297436
0.000273067
0.00145002
0.00343689
0.00325068
0.00377014
0.00427979
0.00479094
0.00523518
0.00558117
0.00590274
0.00617023
0.00634692
0.00639498
0.00626888
0.00586072
0.00471584
0.00113502
0.00070423
0.000480104
0.00100914
0.00141189
0.00171589
0.0018952
0.00190288
0.00150215
0.00128815
0.00113614
0.0010201
0.00092846
0.000854287
0.000791937
0.000734163
0.000678468
0.000629048
0.000585096
0.000698493
0.000365154
0.00177091
0.00466322
0.00396445
0.00493522
0.00538198
0.00570771
0.00596279
0.00618801
0.00644941
0.00673257
0.00700419
0.00721367
0.00731522
0.00723272
0.00674473
0.00517477
0.001169
0.000900354
0.0013093
0.00170253
0.00208452
0.00236818
0.00234057
0.000776356
0.000686017
0.000612692
0.000553213
0.000504629
0.000464584
0.000431325
0.000403713
0.000381209
0.00041009
0.000470051
0.00078953
0.000428005
0.00207957
0.00596755
0.00391456
0.00515267
0.00548841
0.00557081
0.00564095
0.00577035
0.00599078
0.00628607
0.00662494
0.00693562
0.00716869
0.00725807
0.00715413
0.00659384
0.00442311
0.00136698
0.00163169
0.00207271
0.00255627
0.00298722
0.00328376
0.00313052
0.000879556
0.000803195
0.000748468
0.000706815
0.000671476
0.000638701
0.000607241
0.000574184
0.000535857
0.000503282
0.000507422
0.000924366
0.000477641
0.00239449
0.00766968
0.00423319
0.0049142
0.00537373
0.00532629
0.0052842
0.00538421
0.00559146
0.00589337
0.0062678
0.00660969
0.00684877
0.00694068
0.00688623
0.0066607
0.00609147
0.00515379
0.00482565
0.00476186
0.00479593
0.00483961
0.00483577
0.00467668
0.00397664
0.00363006
0.00342726
0.00327102
0.00310735
0.00287513
0.00255552
0.00216317
0.0017261
0.00129268
0.000957165
0.000939145
0.00065048
0.000594927
0.000716184
0.000803882
0.00272909
0.00953733
0.00582556
0.00475379
0.00519725
0.00534176
0.00520432
0.00529848
0.00547053
0.00575026
0.00611429
0.00647048
0.00670815
0.00676098
0.00664361
0.00643981
0.00624259
0.00610997
0.00610539
0.00612049
0.00608422
0.00598722
0.00583309
0.00561082
0.00527995
0.00498078
0.00471403
0.0044574
0.00419672
0.00391938
0.0035756
0.00315089
0.00264553
0.00208804
0.00158767
0.00116086
0.000902618
0.000774235
0.00109794
0.000840027
0.0030433
0.0108871
0.00835625
0.00604205
0.00563986
0.00567076
0.00553212
0.00545444
0.00553767
0.00580332
0.00618665
0.0065603
0.00678641
0.00678907
0.00660268
0.00637873
0.00631667
0.00647867
0.00668381
0.00674741
0.00664195
0.00641561
0.00611081
0.00575451
0.00537241
0.00501503
0.00468804
0.00438432
0.0041038
0.00385279
0.00363367
0.00337125
0.00300043
0.00253692
0.00208567
0.00165491
0.00135356
0.00124063
0.00122736
0.000946972
0.00311128
0.00987949
0.00857125
0.00759507
0.00699932
0.00633798
0.00578358
0.00555106
0.00565594
0.00601364
0.00647606
0.00686867
0.00703925
0.00693734
0.00665659
0.00643588
0.00650861
0.00678993
0.00690964
0.00677486
0.00645726
0.00602705
0.00554247
0.00505937
0.00462533
0.00426038
0.00395521
0.00370112
0.00349895
0.00335409
0.00327202
0.00323837
0.00312103
0.00284374
0.00259155
0.00245498
0.00251413
0.00277608
0.00347782
0.00144546
0.0030364
0.00362586
0.00409516
0.00424283
0.00425542
0.00435443
0.00463975
0.00513889
0.00580744
0.00651352
0.00709049
0.00739359
0.00732671
0.006956
0.00655559
0.00647268
0.00652985
0.00652706
0.00633054
0.00594368
0.00542882
0.00486377
0.00432331
0.00386251
0.00349867
0.00321735
0.00299554
0.00281693
0.00267081
0.00254785
0.00243898
0.00233752
0.00225909
0.00220228
0.00217979
0.00218774
0.00217665
0.00210085
0.00196566
0.00134416
0.00182796
0.00325956
0.00451463
0.00556084
0.00641322
0.00718044
0.00777941
0.00808235
0.00804662
0.0076903
0.0070638
0.00635769
0.00592611
0.00576849
0.00560361
0.00529914
0.00485656
0.00433696
0.00381295
0.00334226
0.00296137
0.00267744
0.00247231
0.00232416
0.00221697
0.00214096
0.00209024
0.00206139
0.00205431
0.00207229
0.00210154
0.00213956
0.00218275
0.00221541
0.00221011
0.0021501
0.0019059
0.00107415
0.00212841
0.00456311
0.00625541
0.00705255
0.0075911
0.00796632
0.00793964
0.00744133
0.0066768
0.00585798
0.00517158
0.00467843
0.00435463
0.0040703
0.00372794
0.00333757
0.00294491
0.00259614
0.00231948
0.002119
0.0019809
0.00188591
0.00182202
0.00178554
0.00177316
0.00178117
0.0018063
0.00184464
0.00190026
0.00197038
0.00205256
0.00214159
0.0022249
0.00228268
0.00230104
0.00228139
0.00164583
0.0010979
0.00183048
0.00192766
0.00199957
0.00206908
0.00187707
0.00172517
0.00165282
0.00157873
0.00147074
0.00133735
0.00118537
0.00103485
0.000901979
0.000796883
0.000721001
0.000667424
0.000628611
0.000600202
0.00058046
0.000568697
0.000564145
0.000565797
0.000572713
0.000584278
0.000600325
0.000620308
0.000644077
0.000671899
0.0007043
0.000742238
0.00078526
0.000833398
0.000887086
0.000946666
0.00101168
0.00108137
0.00109569
0.000979732
0.000931283
0.00110317
)
;

boundaryField
{
    floor
    {
        type            nutkWallFunction;
        Cmu             0.09;
        kappa           0.41;
        E               9.8;
        value           nonuniform List<scalar> 
29
(
0.000134183
5.46516e-05
6.59004e-05
7.47981e-05
7.55388e-05
7.32325e-05
6.99425e-05
6.53606e-05
6.0663e-05
5.63631e-05
5.25327e-05
4.91305e-05
4.61e-05
4.33909e-05
4.09585e-05
3.87175e-05
3.65587e-05
3.43337e-05
3.30245e-05
2.96768e-05
2.96767e-05
4.21473e-05
5.04198e-05
5.68436e-05
0.000134183
5.46515e-05
5.71606e-05
0.000108929
0.000163107
)
;
    }
    ceiling
    {
        type            nutkWallFunction;
        Cmu             0.09;
        kappa           0.41;
        E               9.8;
        value           nonuniform List<scalar> 
43
(
0.000214727
0.000225373
0.000233213
0.000240856
0.000219952
0.000203233
0.000195215
0.000186959
0.000174844
0.000159739
0.00014232
0.000124817
0.000109122
9.65187e-05
8.72973e-05
8.07174e-05
7.59113e-05
7.23707e-05
6.98984e-05
6.84205e-05
6.78476e-05
6.80555e-05
6.89254e-05
7.03773e-05
7.2386e-05
7.48784e-05
7.78304e-05
8.12693e-05
8.52527e-05
8.98892e-05
9.51132e-05
0.000100919
0.000107348
0.000114429
0.000122099
0.000130258
0.000131926
0.000118337
0.000112607
0.000132798
0.000343919
0.000404848
0.000247081
)
;
    }
    sWall
    {
        type            nutkWallFunction;
        Cmu             0.09;
        kappa           0.41;
        E               9.8;
        value           uniform 0.000214787;
    }
    nWall
    {
        type            nutkWallFunction;
        Cmu             0.09;
        kappa           0.41;
        E               9.8;
        value           nonuniform List<scalar> 6(9.73645e-05 0.000101717 0.000114469 0.000129424 0.000132192 0.000132807);
    }
    sideWalls
    {
        type            empty;
    }
    glass1
    {
        type            nutkWallFunction;
        Cmu             0.09;
        kappa           0.41;
        E               9.8;
        value           nonuniform List<scalar> 9(0.000128403 0.000172726 0.000208613 0.000242461 0.000276443 0.000312033 0.000345041 0.000352144 0.000344347);
    }
    glass2
    {
        type            nutkWallFunction;
        Cmu             0.09;
        kappa           0.41;
        E               9.8;
        value           nonuniform List<scalar> 2(0.000172068 0.00016058);
    }
    sun
    {
        type            nutkWallFunction;
        Cmu             0.09;
        kappa           0.41;
        E               9.8;
        value           nonuniform List<scalar> 
14
(
0.000128306
0.00013947
0.000142007
0.000148506
0.000154499
0.000160126
0.000165696
0.000170991
0.000174694
0.00017611
0.000174568
0.000169578
0.000160879
0.000148658
)
;
    }
    heatsource1
    {
        type            nutkWallFunction;
        Cmu             0.09;
        kappa           0.41;
        E               9.8;
        value           nonuniform List<scalar> 3(7.17127e-05 8.67086e-05 9.73637e-05);
    }
    heatsource2
    {
        type            nutkWallFunction;
        Cmu             0.09;
        kappa           0.41;
        E               9.8;
        value           nonuniform List<scalar> 4(0.000136489 8.52456e-05 8.52456e-05 0.000140424);
    }
    Table_master
    {
        type            nutkWallFunction;
        Cmu             0.09;
        kappa           0.41;
        E               9.8;
        value           nonuniform List<scalar> 9(9.40349e-05 8.30091e-05 7.39323e-05 6.64727e-05 6.03067e-05 5.51692e-05 5.08604e-05 4.72512e-05 4.42867e-05);
    }
    Table_slave
    {
        type            nutkWallFunction;
        Cmu             0.09;
        kappa           0.41;
        E               9.8;
        value           nonuniform List<scalar> 9(0.000106447 9.72806e-05 9.06482e-05 8.55618e-05 8.12185e-05 7.71657e-05 7.32518e-05 6.91127e-05 6.42771e-05);
    }
    inlet
    {
        type            calculated;
        value           uniform 0.000100623;
    }
    outlet
    {
        type            calculated;
        value           nonuniform List<scalar> 2(0.00183048 0.00192766);
    }
}


// ************************************************************************* //
