/*--------------------------------*- C++ -*----------------------------------*\
  =========                 |
  \\      /  F ield         | OpenFOAM: The Open Source CFD Toolbox
   \\    /   O peration     | Website:  https://openfoam.org
    \\  /    A nd           | Version:  6
     \\/     M anipulation  |
\*---------------------------------------------------------------------------*/
FoamFile
{
    version     2.0;
    format      ascii;
    class       volScalarField;
    location    "1400";
    object      nut;
}
// * * * * * * * * * * * * * * * * * * * * * * * * * * * * * * * * * * * * * //

dimensions      [0 2 -1 0 0 0 0];

internalField   nonuniform List<scalar> 
459
(
0.00106524
0.00116123
0.00118318
0.00123961
0.00129191
0.00134125
0.00139027
0.001437
0.00146974
0.00148217
0.0014683
0.00142388
0.00134691
0.00123963
0.00111401
0.000460793
0.000548668
0.000619524
0.000625696
0.000607305
0.000581128
0.00054481
0.000507846
0.00047428
0.000444612
0.000418457
0.000395327
0.000374794
0.000356481
0.000339719
0.000323678
0.00030727
0.000297877
0.000273583
0.00145058
0.00343376
0.00324677
0.00376478
0.00427294
0.00478263
0.00522573
0.00557165
0.00589344
0.00616133
0.00633864
0.00638776
0.00626353
0.00585851
0.00471897
0.00113378
0.000704599
0.000480156
0.00100882
0.00141097
0.00171446
0.0018934
0.00190054
0.00149984
0.00128595
0.00113416
0.00101839
0.000926975
0.000852951
0.000790673
0.000733005
0.000677442
0.000628118
0.000584651
0.000702936
0.000366338
0.00177154
0.00465922
0.00395822
0.00492386
0.00536801
0.00569269
0.00594812
0.00617496
0.00643809
0.00672251
0.00699492
0.00720514
0.00730807
0.00722751
0.0067411
0.00517084
0.00116844
0.000899042
0.00130775
0.0017007
0.00208262
0.00236614
0.00233804
0.000776641
0.000686294
0.000612966
0.000553481
0.000504884
0.000464819
0.000431535
0.000403892
0.000381359
0.000410199
0.000470803
0.000798116
0.000429943
0.0020803
0.00596391
0.00390921
0.00513866
0.00547048
0.00555324
0.00562632
0.00575983
0.00598323
0.00627996
0.00661908
0.00692944
0.00716262
0.00725258
0.0071493
0.00658832
0.0044161
0.00136586
0.00163036
0.00207094
0.00255363
0.00298332
0.00327856
0.00312488
0.000880094
0.000803801
0.000749172
0.000707626
0.000672382
0.000639622
0.000608155
0.00057505
0.000536619
0.000504067
0.00050948
0.000936604
0.000480076
0.00239534
0.00766714
0.0042292
0.00490237
0.00535484
0.00530809
0.00527199
0.00537834
0.00558855
0.00589149
0.00626559
0.00660637
0.0068444
0.00693614
0.0068826
0.00665792
0.00608809
0.00515032
0.00482051
0.00475412
0.00478491
0.00482562
0.00482013
0.00466143
0.00396588
0.00362211
0.00342179
0.00326796
0.00310662
0.00287673
0.00255837
0.00216619
0.00172858
0.00129494
0.000960645
0.000948763
0.000657905
0.000596473
0.000717886
0.000806382
0.00273005
0.00953629
0.00582281
0.00474854
0.00518607
0.00532843
0.00519863
0.00529704
0.0054707
0.00575086
0.0061142
0.0064689
0.00670493
0.00675706
0.00664078
0.00643912
0.00624292
0.00610794
0.00609746
0.00610518
0.00606232
0.00596126
0.00580657
0.00558723
0.00526169
0.00496811
0.00470653
0.00445462
0.00419817
0.00392471
0.00358332
0.00315942
0.00265344
0.0020948
0.00159477
0.00117049
0.000914423
0.000783927
0.0011099
0.000843607
0.00304437
0.0108875
0.00835588
0.00604143
0.00563919
0.00566846
0.00553203
0.00545544
0.00553932
0.00580492
0.00618721
0.00655901
0.00678312
0.00678486
0.00659991
0.00637885
0.00631796
0.00647431
0.00666755
0.0067195
0.00660678
0.00637897
0.00607826
0.00572977
0.00535622
0.00500603
0.00468484
0.00438609
0.00410998
0.00386259
0.00364618
0.0033857
0.00301543
0.00255157
0.00210101
0.00167419
0.00137764
0.00126933
0.00125645
0.000956319
0.00311239
0.00988226
0.00857331
0.00759651
0.00700084
0.00633916
0.00578477
0.00555275
0.00565798
0.00601513
0.00647584
0.00686617
0.0070346
0.00693207
0.006654
0.00643623
0.00650655
0.00677353
0.0068754
0.00673104
0.00641234
0.00598792
0.00551316
0.00504037
0.00461482
0.00425638
0.00395669
0.00370763
0.00351
0.00336885
0.00328913
0.00325694
0.00314227
0.00286882
0.00262454
0.00250164
0.00257871
0.00285022
0.00354384
0.00145428
0.00303752
0.00362708
0.00409645
0.00424413
0.00425646
0.00435553
0.00464141
0.0051411
0.00580924
0.00651343
0.00708757
0.00738834
0.00731971
0.00694961
0.00655548
0.00646757
0.006509
0.00648776
0.00627941
0.00589164
0.00538332
0.00482899
0.00429966
0.00384836
0.00349235
0.00321801
0.00300286
0.00283062
0.00269044
0.0025729
0.00246906
0.00237216
0.00229765
0.00224363
0.00222249
0.00222942
0.00221403
0.00213105
0.00198922
0.00135137
0.0018293
0.00326098
0.00451695
0.0055641
0.00641643
0.00718235
0.0077779
0.00807674
0.00803825
0.0076836
0.00705729
0.00634798
0.00590864
0.00573332
0.00555104
0.00523627
0.00479285
0.00427972
0.00376696
0.00330867
0.00293867
0.00266471
0.00246895
0.00232959
0.00223044
0.00216155
0.00211695
0.00209322
0.0020903
0.0021119
0.00214441
0.00218501
0.0022294
0.00226105
0.00225228
0.00218754
0.00193438
0.00107924
0.00212962
0.00456483
0.0062586
0.00705527
0.00759274
0.00796677
0.00793392
0.00743006
0.00666121
0.00583918
0.00514603
0.00464242
0.00430393
0.00400401
0.00365158
0.00325831
0.002869
0.0025279
0.00226126
0.00207155
0.00194487
0.00186091
0.00180733
0.00178028
0.00177639
0.00179203
0.00182404
0.00186854
0.00192976
0.00200508
0.00209207
0.00218536
0.0022718
0.00233097
0.00234844
0.00232142
0.00167033
0.00110366
0.00183164
0.00192881
0.00200075
0.00207036
0.001878
0.00172547
0.00165244
0.00157765
0.00146891
0.00133486
0.00118251
0.00103178
0.000898624
0.000793043
0.000716577
0.000662492
0.000623377
0.000594913
0.000575348
0.000563939
0.000559847
0.000562012
0.000569476
0.000581601
0.000598205
0.000618739
0.000643066
0.000671466
0.000704479
0.0007431
0.000786901
0.000835902
0.000890528
0.000951104
0.00101712
0.00108785
0.00110187
0.000984918
0.000934445
0.00110541
)
;

boundaryField
{
    floor
    {
        type            nutkWallFunction;
        Cmu             0.09;
        kappa           0.41;
        E               9.8;
        value           nonuniform List<scalar> 
29
(
0.000134053
5.4674e-05
6.58952e-05
7.4781e-05
7.55492e-05
7.32581e-05
6.99824e-05
6.54076e-05
6.07126e-05
5.64125e-05
5.258e-05
4.91747e-05
4.61406e-05
4.34283e-05
4.0993e-05
3.87497e-05
3.65896e-05
3.43653e-05
3.30851e-05
2.97484e-05
2.97483e-05
4.23051e-05
5.06727e-05
5.71568e-05
0.000134053
5.4674e-05
5.71674e-05
0.000108772
0.00016298
)
;
    }
    ceiling
    {
        type            nutkWallFunction;
        Cmu             0.09;
        kappa           0.41;
        E               9.8;
        value           nonuniform List<scalar> 
43
(
0.000214855
0.000225497
0.000233342
0.000240995
0.000220053
0.000203267
0.000195172
0.000186838
0.000174638
0.000159455
0.00014199
0.000124457
0.000108723
9.60548e-05
8.67566e-05
8.01089e-05
7.52606e-05
7.17096e-05
6.92567e-05
6.78216e-05
6.7306e-05
6.75788e-05
6.85184e-05
7.00413e-05
7.21209e-05
7.4683e-05
7.7705e-05
8.12157e-05
8.52745e-05
8.9994e-05
9.53118e-05
0.00010122
0.000107758
0.000114955
0.000122738
0.000131013
0.000132645
0.000118949
0.000112982
0.00013306
0.000344035
0.000404973
0.000247213
)
;
    }
    sWall
    {
        type            nutkWallFunction;
        Cmu             0.09;
        kappa           0.41;
        E               9.8;
        value           uniform 0.000214914;
    }
    nWall
    {
        type            nutkWallFunction;
        Cmu             0.09;
        kappa           0.41;
        E               9.8;
        value           nonuniform List<scalar> 6(9.76664e-05 0.000102147 0.000115576 0.000130018 0.000132863 0.000133068);
    }
    sideWalls
    {
        type            empty;
    }
    glass1
    {
        type            nutkWallFunction;
        Cmu             0.09;
        kappa           0.41;
        E               9.8;
        value           nonuniform List<scalar> 9(0.000128473 0.00017279 0.000208682 0.00024254 0.000276534 0.000312135 0.000345153 0.00035226 0.000344463);
    }
    glass2
    {
        type            nutkWallFunction;
        Cmu             0.09;
        kappa           0.41;
        E               9.8;
        value           nonuniform List<scalar> 2(0.000173065 0.000161401);
    }
    sun
    {
        type            nutkWallFunction;
        Cmu             0.09;
        kappa           0.41;
        E               9.8;
        value           nonuniform List<scalar> 
14
(
0.000128375
0.00013953
0.000142067
0.000148564
0.000154556
0.000160183
0.000165751
0.00017104
0.000174733
0.000176133
0.00017457
0.000169555
0.000160825
0.000148565
)
;
    }
    heatsource1
    {
        type            nutkWallFunction;
        Cmu             0.09;
        kappa           0.41;
        E               9.8;
        value           nonuniform List<scalar> 3(7.19063e-05 8.6917e-05 9.76655e-05);
    }
    heatsource2
    {
        type            nutkWallFunction;
        Cmu             0.09;
        kappa           0.41;
        E               9.8;
        value           nonuniform List<scalar> 4(0.000136346 8.52915e-05 8.52915e-05 0.000140359);
    }
    Table_master
    {
        type            nutkWallFunction;
        Cmu             0.09;
        kappa           0.41;
        E               9.8;
        value           nonuniform List<scalar> 9(9.40698e-05 8.30435e-05 7.39668e-05 6.65068e-05 6.03396e-05 5.51999e-05 5.0888e-05 4.72751e-05 4.43068e-05);
    }
    Table_slave
    {
        type            nutkWallFunction;
        Cmu             0.09;
        kappa           0.41;
        E               9.8;
        value           nonuniform List<scalar> 9(0.000106512 9.73542e-05 9.07343e-05 8.56616e-05 8.13305e-05 7.72802e-05 7.33662e-05 6.92217e-05 6.43739e-05);
    }
    inlet
    {
        type            calculated;
        value           uniform 0.000100623;
    }
    outlet
    {
        type            calculated;
        value           nonuniform List<scalar> 2(0.00183164 0.00192881);
    }
}


// ************************************************************************* //
