/*--------------------------------*- C++ -*----------------------------------*\
  =========                 |
  \\      /  F ield         | OpenFOAM: The Open Source CFD Toolbox
   \\    /   O peration     | Website:  https://openfoam.org
    \\  /    A nd           | Version:  6
     \\/     M anipulation  |
\*---------------------------------------------------------------------------*/
FoamFile
{
    version     2.0;
    format      ascii;
    class       volScalarField;
    location    "900";
    object      epsilon;
}
// * * * * * * * * * * * * * * * * * * * * * * * * * * * * * * * * * * * * * //

dimensions      [0 2 -3 0 0 0 0];

internalField   nonuniform List<scalar> 
459
(
0.000433678
0.00056252
0.000595843
0.000685656
0.000776716
0.000869947
0.000970121
0.001071
0.00114457
0.00117134
0.00113517
0.00103099
0.000867465
0.000669657
0.000479542
3.52644e-05
5.93341e-05
8.58067e-05
8.92914e-05
8.19827e-05
7.20318e-05
5.93447e-05
4.80148e-05
3.90665e-05
3.21539e-05
2.67861e-05
2.25715e-05
1.9223e-05
1.65334e-05
1.43041e-05
1.23684e-05
1.05783e-05
9.60775e-06
7.42533e-06
0.00109104
0.00159102
0.000528686
0.000512561
0.000536445
0.000578188
0.000642321
0.000725893
0.000804077
0.000850395
0.000844932
0.000783449
0.00067538
0.0005437
0.000435616
0.000507687
0.000129724
3.94437e-05
9.20759e-05
0.000104354
9.85679e-05
8.65323e-05
7.41798e-05
6.81344e-05
5.49251e-05
4.31571e-05
3.39136e-05
2.68564e-05
2.14917e-05
1.73985e-05
1.42905e-05
1.19999e-05
1.05599e-05
9.91844e-06
2.60274e-05
1.75513e-05
0.00198265
0.00389694
0.000647662
0.000486212
0.000509135
0.000573192
0.000670294
0.000791719
0.000900433
0.000962064
0.000960204
0.000897949
0.000787159
0.00065433
0.000534183
0.00047419
0.000570748
0.000252439
0.00020341
0.000164488
0.000133486
0.000108768
9.3612e-05
0.000171368
0.000117858
8.36977e-05
6.14311e-05
4.65006e-05
3.61967e-05
2.89018e-05
2.36544e-05
1.98902e-05
1.5142e-05
1.27301e-05
5.03494e-05
2.82716e-05
0.00320414
0.00809427
0.00101701
0.000488738
0.000495509
0.000586145
0.000733942
0.00091414
0.00105003
0.00111174
0.00109704
0.00101875
0.000886389
0.000736153
0.000605037
0.000520483
0.000501998
0.000905934
0.000526539
0.000325638
0.00022323
0.000164324
0.000127307
0.000109737
0.000249676
0.000189691
0.000153161
0.000128697
0.000110083
9.45481e-05
8.10659e-05
6.83452e-05
5.53581e-05
3.2883e-05
2.14987e-05
8.62461e-05
3.92767e-05
0.0048837
0.0144694
0.00200432
0.000570271
0.000499864
0.000622991
0.0008932
0.00115581
0.00129539
0.00133094
0.00128253
0.00116809
0.00100251
0.000813624
0.000633827
0.000488968
0.000391997
0.000352512
0.000291044
0.000235067
0.000189795
0.00015384
0.000125466
0.000105266
0.000100709
9.32502e-05
8.61538e-05
7.92896e-05
7.21496e-05
6.45605e-05
5.69708e-05
4.97552e-05
4.3156e-05
3.44828e-05
2.67394e-05
6.0557e-05
4.65364e-05
7.53081e-05
0.000131255
0.00018611
0.00722187
0.0215506
0.00452154
0.00106203
0.000703898
0.000841193
0.00137304
0.00162269
0.00168803
0.00165247
0.00154824
0.00138148
0.00116068
0.00091269
0.000675574
0.000484037
0.000355084
0.000284197
0.000241496
0.000206773
0.000174293
0.000145196
0.000120925
0.000102998
9.31975e-05
8.8472e-05
8.56436e-05
8.2721e-05
7.85743e-05
7.22957e-05
6.3482e-05
5.41272e-05
4.55438e-05
3.79688e-05
3.35142e-05
4.53304e-05
4.8461e-05
5.8361e-05
0.000243006
0.000213342
0.0100021
0.0258133
0.00943687
0.00350531
0.00228611
0.00232476
0.00248962
0.00243912
0.00229522
0.00211866
0.00191188
0.00165791
0.00135433
0.00102875
0.000725396
0.000488759
0.000337399
0.000257614
0.000215379
0.000184235
0.000155716
0.000130851
0.000111505
9.88878e-05
9.34075e-05
9.30746e-05
9.49641e-05
9.73775e-05
9.92729e-05
9.91916e-05
9.41991e-05
8.41288e-05
7.38339e-05
6.52503e-05
6.26905e-05
7.06567e-05
8.83127e-05
0.000133628
0.000324775
0.00031267
0.0106824
0.0287059
0.0156304
0.00999385
0.00715761
0.00552996
0.00438588
0.00362035
0.00310129
0.00271308
0.00235988
0.0019787
0.00155512
0.00112534
0.000739864
0.000458806
0.000295716
0.000217247
0.000178854
0.000151631
0.000128896
0.000111431
0.000100046
9.48344e-05
9.52456e-05
9.99558e-05
0.000107692
0.000118088
0.000131344
0.000147569
0.000166112
0.000181613
0.000192882
0.000215385
0.000260604
0.000382954
0.000662843
0.00121512
0.00410768
0.00109387
0.00992872
0.016888
0.0135457
0.0102397
0.00782636
0.00618637
0.00508101
0.00432811
0.0037836
0.00331433
0.00282048
0.00225793
0.00165027
0.00108395
0.000602263
0.000327855
0.000213457
0.000162221
0.000134475
0.000115217
0.000100837
9.14835e-05
8.71552e-05
8.75225e-05
9.20778e-05
0.000100359
0.000112355
0.000128784
0.000151077
0.000181363
0.000222521
0.000278307
0.000355626
0.000467645
0.000633087
0.000860301
0.00112984
0.00138526
0.00158523
0.000875613
0.00490969
0.00660791
0.00671685
0.006238
0.00557589
0.00494234
0.00429483
0.00356865
0.00275941
0.00188037
0.00102468
0.000545813
0.000295493
0.000181439
0.000130043
0.000103941
8.83336e-05
7.80252e-05
7.16372e-05
6.85251e-05
6.83541e-05
7.08579e-05
7.58599e-05
8.343e-05
9.39905e-05
0.000108373
0.000127902
0.000154568
0.000191429
0.000243466
0.000316188
0.000417325
0.000554076
0.000723464
0.000902389
0.00105026
0.000986416
0.000445809
0.00339231
0.00673817
0.00669974
0.00539831
0.0045538
0.00383542
0.00295358
0.0020437
0.00129029
0.000752784
0.000421259
0.000240868
0.000150048
0.000106977
8.58008e-05
7.43422e-05
6.76709e-05
6.39354e-05
6.24363e-05
6.27931e-05
6.47925e-05
6.83137e-05
7.34431e-05
8.04843e-05
8.99263e-05
0.000102484
0.000119286
0.000142076
0.000173399
0.000216555
0.000276077
0.000356843
0.000460661
0.00058021
0.000695427
0.000840946
0.000465346
0.000476637
0.00216217
0.00252433
0.00281619
0.00312265
0.00233893
0.00182854
0.00162074
0.0014065
0.00113204
0.000843327
0.000586207
0.000391812
0.000262059
0.000182676
0.000136342
0.000108456
9.04943e-05
7.84212e-05
7.04844e-05
6.58291e-05
6.3857e-05
6.40902e-05
6.62253e-05
7.01384e-05
7.59447e-05
8.38225e-05
9.39428e-05
0.000106843
0.000123353
0.000144819
0.00017205
0.000206396
0.000249808
0.000304657
0.00037296
0.000456837
0.00047303
0.000338168
0.000288674
0.000478129
)
;

boundaryField
{
    floor
    {
        Cmu             0.09;
        kappa           0.41;
        E               9.8;
        type            epsilonWallFunction;
        value           nonuniform List<scalar> 
29
(
0.000479542
3.52644e-05
5.93341e-05
8.58067e-05
8.92914e-05
8.19827e-05
7.20318e-05
5.93447e-05
4.80148e-05
3.90665e-05
3.21539e-05
2.67861e-05
2.25715e-05
1.9223e-05
1.65334e-05
1.43041e-05
1.23684e-05
1.05783e-05
9.60775e-06
7.42533e-06
7.42533e-06
1.75513e-05
2.82716e-05
3.92767e-05
0.000479542
3.52644e-05
3.94437e-05
0.000252439
0.000905934
)
;
    }
    ceiling
    {
        Cmu             0.09;
        kappa           0.41;
        E               9.8;
        type            epsilonWallFunction;
        value           nonuniform List<scalar> 
43
(
0.00216217
0.00252433
0.00281619
0.00312265
0.00233893
0.00182854
0.00162074
0.0014065
0.00113204
0.000843327
0.000586207
0.000391812
0.000262059
0.000182676
0.000136342
0.000108456
9.04943e-05
7.84212e-05
7.04844e-05
6.58291e-05
6.3857e-05
6.40902e-05
6.62253e-05
7.01384e-05
7.59447e-05
8.38225e-05
9.39428e-05
0.000106843
0.000123353
0.000144819
0.00017205
0.000206396
0.000249808
0.000304657
0.00037296
0.000456837
0.00047303
0.000338168
0.000288674
0.000478129
0.00992872
0.016888
0.00339231
)
;
    }
    sWall
    {
        Cmu             0.09;
        kappa           0.41;
        E               9.8;
        type            epsilonWallFunction;
        value           uniform 0.00216217;
    }
    nWall
    {
        Cmu             0.09;
        kappa           0.41;
        E               9.8;
        type            epsilonWallFunction;
        value           nonuniform List<scalar> 6(0.00018611 0.000213342 0.00031267 0.000445809 0.000476637 0.000478129);
    }
    sideWalls
    {
        type            empty;
    }
    glass1
    {
        Cmu             0.09;
        kappa           0.41;
        E               9.8;
        type            epsilonWallFunction;
        value           nonuniform List<scalar> 9(0.000433678 0.00109104 0.00198265 0.00320414 0.0048837 0.00722187 0.0100021 0.0106824 0.00992872);
    }
    glass2
    {
        Cmu             0.09;
        kappa           0.41;
        E               9.8;
        type            epsilonWallFunction;
        value           nonuniform List<scalar> 2(0.00109387 0.000875613);
    }
    sun
    {
        Cmu             0.09;
        kappa           0.41;
        E               9.8;
        type            epsilonWallFunction;
        value           nonuniform List<scalar> 
14
(
0.000433678
0.00056252
0.000595843
0.000685656
0.000776716
0.000869947
0.000970121
0.001071
0.00114457
0.00117134
0.00113517
0.00103099
0.000867465
0.000669657
)
;
    }
    heatsource1
    {
        Cmu             0.09;
        kappa           0.41;
        E               9.8;
        type            epsilonWallFunction;
        value           nonuniform List<scalar> 3(7.53081e-05 0.000131255 0.00018611);
    }
    heatsource2
    {
        Cmu             0.09;
        kappa           0.41;
        E               9.8;
        type            epsilonWallFunction;
        value           nonuniform List<scalar> 4(0.000507687 0.000129724 0.000129724 0.000570748);
    }
    Table_master
    {
        Cmu             0.09;
        kappa           0.41;
        E               9.8;
        type            epsilonWallFunction;
        value           nonuniform List<scalar> 9(0.000171368 0.000117858 8.36977e-05 6.14311e-05 4.65006e-05 3.61967e-05 2.89018e-05 2.36544e-05 1.98902e-05);
    }
    Table_slave
    {
        Cmu             0.09;
        kappa           0.41;
        E               9.8;
        type            epsilonWallFunction;
        value           nonuniform List<scalar> 9(0.000249676 0.000189691 0.000153161 0.000128697 0.000110083 9.45481e-05 8.10659e-05 6.83452e-05 5.53581e-05);
    }
    inlet
    {
        type            turbulentMixingLengthDissipationRateInlet;
        mixingLength    0.01;
        phi             phi;
        k               k;
        value           uniform 0.000101881;
    }
    outlet
    {
        type            zeroGradient;
    }
}


// ************************************************************************* //
