// -*- C++ -*-
// File generated by PyFoam - sorry for the ugliness

FoamFile
{
 version 2.0;
 format ascii;
 class volScalarField;
 location "900";
 object T;
}

dimensions [ 0 0 0 1 0 0 0 ];

internalField nonuniform List<scalar> 459
(
  303.36
  303.097
  303.084
  303.08
  303.077
  303.073
  303.068
  303.062
  303.053
  303.042
  303.03
  303.02
  303.014
  303.013
  303.021
  303.108
  303.089
  303.081
  303.084
  303.088
  303.092
  303.096
  303.1
  303.104
  303.108
  303.112
  303.116
  303.12
  303.124
  303.128
  303.132
  303.136
  303.142
  303.162
  303.538
  303.138
  303.116
  303.119
  303.122
  303.122
  303.12
  303.112
  303.095
  303.07
  303.043
  303.02
  303.006
  303
  302.999
  302.996
  302.992
  303.111
  303.073
  303.067
  303.069
  303.074
  303.079
  303.081
  303.083
  303.084
  303.085
  303.086
  303.088
  303.089
  303.09
  303.093
  303.097
  303.103
  303.112
  303.145
  303.725
  303.189
  303.152
  303.164
  303.179
  303.19
  303.194
  303.186
  303.158
  303.113
  303.065
  303.027
  303.003
  302.994
  302.994
  302.996
  302.995
  303.064
  303.057
  303.06
  303.068
  303.078
  303.086
  303.086
  303.086
  303.086
  303.086
  303.086
  303.086
  303.086
  303.086
  303.087
  303.09
  303.094
  303.103
  303.138
  303.914
  303.251
  303.189
  303.208
  303.239
  303.268
  303.286
  303.278
  303.233
  303.16
  303.086
  303.03
  302.998
  302.989
  302.992
  302.997
  303.001
  303.011
  303.024
  303.041
  303.06
  303.079
  303.097
  303.11
  303.122
  303.131
  303.14
  303.148
  303.155
  303.16
  303.164
  303.168
  303.169
  303.145
  303.123
  303.112
  303.138
  304.097
  303.329
  303.228
  303.245
  303.288
  303.337
  303.378
  303.368
  303.299
  303.195
  303.095
  303.027
  302.991
  302.982
  302.989
  303.002
  303.015
  303.03
  303.049
  303.07
  303.093
  303.116
  303.136
  303.152
  303.168
  303.18
  303.191
  303.2
  303.206
  303.209
  303.209
  303.205
  303.198
  303.179
  303.151
  303.128
  303.137
  303.215
  303.261
  303.267
  304.263
  303.429
  303.294
  303.287
  303.328
  303.392
  303.452
  303.422
  303.325
  303.2
  303.087
  303.01
  302.974
  302.972
  302.989
  303.014
  303.038
  303.062
  303.088
  303.114
  303.14
  303.164
  303.184
  303.201
  303.216
  303.228
  303.238
  303.245
  303.249
  303.25
  303.245
  303.236
  303.224
  303.205
  303.177
  303.149
  303.142
  303.174
  303.191
  303.227
  304.412
  303.59
  303.447
  303.413
  303.434
  303.494
  303.513
  303.439
  303.303
  303.155
  303.035
  302.965
  302.944
  302.961
  302.998
  303.04
  303.078
  303.112
  303.143
  303.171
  303.197
  303.219
  303.237
  303.251
  303.264
  303.273
  303.281
  303.285
  303.287
  303.285
  303.277
  303.264
  303.248
  303.228
  303.203
  303.176
  303.161
  303.168
  303.179
  303.208
  304.631
  304.014
  303.851
  303.751
  303.707
  303.682
  303.571
  303.388
  303.187
  303.022
  302.921
  302.889
  302.91
  302.963
  303.029
  303.092
  303.142
  303.181
  303.21
  303.234
  303.255
  303.272
  303.286
  303.297
  303.305
  303.312
  303.315
  303.317
  303.316
  303.312
  303.304
  303.292
  303.276
  303.258
  303.239
  303.219
  303.211
  303.221
  303.24
  303.371
  304.942
  304.654
  304.389
  304.159
  303.968
  303.72
  303.376
  303.059
  302.843
  302.745
  302.744
  302.81
  302.911
  303.012
  303.11
  303.181
  303.223
  303.252
  303.273
  303.291
  303.305
  303.317
  303.327
  303.334
  303.339
  303.341
  303.342
  303.341
  303.34
  303.337
  303.335
  303.334
  303.336
  303.341
  303.354
  303.376
  303.406
  303.438
  303.463
  303.525
  296.99
  299.062
  300.144
  300.634
  301.11
  301.581
  302.006
  302.362
  302.645
  302.875
  303.061
  303.164
  303.227
  303.266
  303.292
  303.311
  303.325
  303.337
  303.346
  303.353
  303.358
  303.362
  303.364
  303.366
  303.367
  303.367
  303.368
  303.368
  303.37
  303.371
  303.375
  303.382
  303.394
  303.411
  303.433
  303.455
  303.475
  303.516
  297.424
  299.27
  300.224
  300.954
  301.583
  302.144
  302.538
  302.815
  303.007
  303.137
  303.219
  303.271
  303.304
  303.325
  303.341
  303.353
  303.362
  303.37
  303.375
  303.378
  303.381
  303.383
  303.384
  303.385
  303.386
  303.387
  303.388
  303.388
  303.389
  303.391
  303.394
  303.399
  303.407
  303.418
  303.432
  303.449
  303.469
  303.494
  299.531
  299.46
  299.456
  301.25
  302.122
  302.561
  302.805
  302.98
  303.104
  303.191
  303.252
  303.294
  303.323
  303.341
  303.354
  303.363
  303.369
  303.374
  303.378
  303.38
  303.383
  303.384
  303.386
  303.388
  303.389
  303.391
  303.392
  303.393
  303.395
  303.396
  303.397
  303.399
  303.401
  303.404
  303.409
  303.416
  303.425
  303.43
  303.487
  303.576
)
;

boundaryField
{
  floor
  {
    type wallHeatTransfer;
    Tinf uniform 305.2;
    alphaWall uniform 0.24;
    value nonuniform List<scalar> 29
(
  303.247
  303.511
  303.45
  303.415
  303.414
  303.424
  303.437
  303.456
  303.477
  303.498
  303.518
  303.538
  303.557
  303.575
  303.592
  303.609
  303.627
  303.646
  303.66
  303.701
  303.701
  303.603
  303.554
  303.526
  303.247
  303.511
  303.503
  303.324
  303.204
)
;
  }
  ceiling
  {
    type wallHeatTransfer;
    Tinf uniform 303.2;
    alphaWall uniform 0.24;
    value nonuniform List<scalar> 43
(
  299.785
  299.709
  299.698
  301.373
  302.195
  302.608
  302.835
  302.998
  303.112
  303.192
  303.247
  303.284
  303.308
  303.323
  303.332
  303.339
  303.343
  303.346
  303.348
  303.35
  303.352
  303.353
  303.355
  303.357
  303.358
  303.36
  303.362
  303.364
  303.366
  303.369
  303.371
  303.374
  303.377
  303.381
  303.386
  303.393
  303.401
  303.404
  303.453
  303.537
  304.861
  304.596
  297.777
)
;
  }
  sWall
  {
    type wallHeatTransfer;
    Tinf uniform 315.2;
    alphaWall uniform 0.36;
    value uniform 301.112;
  }
  nWall
  {
    type wallHeatTransfer;
    Tinf uniform 307.2;
    alphaWall uniform 0.36;
    value nonuniform List<scalar> 6
(
  303.993
  303.938
  303.862
  304.071
  304.043
  304.113
)
;
  }
  sideWalls
  {
    type empty;
  }
  glass1
  {
    type wallHeatTransfer;
    Tinf uniform 315.2;
    alphaWall uniform 4.3;
    value nonuniform List<scalar> 9
(
  311.475
  310.84
  310.439
  310.133
  309.878
  309.646
  309.465
  309.532
  309.755
)
;
  }
  glass2
  {
    type wallHeatTransfer;
    Tinf uniform 307.2;
    alphaWall uniform 4.3;
    value nonuniform List<scalar> 2
(
  305.755
  305.868
)
;
  }
  sun
  {
    type wallHeatTransfer;
    Tinf uniform 305.2;
    alphaWall uniform 0.24;
    value nonuniform List<scalar> 14
(
  303.556
  303.306
  303.291
  303.281
  303.271
  303.262
  303.253
  303.243
  303.231
  303.219
  303.21
  303.205
  303.208
  303.221
)
;
  }
  heatsource1
  {
    type fixedGradient;
    gradient uniform 0;
  }
  heatsource2
  {
    type fixedGradient;
    gradient uniform 0;
  }
  Table_master
  {
    type zeroGradient;
  }
  Table_slave
  {
    type zeroGradient;
  }
  inlet
  {
    type fixedValue;
    value uniform 293.15;
  }
  outlet
  {
    type zeroGradient;
  }
} 	// ************************************************************************* //

