/*--------------------------------*- C++ -*----------------------------------*\
  =========                 |
  \\      /  F ield         | OpenFOAM: The Open Source CFD Toolbox
   \\    /   O peration     | Website:  https://openfoam.org
    \\  /    A nd           | Version:  6
     \\/     M anipulation  |
\*---------------------------------------------------------------------------*/
FoamFile
{
    version     2.0;
    format      ascii;
    class       surfaceScalarField;
    location    "1800";
    object      phi;
}
// * * * * * * * * * * * * * * * * * * * * * * * * * * * * * * * * * * * * * //

dimensions      [1 0 -1 0 0 0 0];

internalField   nonuniform List<scalar> 
852
(
-0.00295879
0.00301609
-0.00399982
0.00104103
-0.00480012
0.000800301
-0.00542301
0.000622884
-0.00583499
0.000411978
-0.00600795
0.000172967
-0.00591375
-9.42023e-05
-0.00553059
-0.000383157
-0.00487477
-0.00065583
-0.00401174
-0.000863029
-0.00304182
-0.000969921
-0.00207696
-0.000964858
-0.00121971
-0.000857251
-0.000532917
-0.000686789
-0.000531256
-0.000779086
0.000782053
-0.000525998
-0.000253089
6.85256e-05
-0.000594523
0.000571956
-0.000503431
0.000922953
-0.000350997
0.00115273
-0.000229777
0.00128099
-0.000128256
0.00134307
-6.20863e-05
0.00137742
-3.435e-05
0.0013986
-2.1176e-05
0.00141072
-1.21159e-05
0.00141529
-4.57103e-06
0.001411
4.28798e-06
0.0013905
2.04969e-05
0.00133245
5.80554e-05
0.00120112
0.000131323
0.000984246
0.000216877
0.000716513
0.000267733
0.000720478
-0.00211958
0.00529009
-0.00314022
0.00206167
-0.00396909
0.00162918
-0.00458824
0.00124203
-0.00499871
0.000822442
-0.0051813
0.000355558
-0.00510461
-0.000170893
-0.00475115
-0.000736615
-0.00414976
-0.00125721
-0.00337651
-0.00163629
-0.00252979
-0.00181663
-0.00170436
-0.00179029
-0.000980825
-0.00158079
-0.000432604
-0.00123501
-0.000163226
-0.000800634
0.000121777
-0.000285054
0.000121725
0.000249031
0.000541671
0.000654794
-0.000658852
0.000923943
-0.000863672
0.00114988
-0.000729365
0.00133027
-0.000531392
0.00144743
-0.000346934
0.00146852
-0.000149343
0.00147362
-6.71899e-05
0.00147981
-4.05387e-05
0.00148503
-2.63929e-05
0.00148859
-1.56767e-05
0.00149056
-6.54063e-06
0.00149018
4.66844e-06
0.0014844
2.62762e-05
0.00144552
9.69295e-05
0.00127894
0.000297905
0.000989069
0.000506748
0.000625335
0.000631467
0.00135592
-0.00148963
0.00701598
-0.00237238
0.00294443
-0.0031129
0.00236969
-0.00364846
0.00177759
-0.00401306
0.00118704
-0.00418233
0.000524824
-0.00410199
-0.000251228
-0.00374673
-0.00109188
-0.00317121
-0.00183274
-0.00246913
-0.00233836
-0.00173569
-0.00255007
-0.00104332
-0.00248266
-0.000443912
-0.0021802
2.84466e-05
-0.00170737
0.000339114
-0.0011113
0.000477388
-0.000423328
0.000599113
0.00149313
-0.000941981
0.00171351
-0.000879228
0.00167272
-0.000822884
0.00166241
-0.000719054
0.00168806
-0.000557043
0.00173232
-0.000391199
0.00158313
0.0015161
0.00147571
0.00144947
0.00143395
0.00142756
0.00143238
0.00145881
0.0015559
0.00128588
0.000567924
0.000954811
0.000837815
0.000536766
0.00104951
0.00190799
-0.00104295
0.00836489
-0.00174472
0.0036462
-0.0022426
0.00286757
-0.00260146
0.00213645
-0.00285264
0.00143823
-0.00295911
0.000631285
-0.00282414
-0.000386191
-0.00243199
-0.00148403
-0.00188438
-0.00238035
-0.0012837
-0.00293904
-0.000705586
-0.00312819
-0.000189351
-0.0029989
0.000249314
-0.00261886
0.000611495
-0.00206955
0.000934069
-0.00143388
0.00129833
-0.000787586
0.00214799
-0.000250553
0.00250103
-0.000344681
0.00215176
-0.000592709
0.00201598
-0.000743455
0.00188626
-0.000693162
0.00176972
-0.000602508
0.00169515
-0.000482479
0.00163389
-0.000329942
0.00177639
-0.000142646
0.00186324
-8.70005e-05
0.00193264
-6.956e-05
0.00198679
-5.43054e-05
0.00201185
-2.52051e-05
0.00198609
2.56067e-05
0.00188409
0.000101843
0.00167224
0.000211701
0.00129535
0.000376738
0.00113623
0.000727036
0.000825932
0.00114812
0.000361597
0.00151385
0.00228955
-0.000728617
0.00945864
-0.00126171
0.0041793
-0.00138405
0.0029899
-0.00147747
0.00222987
-0.00153949
0.00150025
-0.00149951
0.000591304
-0.00122391
-0.000661788
-0.000782434
-0.00192551
-0.000306548
-0.00285624
0.00012498
-0.00337056
0.000478028
-0.00348124
0.000748071
-0.00326894
0.000957261
-0.00282805
0.00113519
-0.00224748
0.00131592
-0.00161461
0.00154744
-0.0010191
0.00187341
-0.000576526
0.00197914
-0.000450405
0.00189691
-0.000510486
0.00172033
-0.000566871
0.001561
-0.00053383
0.00142433
-0.000465844
0.00132383
-0.000381982
0.00127558
-0.000281688
0.00131784
-0.000184906
0.00137152
-0.000140681
0.00142948
-0.000127517
0.00148853
-0.000113358
0.00153848
-7.51561e-05
0.00155902
5.06553e-06
0.00152844
0.000132421
0.00143456
0.000305587
0.00127822
0.00053308
0.00113278
0.000872469
0.000969588
0.00131131
0.00061744
0.00186599
0.000521778
0.00238521
-0.000985264
0.00150684
-0.00144995
0.000464483
-0.00140159
-0.000630755
0.0105044
-0.000996568
0.00454511
-0.000602656
0.00259599
-0.000309312
0.00193653
-9.46504e-05
0.00128559
0.000230631
0.000266022
0.000712307
-0.00114346
0.00115007
-0.00236327
0.00146227
-0.00316843
0.00163525
-0.00354354
0.00169501
-0.003541
0.00167372
-0.00324765
0.0016043
-0.00275863
0.00152436
-0.00216754
0.00146715
-0.0015574
0.00145764
-0.00100958
0.00148889
-0.000607781
0.0014571
-0.000418615
0.00133216
-0.000385547
0.00115321
-0.000387921
0.000988573
-0.000369191
0.000857168
-0.000334439
0.000767235
-0.000292048
0.00072969
-0.000244144
0.000748348
-0.000203564
0.000798157
-0.000190491
0.000864738
-0.000194097
0.000942229
-0.000190849
0.00102483
-0.000157757
0.00110113
-7.1239e-05
0.00115265
8.09019e-05
0.00117361
0.000284633
0.00117281
0.000533875
0.00119471
0.000850573
0.0012856
0.00122042
0.00146183
0.00168976
0.00190181
0.00194523
0.00216223
0.00124642
0.00177225
0.00085447
0.000428746
-0.000716315
0.0116803
-0.000601859
0.00443065
0.000474205
0.00151993
0.00115271
0.00125803
0.00172893
0.000709361
0.00237509
-0.000380137
0.00292788
-0.00169625
0.00323238
-0.00266777
0.00328274
-0.0032188
0.0031249
-0.0033857
0.00282316
-0.00323926
0.00244166
-0.00286615
0.00203554
-0.00235251
0.00165318
-0.00178518
0.00132726
-0.00123148
0.00107792
-0.000760241
0.000901936
-0.000431796
0.000752035
-0.000268714
0.000592665
-0.000226177
0.000431656
-0.000226912
0.000292357
-0.000229892
0.000186265
-0.000228347
0.000118102
-0.000223885
9.25259e-05
-0.000218568
0.000108235
-0.000219273
0.00015152
-0.000233775
0.000211725
-0.000254302
0.000286695
-0.00026582
0.000380292
-0.000251354
0.000497618
-0.000188565
0.000627415
-4.88942e-05
0.00075787
0.000154178
0.000898391
0.000393354
0.00108697
0.000661995
0.00136995
0.000937441
0.00181317
0.00124654
0.00248246
0.00127594
0.00302635
0.000702529
0.00304514
0.000835674
0.00353641
0.00260298
0.0095909
0.00328107
0.00375256
0.00344643
0.00135457
0.00390009
0.000804368
0.0045922
1.72549e-05
0.00528398
-0.00107191
0.00556489
-0.00197716
0.00543846
-0.00254134
0.0049929
-0.00277324
0.00433323
-0.00272603
0.00356198
-0.00246801
0.00276554
-0.00206971
0.00200476
-0.00159173
0.00133457
-0.00111499
0.00078176
-0.000678672
0.000369009
-0.00034749
9.45915e-05
-0.000157378
-8.80086e-05
-8.61135e-05
-0.000228509
-8.5677e-05
-0.000347651
-0.00010777
-0.000446336
-0.000131207
-0.000522109
-0.000152573
-0.000573667
-0.000172327
-0.000600291
-0.000191944
-0.000604815
-0.000214749
-0.000596154
-0.000242436
-0.000580433
-0.000270024
-0.000557306
-0.000288946
-0.000518897
-0.000289763
-0.000446549
-0.000260914
-0.000310084
-0.000185359
-0.000122857
-3.305e-05
9.74e-05
0.000173097
0.000370494
0.000388901
0.000706904
0.00060103
0.00114707
0.000806376
0.00162295
0.000800056
0.00181632
0.000509156
0.00106935
0.00158265
0.00486389
0.0101545
0.0138999
0.012229
0.00302544
0.011331
0.0017024
0.0105961
0.000752099
0.00970267
-0.000178467
0.0085526
-0.000827096
0.00725302
-0.00124176
0.00589823
-0.00141844
0.00455753
-0.00138534
0.00329422
-0.00120469
0.00215793
-0.000933428
0.00116078
-0.000594579
0.000344355
-0.000298568
-0.000256214
-7.81038e-05
-0.000628894
2.51897e-05
-0.00083055
4.42784e-05
-0.000945783
2.91196e-05
-0.0010318
3.37646e-07
-0.00110903
-3.0538e-05
-0.00118002
-6.02134e-05
-0.00124423
-8.83685e-05
-0.00130179
-0.000114767
-0.00135403
-0.000139702
-0.00140489
-0.000163886
-0.00146167
-0.000185663
-0.00153191
-0.000199779
-0.00162302
-0.000197837
-0.00174427
-0.000168516
-0.00190725
-9.79289e-05
-0.00211937
2.67596e-05
-0.00236746
0.000215035
-0.00267616
0.000481806
-0.00313107
0.000843805
-0.00382762
0.00129758
-0.00483088
0.00180963
-0.00625498
0.00222416
-0.00797031
0.00222449
-0.00746443
0.00107678
-0.00231455
0.00509868
0.00455563
0.0040916
0.00270948
0.00448855
0.000355151
0.00452753
-0.000217445
0.00411853
-0.000418096
0.00343255
-0.000555785
0.00258367
-0.000569559
0.00166446
-0.000466125
0.000748473
-0.000288708
-0.000109295
-7.56589e-05
-0.000804223
0.000100349
-0.00125844
0.000155648
-0.00150345
0.000166905
-0.00162386
0.000145604
-0.00169082
0.000111237
-0.00173857
7.68646e-05
-0.00178344
4.52141e-05
-0.00183189
1.79057e-05
-0.00188741
-4.69274e-06
-0.00195016
-2.56189e-05
-0.00201958
-4.53469e-05
-0.00209669
-6.25875e-05
-0.00218301
-7.75635e-05
-0.00228059
-8.80821e-05
-0.00239058
-8.9796e-05
-0.00251187
-7.65425e-05
-0.00264004
-4.03433e-05
-0.00276656
2.85883e-05
-0.00287934
0.000139533
-0.00297591
0.000311612
-0.00306461
0.000570501
-0.00315221
0.000931403
-0.00323622
0.0013816
-0.00327034
0.00184375
-0.00319598
0.00214979
-0.00283324
0.00186175
-0.00156151
-0.000194953
-0.00380124
-0.000409138
0.00502155
0.000863384
0.00143696
0.000819668
0.000398868
0.000542392
5.98306e-05
0.000160496
-3.62005e-05
-0.000364085
-3.12036e-05
-0.000952554
1.89094e-05
-0.00150041
8.17289e-05
-0.00192831
0.000139197
-0.00218673
0.000182763
-0.0022885
0.000202116
-0.00232162
0.000188764
-0.00231779
0.000163079
-0.00230636
0.000134179
-0.00230308
0.000107953
-0.00231182
8.55998e-05
-0.0023323
6.56936e-05
-0.0023619
4.75129e-05
-0.00239766
3.10693e-05
-0.00243987
1.659e-05
-0.00248826
3.03619e-06
-0.0025422
-8.64842e-06
-0.00260144
-1.83177e-05
-0.00266449
-2.50374e-05
-0.00272755
-2.67323e-05
-0.00278387
-2.02258e-05
-0.00282274
-1.46737e-06
-0.00283252
3.83695e-05
-0.0028007
0.000107711
-0.00270407
0.000214982
-0.00250989
0.000376316
-0.00219081
0.000612324
-0.00173142
0.000922206
-0.00110783
0.00122016
-0.000140625
0.00118259
0.00116045
0.000560675
0.00157305
-0.000607552
-0.00214609
0.000277974
-0.0107871
-0.00572149
-0.00426164
-0.0038487
-0.00377969
-0.00380982
-0.00383724
-0.00381627
-0.00373378
-0.00359491
-0.00341342
-0.00321339
-0.00302741
-0.00286767
-0.00273728
-0.00263348
-0.00255232
-0.00249126
-0.00244854
-0.00242233
-0.00241064
-0.00241251
-0.00242602
-0.00244913
-0.00247888
-0.00251023
-0.00253495
-0.00254078
-0.00250662
-0.00240296
-0.00219188
-0.00181931
-0.00121059
-0.000291893
0.000924816
0.00210386
0.0026608
0.00204925
)
;

boundaryField
{
    floor
    {
        type            calculated;
        value           nonuniform List<scalar> 
29
(
0
0
0
0
0
0
0
0
0
0
0
0
0
0
0
0
0
0
0
0
-3.96576e-06
-1.01068e-05
-1.53065e-05
-1.9957e-05
-1.66172e-06
-2.96626e-06
-8.64931e-06
-9.47911e-06
-8.35472e-06
)
;
    }
    ceiling
    {
        type            calculated;
        value           nonuniform List<scalar> 
43
(
-2.3409e-05
-4.36623e-05
-4.40396e-05
-2.28953e-05
-1.40768e-05
-9.17681e-06
-6.07078e-06
-3.77917e-06
-2.06456e-06
-7.60419e-07
3.27921e-07
1.26976e-06
2.08864e-06
2.78169e-06
3.34294e-06
3.79096e-06
4.15052e-06
4.43338e-06
4.64251e-06
4.78557e-06
4.86647e-06
4.90095e-06
4.89795e-06
4.86167e-06
4.79914e-06
4.71354e-06
4.61051e-06
4.49636e-06
4.36219e-06
4.2095e-06
4.05374e-06
3.89592e-06
3.74579e-06
3.61286e-06
3.50446e-06
3.4551e-06
3.54362e-06
3.73167e-06
3.99624e-06
5.05858e-06
1.02766e-05
7.23099e-06
-5.67815e-05
)
;
    }
    sWall
    {
        type            calculated;
        value           uniform -0.000230198;
    }
    nWall
    {
        type            calculated;
        value           nonuniform List<scalar> 6(-4.85619e-05 -5.8093e-05 -6.25155e-05 -7.48122e-05 -8.21055e-05 -0.000101892);
    }
    sideWalls
    {
        type            empty;
        value           nonuniform 0();
    }
    glass1
    {
        type            calculated;
        value           nonuniform List<scalar> 9(-5.73049e-05 -0.000154418 -0.000236264 -0.000305958 -0.000365134 -0.000415013 -0.000459602 -0.000513547 -0.000573918);
    }
    glass2
    {
        type            calculated;
        value           nonuniform List<scalar> 2(-0.000258135 -0.000285999);
    }
    sun
    {
        type            calculated;
        value           uniform 0;
    }
    heatsource1
    {
        type            calculated;
        value           nonuniform List<scalar> 3(2.04186e-07 2.04129e-07 2.04146e-07);
    }
    heatsource2
    {
        type            calculated;
        value           nonuniform List<scalar> 4(5.11925e-08 5.12761e-08 0 0);
    }
    Table_master
    {
        type            calculated;
        value           nonuniform List<scalar> 9(-1.53136e-07 -1.53228e-07 -1.53261e-07 -1.53282e-07 -1.53298e-07 -1.53308e-07 -1.53313e-07 -1.53308e-07 -1.53278e-07);
    }
    Table_slave
    {
        type            calculated;
        value           nonuniform List<scalar> 9(1.53014e-07 1.53033e-07 1.53012e-07 1.52994e-07 1.52987e-07 1.5299e-07 1.53005e-07 1.53047e-07 1.53128e-07);
    }
    inlet
    {
        type            calculated;
        value           uniform -0.00662887;
    }
    outlet
    {
        type            calculated;
        value           nonuniform List<scalar> 2(-2.43668e-05 0.0111087);
    }
}


// ************************************************************************* //
