// -*- C++ -*-
// File generated by PyFoam - sorry for the ugliness

FoamFile
{
 version 2.0;
 format ascii;
 class volScalarField;
 location "1500";
 object T;
}

dimensions [ 0 0 0 1 0 0 0 ];

internalField nonuniform List<scalar> 459
(
  303.389
  303.126
  303.113
  303.109
  303.106
  303.102
  303.097
  303.091
  303.082
  303.071
  303.058
  303.048
  303.042
  303.04
  303.047
  303.135
  303.115
  303.107
  303.109
  303.113
  303.117
  303.121
  303.125
  303.129
  303.133
  303.137
  303.141
  303.145
  303.148
  303.152
  303.156
  303.16
  303.166
  303.185
  303.568
  303.168
  303.145
  303.148
  303.151
  303.152
  303.15
  303.142
  303.126
  303.101
  303.073
  303.049
  303.034
  303.027
  303.026
  303.023
  303.021
  303.138
  303.099
  303.093
  303.095
  303.1
  303.104
  303.106
  303.108
  303.109
  303.11
  303.112
  303.113
  303.114
  303.116
  303.118
  303.122
  303.128
  303.137
  303.169
  303.755
  303.219
  303.182
  303.193
  303.208
  303.219
  303.224
  303.217
  303.19
  303.146
  303.097
  303.057
  303.031
  303.021
  303.02
  303.022
  303.022
  303.088
  303.081
  303.085
  303.093
  303.103
  303.111
  303.111
  303.111
  303.111
  303.111
  303.111
  303.111
  303.111
  303.112
  303.112
  303.115
  303.119
  303.127
  303.162
  303.943
  303.281
  303.218
  303.237
  303.268
  303.296
  303.315
  303.31
  303.267
  303.196
  303.12
  303.062
  303.027
  303.015
  303.016
  303.022
  303.027
  303.037
  303.049
  303.067
  303.086
  303.104
  303.121
  303.134
  303.145
  303.154
  303.162
  303.169
  303.175
  303.18
  303.183
  303.186
  303.187
  303.164
  303.145
  303.135
  303.161
  304.127
  303.359
  303.258
  303.274
  303.316
  303.365
  303.406
  303.4
  303.336
  303.234
  303.131
  303.058
  303.019
  303.007
  303.013
  303.025
  303.039
  303.054
  303.073
  303.094
  303.117
  303.139
  303.158
  303.174
  303.188
  303.2
  303.209
  303.217
  303.222
  303.224
  303.223
  303.219
  303.212
  303.194
  303.169
  303.149
  303.159
  303.233
  303.279
  303.285
  304.292
  303.459
  303.323
  303.315
  303.355
  303.416
  303.479
  303.457
  303.364
  303.24
  303.124
  303.042
  303.001
  302.995
  303.011
  303.035
  303.059
  303.084
  303.11
  303.136
  303.162
  303.185
  303.204
  303.22
  303.233
  303.243
  303.251
  303.257
  303.26
  303.259
  303.254
  303.246
  303.235
  303.217
  303.192
  303.167
  303.162
  303.193
  303.21
  303.245
  304.441
  303.619
  303.476
  303.44
  303.459
  303.515
  303.542
  303.477
  303.345
  303.196
  303.072
  302.995
  302.969
  302.982
  303.016
  303.058
  303.097
  303.131
  303.163
  303.19
  303.215
  303.236
  303.252
  303.265
  303.276
  303.284
  303.289
  303.292
  303.293
  303.289
  303.281
  303.269
  303.255
  303.237
  303.214
  303.19
  303.177
  303.185
  303.196
  303.225
  304.658
  304.043
  303.879
  303.776
  303.728
  303.71
  303.61
  303.434
  303.235
  303.065
  302.956
  302.915
  302.93
  302.979
  303.043
  303.106
  303.156
  303.196
  303.225
  303.249
  303.268
  303.284
  303.296
  303.306
  303.313
  303.317
  303.32
  303.32
  303.318
  303.313
  303.306
  303.293
  303.279
  303.263
  303.245
  303.228
  303.222
  303.234
  303.254
  303.381
  304.969
  304.681
  304.415
  304.185
  303.997
  303.772
  303.438
  303.119
  302.892
  302.781
  302.768
  302.825
  302.922
  303.022
  303.118
  303.19
  303.233
  303.262
  303.283
  303.3
  303.313
  303.324
  303.332
  303.338
  303.342
  303.343
  303.343
  303.342
  303.34
  303.337
  303.335
  303.335
  303.337
  303.344
  303.358
  303.382
  303.414
  303.447
  303.469
  303.524
  297.025
  299.146
  300.258
  300.716
  301.161
  301.603
  302.013
  302.361
  302.641
  302.867
  303.061
  303.168
  303.234
  303.274
  303.299
  303.317
  303.33
  303.341
  303.349
  303.356
  303.36
  303.363
  303.365
  303.366
  303.367
  303.367
  303.368
  303.369
  303.371
  303.373
  303.377
  303.386
  303.4
  303.419
  303.443
  303.466
  303.485
  303.506
  297.452
  299.332
  300.27
  300.974
  301.575
  302.109
  302.517
  302.802
  303
  303.135
  303.222
  303.275
  303.308
  303.329
  303.344
  303.355
  303.364
  303.37
  303.375
  303.378
  303.38
  303.382
  303.384
  303.385
  303.386
  303.387
  303.388
  303.389
  303.391
  303.393
  303.397
  303.403
  303.412
  303.426
  303.442
  303.46
  303.458
  303.488
  301.291
  299.544
  299.459
  301.228
  302.096
  302.542
  302.794
  302.971
  303.099
  303.188
  303.251
  303.294
  303.323
  303.342
  303.354
  303.363
  303.369
  303.373
  303.377
  303.379
  303.382
  303.384
  303.386
  303.387
  303.389
  303.391
  303.393
  303.394
  303.396
  303.397
  303.399
  303.401
  303.404
  303.407
  303.412
  303.423
  303.432
  303.438
  303.44
  303.479
)
;

boundaryField
{
  floor
  {
    type wallHeatTransfer;
    Tinf uniform 305.2;
    alphaWall uniform 0.24;
    value nonuniform List<scalar> 29
(
  303.269
  303.532
  303.471
  303.436
  303.435
  303.445
  303.458
  303.477
  303.497
  303.517
  303.537
  303.556
  303.574
  303.592
  303.609
  303.625
  303.642
  303.661
  303.675
  303.716
  303.716
  303.62
  303.572
  303.544
  303.269
  303.532
  303.523
  303.341
  303.227
)
;
  }
  ceiling
  {
    type wallHeatTransfer;
    Tinf uniform 303.2;
    alphaWall uniform 0.24;
    value nonuniform List<scalar> 43
(
  301.416
  299.783
  299.7
  301.352
  302.172
  302.59
  302.825
  302.989
  303.108
  303.189
  303.246
  303.284
  303.308
  303.323
  303.332
  303.338
  303.342
  303.345
  303.348
  303.35
  303.351
  303.353
  303.355
  303.357
  303.359
  303.361
  303.364
  303.366
  303.368
  303.371
  303.373
  303.376
  303.38
  303.384
  303.39
  303.4
  303.409
  303.414
  303.415
  303.448
  304.887
  304.622
  297.803
)
;
  }
  sWall
  {
    type wallHeatTransfer;
    Tinf uniform 315.2;
    alphaWall uniform 0.36;
    value uniform 302.62;
  }
  nWall
  {
    type wallHeatTransfer;
    Tinf uniform 307.2;
    alphaWall uniform 0.36;
    value nonuniform List<scalar> 6
(
  304.01
  303.955
  303.874
  304.038
  304.017
  304.076
)
;
  }
  sideWalls
  {
    type empty;
  }
  glass1
  {
    type wallHeatTransfer;
    Tinf uniform 315.2;
    alphaWall uniform 4.3;
    value nonuniform List<scalar> 9
(
  311.496
  310.86
  310.459
  310.152
  309.897
  309.664
  309.483
  309.549
  309.771
)
;
  }
  glass2
  {
    type wallHeatTransfer;
    Tinf uniform 307.2;
    alphaWall uniform 4.3;
    value nonuniform List<scalar> 2
(
  305.738
  305.843
)
;
  }
  sun
  {
    type wallHeatTransfer;
    Tinf uniform 305.2;
    alphaWall uniform 0.24;
    value nonuniform List<scalar> 14
(
  303.583
  303.333
  303.319
  303.308
  303.299
  303.289
  303.28
  303.27
  303.259
  303.247
  303.237
  303.232
  303.234
  303.245
)
;
  }
  heatsource1
  {
    type fixedGradient;
    gradient uniform 0;
  }
  heatsource2
  {
    type fixedGradient;
    gradient uniform 0;
  }
  Table_master
  {
    type zeroGradient;
  }
  Table_slave
  {
    type zeroGradient;
  }
  inlet
  {
    type fixedValue;
    value uniform 293.15;
  }
  outlet
  {
    type zeroGradient;
  }
} 	// ************************************************************************* //

