/*--------------------------------*- C++ -*----------------------------------*\
  =========                 |
  \\      /  F ield         | OpenFOAM: The Open Source CFD Toolbox
   \\    /   O peration     | Website:  https://openfoam.org
    \\  /    A nd           | Version:  6
     \\/     M anipulation  |
\*---------------------------------------------------------------------------*/
FoamFile
{
    version     2.0;
    format      ascii;
    class       volScalarField;
    location    "1200";
    object      alphat;
}
// * * * * * * * * * * * * * * * * * * * * * * * * * * * * * * * * * * * * * //

dimensions      [1 -1 -1 0 0 0 0];

internalField   nonuniform List<scalar> 
459
(
0.00123566
0.00134835
0.00137397
0.00143956
0.00150035
0.0015577
0.00161468
0.00166916
0.00170752
0.00172248
0.00170702
0.00165619
0.00156762
0.00144384
0.00129832
0.000539533
0.000644466
0.000728413
0.000735511
0.000714727
0.000684602
0.000642615
0.000599782
0.000560805
0.000526285
0.000495795
0.000468776
0.000444769
0.000423301
0.000403592
0.000384663
0.000365167
0.000352934
0.000322969
0.00168175
0.00399223
0.0037797
0.00438486
0.00497775
0.00557242
0.00608958
0.00649174
0.0068656
0.00717684
0.00738284
0.00743957
0.00729389
0.00682001
0.00548834
0.00132202
0.00082068
0.000562777
0.00118643
0.00166395
0.00202601
0.00224051
0.0022524
0.00178013
0.00152939
0.00135172
0.0012162
0.00110916
0.00102246
0.000948925
0.000880349
0.000813739
0.0007545
0.000702326
0.000833427
0.000429141
0.00205249
0.00541461
0.00461005
0.00574492
0.00626623
0.00664513
0.00694102
0.00720118
0.00750337
0.00783139
0.00814677
0.00839069
0.00850981
0.00841598
0.00785094
0.0060257
0.00136131
0.00105919
0.00154437
0.00201498
0.0024721
0.00281259
0.00277974
0.000913671
0.000808161
0.000722455
0.000652883
0.000596017
0.000549117
0.000510156
0.000477825
0.000451559
0.000487812
0.000563331
0.000941898
0.000501059
0.00240859
0.00692671
0.00455015
0.00600044
0.00639555
0.00649051
0.00656896
0.00671526
0.00696813
0.00730935
0.00770252
0.00806393
0.00833584
0.00844227
0.00832518
0.00767757
0.0051528
0.00159343
0.00191156
0.00244222
0.00302487
0.00354537
0.00390578
0.00372231
0.00103415
0.00094624
0.000883613
0.000835969
0.000795236
0.000757116
0.00072037
0.00068157
0.000636339
0.000597121
0.000603651
0.00109341
0.000558044
0.0027716
0.00890024
0.00491829
0.00572057
0.00626562
0.00621065
0.0061554
0.00626419
0.00650105
0.00685001
0.00728495
0.00768298
0.00796189
0.00807014
0.00800915
0.00775124
0.00709605
0.00601391
0.005649
0.00559445
0.00565456
0.00572485
0.00573719
0.00556026
0.00472841
0.00432512
0.00409103
0.00390885
0.00371524
0.00343815
0.00305505
0.0025848
0.0020602
0.00153772
0.00113535
0.00112068
0.000759658
0.000688933
0.000830766
0.000933029
0.00315714
0.0110646
0.00676578
0.00552816
0.00605411
0.00622697
0.00605792
0.00616051
0.00635758
0.00668181
0.00710545
0.00752077
0.00779842
0.00786083
0.00772554
0.00749235
0.00727302
0.00713684
0.00715517
0.00719568
0.00717276
0.00707461
0.00690452
0.00664865
0.00626083
0.00591172
0.00560242
0.00530691
0.0050083
0.00468947
0.00428588
0.0037785
0.0031662
0.00248607
0.00187513
0.00138197
0.00105651
0.00090063
0.00128029
0.000975847
0.00351882
0.012624
0.00969833
0.00701802
0.00655454
0.00659332
0.00642921
0.00633674
0.00643269
0.00674199
0.00718929
0.00762586
0.00789071
0.00789502
0.00767945
0.00742398
0.00736581
0.00757865
0.00784299
0.00793508
0.00782059
0.00755573
0.00719188
0.00676657
0.00631869
0.00591071
0.0055464
0.00521366
0.00490922
0.00463816
0.00439954
0.00407373
0.00360518
0.0030252
0.00245838
0.00193446
0.00156191
0.00145224
0.00148508
0.00111827
0.00359479
0.0114399
0.00993208
0.00880621
0.00811748
0.00735365
0.00671233
0.00644406
0.00656781
0.0069861
0.00752678
0.00798608
0.00818662
0.00806941
0.00774456
0.00749649
0.00760012
0.00795153
0.008105
0.00794685
0.00756373
0.00704404
0.00646647
0.00590588
0.00541973
0.0050251
0.0047034
0.00443904
0.00423001
0.00408246
0.00400465
0.00397098
0.00374559
0.00337945
0.00305085
0.00288573
0.00301341
0.00348294
0.00425499
0.0017346
0.00350465
0.00418888
0.00473575
0.00491066
0.00492879
0.00504614
0.00538105
0.00596477
0.00674585
0.00757087
0.00824515
0.00859909
0.00852262
0.008093
0.00763089
0.00754974
0.00763164
0.00763609
0.00740043
0.00692574
0.00630287
0.00563498
0.00501827
0.00451271
0.00412741
0.0038361
0.00360679
0.0034181
0.00325669
0.00311171
0.00297342
0.00284111
0.00273503
0.00265629
0.00262595
0.00263511
0.00261403
0.00250106
0.00233221
0.00162227
0.0021659
0.00383467
0.00528813
0.00650194
0.00748746
0.00837238
0.00906264
0.00941008
0.0093641
0.00894352
0.00821609
0.00740039
0.00690495
0.00672655
0.00652717
0.00615697
0.00562444
0.0050099
0.00439638
0.00386073
0.0034475
0.00315012
0.00294022
0.00278968
0.00267945
0.0025989
0.00254253
0.00250799
0.00249825
0.00251502
0.00254276
0.00257765
0.00261044
0.00261197
0.00253579
0.00236812
0.00212491
0.00133185
0.00251787
0.00536156
0.00732496
0.00824073
0.00885456
0.00927665
0.00924046
0.00865805
0.00776775
0.00681426
0.00601633
0.0054408
0.00505481
0.00470633
0.0042871
0.00381801
0.00335842
0.00296323
0.00266084
0.00244818
0.0023016
0.00220274
0.00214432
0.0021182
0.00211829
0.00214059
0.00218145
0.0022359
0.00231076
0.0024025
0.00250802
0.00261964
0.0027193
0.00278565
0.00276353
0.00278029
0.00274996
0.00135439
0.00215033
0.00226505
0.00234956
0.00241688
0.00218673
0.00200734
0.00192203
0.00183566
0.00171032
0.00155575
0.00137948
0.00120474
0.00105041
0.000928386
0.000840334
0.00077832
0.000733778
0.000701849
0.000680606
0.000669183
0.000666525
0.0006713
0.000682351
0.000699107
0.00072039
0.000745907
0.000775788
0.000810389
0.000850405
0.000897126
0.000949724
0.00100843
0.00107397
0.00114699
0.00122727
0.00132391
0.00135437
0.00131975
0.00123629
0.00114735
)
;

boundaryField
{
    floor
    {
        type            compressible::alphatWallFunction;
        Prt             0.85;
        value           nonuniform List<scalar> 
29
(
0.000183655
7.52668e-05
9.10042e-05
0.000103367
0.000104404
0.000101364
9.6938e-05
9.07295e-05
8.43443e-05
7.84853e-05
7.3254e-05
6.85977e-05
6.44415e-05
6.0723e-05
5.73763e-05
5.42845e-05
5.12968e-05
4.81997e-05
4.62457e-05
4.14211e-05
4.14205e-05
5.82893e-05
6.94048e-05
7.80695e-05
0.000183653
7.52659e-05
7.87827e-05
0.000150604
0.00022351
)
;
    }
    ceiling
    {
        type            compressible::alphatWallFunction;
        Prt             0.85;
        value           nonuniform List<scalar> 
43
(
0.000296519
0.000311302
0.000322144
0.000330866
0.000301386
0.000278161
0.00026704
0.000255722
0.000239184
0.000218598
0.000194837
0.00017094
0.000149503
0.000132295
0.000119712
0.000110757
0.000104273
9.95955e-05
9.64694e-05
9.47837e-05
9.43911e-05
9.50969e-05
9.67277e-05
9.91942e-05
0.000102317
0.000106046
0.000110393
0.000115402
0.000121163
0.000127848
0.000135326
0.000143616
0.000152803
0.000162965
0.00017405
0.000187287
0.000191436
0.000186721
0.000175293
0.000163019
0.00046714
0.000550369
0.000343485
)
;
    }
    sWall
    {
        type            compressible::alphatWallFunction;
        Prt             0.85;
        value           uniform 0.000295299;
    }
    nWall
    {
        type            compressible::alphatWallFunction;
        Prt             0.85;
        value           nonuniform List<scalar> 6(0.000132633 0.00013869 0.000158634 0.00018804 0.000191106 0.000162692);
    }
    sideWalls
    {
        type            empty;
    }
    glass1
    {
        type            compressible::alphatWallFunction;
        Prt             0.85;
        value           nonuniform List<scalar> 9(0.000170768 0.000230159 0.000278316 0.000323776 0.000369451 0.000417325 0.000461728 0.000471127 0.000460355);
    }
    glass2
    {
        type            compressible::alphatWallFunction;
        Prt             0.85;
        value           nonuniform List<scalar> 2(0.00024064 0.000225851);
    }
    sun
    {
        type            compressible::alphatWallFunction;
        Prt             0.85;
        value           nonuniform List<scalar> 
14
(
0.000175086
0.000190481
0.000193964
0.000202847
0.00021104
0.000218734
0.000226348
0.000233601
0.000238692
0.000240673
0.000238624
0.000231875
0.00022006
0.000203421
)
;
    }
    heatsource1
    {
        type            compressible::alphatWallFunction;
        Prt             0.85;
        value           nonuniform List<scalar> 3(9.76895e-05 0.000118331 0.000132949);
    }
    heatsource2
    {
        type            compressible::alphatWallFunction;
        Prt             0.85;
        value           nonuniform List<scalar> 4(0.000187019 0.000116877 0.000116875 0.000192367);
    }
    Table_master
    {
        type            compressible::alphatWallFunction;
        Prt             0.85;
        value           nonuniform List<scalar> 9(0.000130194 0.000115068 0.000102608 9.23618e-05 8.3888e-05 7.68242e-05 7.08988e-05 6.59386e-05 6.18775e-05);
    }
    Table_slave
    {
        type            compressible::alphatWallFunction;
        Prt             0.85;
        value           nonuniform List<scalar> 9(0.00014722 0.000134823 0.00012591 0.000119079 0.000113202 0.00010767 0.000102305 9.66045e-05 8.99085e-05);
    }
    inlet
    {
        type            fixedValue;
        value           uniform 1.94e-05;
    }
    outlet
    {
        type            zeroGradient;
    }
}


// ************************************************************************* //
