// -*- C++ -*-
// File generated by PyFoam - sorry for the ugliness

FoamFile
{
 version 2.0;
 format ascii;
 class volScalarField;
 location "1200";
 object T;
}

dimensions [ 0 0 0 1 0 0 0 ];

internalField nonuniform List<scalar> 459
(
  303.395
  303.132
  303.119
  303.115
  303.112
  303.108
  303.103
  303.097
  303.088
  303.077
  303.064
  303.054
  303.048
  303.046
  303.053
  303.142
  303.122
  303.114
  303.116
  303.12
  303.124
  303.128
  303.132
  303.136
  303.14
  303.144
  303.148
  303.152
  303.156
  303.16
  303.164
  303.168
  303.174
  303.194
  303.574
  303.174
  303.151
  303.154
  303.157
  303.158
  303.155
  303.148
  303.131
  303.106
  303.079
  303.055
  303.039
  303.032
  303.032
  303.029
  303.027
  303.145
  303.106
  303.1
  303.102
  303.106
  303.111
  303.113
  303.115
  303.116
  303.118
  303.119
  303.12
  303.121
  303.123
  303.126
  303.13
  303.136
  303.145
  303.177
  303.76
  303.225
  303.188
  303.199
  303.214
  303.225
  303.229
  303.222
  303.195
  303.151
  303.102
  303.062
  303.037
  303.027
  303.026
  303.028
  303.028
  303.094
  303.088
  303.091
  303.099
  303.109
  303.117
  303.117
  303.117
  303.118
  303.118
  303.118
  303.118
  303.119
  303.119
  303.12
  303.123
  303.127
  303.135
  303.17
  303.949
  303.287
  303.224
  303.244
  303.274
  303.302
  303.321
  303.315
  303.273
  303.202
  303.125
  303.067
  303.032
  303.02
  303.022
  303.028
  303.033
  303.043
  303.055
  303.073
  303.092
  303.111
  303.127
  303.141
  303.151
  303.16
  303.169
  303.176
  303.182
  303.186
  303.19
  303.193
  303.194
  303.172
  303.152
  303.143
  303.169
  304.132
  303.365
  303.264
  303.28
  303.322
  303.371
  303.412
  303.406
  303.341
  303.239
  303.136
  303.064
  303.024
  303.012
  303.018
  303.031
  303.044
  303.06
  303.079
  303.101
  303.124
  303.145
  303.165
  303.181
  303.195
  303.206
  303.216
  303.223
  303.228
  303.23
  303.229
  303.226
  303.219
  303.201
  303.177
  303.156
  303.167
  303.24
  303.287
  303.293
  304.298
  303.465
  303.329
  303.321
  303.361
  303.423
  303.485
  303.462
  303.369
  303.245
  303.129
  303.047
  303.006
  303
  303.016
  303.04
  303.065
  303.09
  303.116
  303.143
  303.168
  303.191
  303.211
  303.226
  303.239
  303.25
  303.258
  303.264
  303.267
  303.266
  303.261
  303.253
  303.241
  303.224
  303.199
  303.174
  303.17
  303.2
  303.218
  303.253
  304.446
  303.626
  303.482
  303.447
  303.465
  303.521
  303.548
  303.482
  303.35
  303.201
  303.077
  303
  302.974
  302.987
  303.022
  303.063
  303.102
  303.137
  303.169
  303.197
  303.221
  303.242
  303.259
  303.272
  303.282
  303.29
  303.296
  303.299
  303.299
  303.296
  303.288
  303.276
  303.262
  303.244
  303.221
  303.197
  303.185
  303.193
  303.203
  303.233
  304.664
  304.049
  303.885
  303.783
  303.734
  303.715
  303.615
  303.439
  303.239
  303.069
  302.96
  302.919
  302.935
  302.984
  303.049
  303.112
  303.162
  303.202
  303.232
  303.255
  303.275
  303.29
  303.303
  303.312
  303.319
  303.324
  303.326
  303.327
  303.325
  303.32
  303.312
  303.3
  303.286
  303.27
  303.252
  303.235
  303.229
  303.242
  303.261
  303.388
  304.974
  304.686
  304.421
  304.19
  304.002
  303.776
  303.442
  303.122
  302.896
  302.784
  302.772
  302.83
  302.927
  303.027
  303.124
  303.197
  303.24
  303.268
  303.289
  303.306
  303.32
  303.331
  303.339
  303.345
  303.348
  303.35
  303.35
  303.349
  303.347
  303.344
  303.342
  303.342
  303.344
  303.351
  303.365
  303.389
  303.421
  303.454
  303.476
  303.531
  297.022
  299.141
  300.253
  300.714
  301.161
  301.605
  302.016
  302.365
  302.646
  302.873
  303.067
  303.174
  303.24
  303.28
  303.305
  303.323
  303.337
  303.348
  303.356
  303.362
  303.367
  303.37
  303.372
  303.373
  303.374
  303.374
  303.375
  303.376
  303.378
  303.38
  303.385
  303.393
  303.407
  303.426
  303.45
  303.473
  303.492
  303.513
  297.458
  299.331
  300.272
  300.977
  301.579
  302.114
  302.522
  302.807
  303.006
  303.141
  303.228
  303.281
  303.314
  303.336
  303.351
  303.362
  303.371
  303.377
  303.382
  303.385
  303.387
  303.389
  303.391
  303.392
  303.393
  303.394
  303.395
  303.397
  303.398
  303.4
  303.404
  303.41
  303.419
  303.433
  303.449
  303.467
  303.466
  303.495
  299.534
  299.464
  299.459
  301.242
  302.106
  302.549
  302.799
  302.977
  303.105
  303.194
  303.257
  303.301
  303.329
  303.348
  303.361
  303.369
  303.375
  303.38
  303.383
  303.386
  303.388
  303.391
  303.392
  303.394
  303.396
  303.398
  303.399
  303.401
  303.403
  303.404
  303.406
  303.408
  303.411
  303.414
  303.42
  303.43
  303.439
  303.445
  303.447
  303.486
)
;

boundaryField
{
  floor
  {
    type wallHeatTransfer;
    Tinf uniform 305.2;
    alphaWall uniform 0.24;
    value nonuniform List<scalar> 29
(
  303.274
  303.537
  303.476
  303.441
  303.441
  303.451
  303.464
  303.482
  303.503
  303.523
  303.542
  303.561
  303.58
  303.597
  303.614
  303.631
  303.648
  303.666
  303.681
  303.722
  303.722
  303.627
  303.579
  303.551
  303.274
  303.537
  303.529
  303.347
  303.232
)
;
  }
  ceiling
  {
    type wallHeatTransfer;
    Tinf uniform 303.2;
    alphaWall uniform 0.24;
    value nonuniform List<scalar> 43
(
  299.788
  299.712
  299.701
  301.365
  302.181
  302.597
  302.83
  302.994
  303.113
  303.195
  303.252
  303.29
  303.314
  303.329
  303.338
  303.344
  303.348
  303.351
  303.353
  303.355
  303.357
  303.359
  303.361
  303.363
  303.365
  303.367
  303.37
  303.372
  303.374
  303.377
  303.379
  303.382
  303.386
  303.39
  303.396
  303.406
  303.415
  303.42
  303.421
  303.454
  304.892
  304.627
  297.808
)
;
  }
  sWall
  {
    type wallHeatTransfer;
    Tinf uniform 315.2;
    alphaWall uniform 0.36;
    value uniform 301.114;
  }
  nWall
  {
    type wallHeatTransfer;
    Tinf uniform 307.2;
    alphaWall uniform 0.36;
    value nonuniform List<scalar> 6
(
  304.017
  303.962
  303.881
  304.044
  304.023
  304.082
)
;
  }
  sideWalls
  {
    type empty;
  }
  glass1
  {
    type wallHeatTransfer;
    Tinf uniform 315.2;
    alphaWall uniform 4.3;
    value nonuniform List<scalar> 9
(
  311.498
  310.863
  310.462
  310.155
  309.9
  309.667
  309.486
  309.552
  309.774
)
;
  }
  glass2
  {
    type wallHeatTransfer;
    Tinf uniform 307.2;
    alphaWall uniform 4.3;
    value nonuniform List<scalar> 2
(
  305.742
  305.846
)
;
  }
  sun
  {
    type wallHeatTransfer;
    Tinf uniform 305.2;
    alphaWall uniform 0.24;
    value nonuniform List<scalar> 14
(
  303.588
  303.339
  303.324
  303.314
  303.304
  303.295
  303.285
  303.275
  303.264
  303.252
  303.242
  303.237
  303.239
  303.251
)
;
  }
  heatsource1
  {
    type fixedGradient;
    gradient uniform 0;
  }
  heatsource2
  {
    type fixedGradient;
    gradient uniform 0;
  }
  Table_master
  {
    type zeroGradient;
  }
  Table_slave
  {
    type zeroGradient;
  }
  inlet
  {
    type fixedValue;
    value uniform 293.15;
  }
  outlet
  {
    type zeroGradient;
  }
} 	// ************************************************************************* //

