/*--------------------------------*- C++ -*----------------------------------*\
  =========                 |
  \\      /  F ield         | OpenFOAM: The Open Source CFD Toolbox
   \\    /   O peration     | Website:  https://openfoam.org
    \\  /    A nd           | Version:  6
     \\/     M anipulation  |
\*---------------------------------------------------------------------------*/
FoamFile
{
    version     2.0;
    format      ascii;
    class       surfaceScalarField;
    location    "1400";
    object      phi;
}
// * * * * * * * * * * * * * * * * * * * * * * * * * * * * * * * * * * * * * //

dimensions      [1 0 -1 0 0 0 0];

internalField   nonuniform List<scalar> 
852
(
-0.00295869
0.003016
-0.00399956
0.00104087
-0.00479987
0.000800309
-0.00542287
0.000622995
-0.00583505
0.000412185
-0.00600834
0.000173284
-0.00591458
-9.3758e-05
-0.00553197
-0.000382611
-0.0048767
-0.000655271
-0.00401414
-0.000862557
-0.00304451
-0.000969626
-0.00207969
-0.000964822
-0.00122211
-0.000857585
-0.000534388
-0.000687719
-0.000532726
-0.00077896
0.000781927
-0.000525419
-0.00025354
6.92074e-05
-0.000594627
0.000572396
-0.000503189
0.000923032
-0.000350636
0.00115254
-0.000229506
0.00128072
-0.000128182
0.00134269
-6.19665e-05
0.00137699
-3.43007e-05
0.00139824
-2.12569e-05
0.00141043
-1.2184e-05
0.00141505
-4.61751e-06
0.00141083
4.21671e-06
0.00139018
2.06523e-05
0.00133189
5.82905e-05
0.00120059
0.0001313
0.000983784
0.000216802
0.000716526
0.000267258
0.000720492
-0.00211952
0.00528994
-0.00314006
0.00206141
-0.00396892
0.00162917
-0.00458813
0.0012422
-0.00499877
0.000822821
-0.00518166
0.000356174
-0.00510539
-0.000170021
-0.00475244
-0.000735567
-0.00415152
-0.00125618
-0.00337862
-0.00163546
-0.0025321
-0.00181615
-0.00170666
-0.00179026
-0.000982887
-0.00158136
-0.000434356
-0.00123625
-0.000165086
-0.000801996
0.000120936
-0.000286073
0.000120885
0.000249329
0.000541248
0.000654987
-0.000659199
0.000924059
-0.000863698
0.00114996
-0.000729086
0.0013302
-0.000530885
0.00144718
-0.000346483
0.00146821
-0.000149215
0.00147332
-6.70683e-05
0.00147949
-4.04701e-05
0.00148465
-2.64184e-05
0.00148804
-1.55765e-05
0.00148985
-6.42789e-06
0.0014895
4.57023e-06
0.0014837
2.64479e-05
0.0014449
9.70912e-05
0.00127837
0.000297829
0.000988762
0.000506412
0.000625144
0.000630876
0.00135575
-0.0014896
0.00701582
-0.00237233
0.00294414
-0.00311283
0.00236967
-0.00364843
0.00177781
-0.00401317
0.00118756
-0.00418271
0.000525715
-0.00410282
-0.000249912
-0.00374806
-0.00109033
-0.00317292
-0.00183132
-0.00247108
-0.0023373
-0.0017377
-0.00254954
-0.00104524
-0.00248272
-0.000445642
-0.00218096
2.68771e-05
-0.00170877
0.000337765
-0.00111288
0.000476573
-0.000424881
0.000597458
0.00149321
-0.000942485
0.00171335
-0.000879341
0.00167244
-0.000822785
0.00166208
-0.000718728
0.00168765
-0.000556454
0.00173159
-0.000390424
0.00158253
0.00151562
0.0014753
0.00144903
0.00143361
0.00142734
0.00143206
0.00145866
0.00155591
0.00128584
0.00056789
0.000954785
0.000837471
0.000536716
0.00104894
0.00190778
-0.00104297
0.00836475
-0.00174477
0.00364594
-0.00224265
0.00286755
-0.00260155
0.0021367
-0.00285287
0.00143888
-0.00295961
0.000632464
-0.00282515
-0.000384372
-0.00243346
-0.00148203
-0.00188611
-0.00237867
-0.00128552
-0.00293788
-0.00070733
-0.00312773
-0.000190946
-0.0029991
0.000247898
-0.0026198
0.000610166
-0.00207104
0.000932894
-0.00143561
0.00129733
-0.000789317
0.00214685
-0.00025206
0.00250065
-0.000345445
0.00215125
-0.000593088
0.00201546
-0.000743545
0.00188567
-0.000693
0.00176906
-0.000602121
0.00169452
-0.000481912
0.00163353
-0.000329429
0.00177572
-0.000142349
0.00186245
-8.68836e-05
0.00193181
-6.95109e-05
0.001986
-5.43373e-05
0.0020111
-2.52565e-05
0.00198549
2.54516e-05
0.00188361
0.000101727
0.00167187
0.000211588
0.00129511
0.000376613
0.00113612
0.000726874
0.000825805
0.00114779
0.000361336
0.00151341
0.00228908
-0.000728659
0.00945856
-0.00126183
0.00417912
-0.00138421
0.00298993
-0.00147771
0.0022302
-0.00153986
0.00150103
-0.0015003
0.000592912
-0.00122525
-0.000659429
-0.00078407
-0.0019232
-0.000308262
-0.00285447
0.000123365
-0.00336951
0.000476604
-0.00348097
0.000746857
-0.00326935
0.000956167
-0.00282911
0.00113414
-0.00224901
0.00131493
-0.0016164
0.00154648
-0.00102086
0.00187242
-0.000578002
0.00197831
-0.000451331
0.00189614
-0.000510921
0.00171959
-0.000566995
0.00156025
-0.000533653
0.00142348
-0.000465352
0.00132292
-0.000381354
0.00127468
-0.000281186
0.00131695
-0.000184623
0.00137062
-0.000140555
0.00142865
-0.000127541
0.00148787
-0.000113558
0.00153791
-7.52957e-05
0.00155854
4.82868e-06
0.00152814
0.000132118
0.00143449
0.000305244
0.00127826
0.000532842
0.00113279
0.000872342
0.000969491
0.00131109
0.000617104
0.0018658
0.000521388
0.0023848
-0.000985157
0.00150634
-0.00144982
0.000464461
-0.00140146
-0.000630812
0.0105044
-0.000996728
0.00454503
-0.000602916
0.00259611
-0.000309781
0.00193706
-9.53683e-05
0.00128662
0.000229321
0.000268222
0.000710585
-0.00114069
0.00114837
-0.00236099
0.00146076
-0.00316687
0.001634
-0.00354275
0.00169399
-0.00354096
0.00167292
-0.00324828
0.00160361
-0.00275981
0.00152371
-0.00216911
0.00146649
-0.00155918
0.00145694
-0.00101131
0.0014881
-0.000609166
0.00145627
-0.000419499
0.00133133
-0.000385986
0.0011524
-0.000388058
0.000987735
-0.000368994
0.000856232
-0.00033385
0.000766222
-0.000291343
0.000728678
-0.000243642
0.000747445
-0.00020339
0.000797366
-0.000190476
0.000864117
-0.000194293
0.000941843
-0.000191283
0.00102459
-0.000158041
0.00110104
-7.16269e-05
0.00115275
8.04142e-05
0.00117382
0.00028417
0.00117303
0.000533633
0.00119481
0.000850558
0.00128558
0.00122033
0.00146179
0.00168959
0.00190192
0.00194466
0.0021627
0.00124556
0.00177273
0.000854437
0.000429376
-0.000716462
0.0116805
-0.0006021
0.00443067
0.00047373
0.00152028
0.00115169
0.0012591
0.001727
0.00071131
0.00237273
-0.000377507
0.00292585
-0.00169382
0.00323078
-0.00266592
0.00328159
-0.00321768
0.00312416
-0.00338532
0.00282275
-0.00323954
0.00244148
-0.00286702
0.00203547
-0.0023538
0.00165309
-0.00178673
0.00132709
-0.00123317
0.0010776
-0.000761819
0.000901395
-0.000432966
0.000751297
-0.0002694
0.000591819
-0.000226508
0.000430757
-0.000226996
0.000291417
-0.000229653
0.000185343
-0.000227775
0.000117257
-0.000223257
9.18322e-05
-0.000218217
0.000107706
-0.000219264
0.000151191
-0.000233961
0.000211549
-0.00025465
0.000286739
-0.000266473
0.000380603
-0.000251905
0.000498076
-0.0001891
0.000627931
-4.94407e-05
0.000758436
0.000153665
0.000898887
0.000393182
0.00108725
0.000662193
0.00137014
0.000937435
0.00181341
0.00124632
0.00248299
0.00127508
0.00302718
0.00070137
0.00304557
0.000836047
0.00353747
0.00260283
0.00959118
0.0032808
0.0037527
0.00344571
0.00135537
0.00389871
0.000806102
0.00459013
1.98968e-05
0.00528193
-0.00106931
0.00556329
-0.00197518
0.0054375
-0.00254012
0.00499256
-0.00277274
0.0043334
-0.00272616
0.00356252
-0.00246866
0.00276632
-0.00207082
0.00200559
-0.00159307
0.00133527
-0.00111641
0.000782236
-0.000680139
0.000369113
-0.000348695
9.42702e-05
-0.000158123
-8.86811e-05
-8.6449e-05
-0.000229376
-8.58132e-05
-0.000348588
-0.000107784
-0.000447212
-0.000131029
-0.000522739
-0.000152248
-0.000573968
-0.000172028
-0.000600284
-0.000191901
-0.000604621
-0.000214928
-0.000595784
-0.000242797
-0.00057994
-0.000270494
-0.000556753
-0.00028966
-0.000518239
-0.000290419
-0.00044589
-0.000261449
-0.000309476
-0.000185855
-0.000122203
-3.36078e-05
9.80857e-05
0.000172893
0.0003711
0.000389179
0.000707308
0.000601226
0.00114717
0.000806458
0.0016225
0.000799758
0.00181521
0.000508662
0.00106871
0.00158254
0.00486433
0.0101548
0.0139003
0.0122285
0.00302718
0.0113295
0.00170507
0.0105947
0.000754761
0.00970198
-0.00017662
0.00855265
-0.000825852
0.00725372
-0.0012412
0.0058995
-0.00141851
0.00455922
-0.00138589
0.00329613
-0.00120556
0.00215999
-0.000934676
0.00116271
-0.000595797
0.00034598
-0.000299679
-0.000255123
-7.9037e-05
-0.000628503
2.46847e-05
-0.000830742
4.41162e-05
-0.000946331
2.91402e-05
-0.0010325
3.58065e-07
-0.00110971
-3.05802e-05
-0.00118045
-6.02881e-05
-0.00124423
-8.84673e-05
-0.00130136
-0.000114898
-0.00135331
-0.000139947
-0.00140403
-0.000164207
-0.00146078
-0.000186053
-0.00153108
-0.000200191
-0.00162245
-0.000198292
-0.00174396
-0.000168907
-0.00190718
-9.82347e-05
-0.00211947
2.64425e-05
-0.00236778
0.000214702
-0.00267652
0.000481631
-0.0031312
0.000843855
-0.00382767
0.0012977
-0.00483086
0.00180964
-0.00625501
0.00222391
-0.00797039
0.00222405
-0.00746439
0.00107654
-0.00231403
0.00509937
0.00455656
0.00409304
0.0027114
0.00449055
0.000357254
0.0045298
-0.000215877
0.00412113
-0.000417184
0.00343557
-0.000555627
0.00258698
-0.000569921
0.00166789
-0.000466806
0.000751949
-0.000289619
-0.000106077
-7.66503e-05
-0.000801682
9.98073e-05
-0.0012567
0.000155343
-0.00150246
0.000166718
-0.00162333
0.000145557
-0.00169053
0.000111313
-0.00173839
7.7004e-05
-0.00178331
4.52745e-05
-0.00183171
1.78246e-05
-0.00188709
-4.91189e-06
-0.00194965
-2.59016e-05
-0.00201894
-4.56171e-05
-0.00209603
-6.28515e-05
-0.00218241
-7.78269e-05
-0.00228011
-8.83587e-05
-0.00239023
-9.00645e-05
-0.00251171
-7.68139e-05
-0.00264002
-4.05966e-05
-0.00276659
2.83324e-05
-0.00287937
0.000139229
-0.00297597
0.0003113
-0.00306464
0.000570299
-0.00315216
0.000931374
-0.00323617
0.00138171
-0.00327038
0.00184386
-0.00319627
0.00214979
-0.00283397
0.00186175
-0.00156249
-0.000194947
-0.00380168
-0.000409363
0.0050227
0.000863831
0.0014382
0.000821268
0.000399817
0.000544981
6.04108e-05
0.000164027
-3.62299e-05
-0.000360004
-3.15959e-05
-0.000948489
1.8564e-05
-0.00149675
8.14561e-05
-0.0019253
0.000138934
-0.00218449
0.000182534
-0.00228671
0.000202025
-0.0023201
0.000188736
-0.00231642
0.000163043
-0.00230498
0.000134111
-0.00230157
0.000107908
-0.00231021
8.56373e-05
-0.00233071
6.57785e-05
-0.00236048
4.75974e-05
-0.00239653
3.11331e-05
-0.00243901
1.65834e-05
-0.00248756
2.92873e-06
-0.00254158
-8.83345e-06
-0.00260086
-1.85405e-05
-0.00266392
-2.52992e-05
-0.00272696
-2.70241e-05
-0.00278327
-2.05097e-05
-0.0028222
-1.65938e-06
-0.00283207
3.81954e-05
-0.00280035
0.000107515
-0.00270386
0.000214803
-0.00250972
0.000376168
-0.00219061
0.000612257
-0.00173121
0.000922313
-0.00110768
0.00122033
-0.000140593
0.0011827
0.00116032
0.000560834
0.00157277
-0.00060739
-0.00214678
0.000276637
-0.0107876
-0.00572085
-0.00425975
-0.00384585
-0.00377626
-0.00380641
-0.00383423
-0.00381359
-0.00373137
-0.00359276
-0.00341148
-0.00321153
-0.00302557
-0.00286586
-0.00273553
-0.00263177
-0.00255055
-0.00248941
-0.00244659
-0.00242032
-0.00240864
-0.0024106
-0.00242428
-0.0024476
-0.00247759
-0.00250921
-0.0025342
-0.0025402
-0.0025062
-0.00240272
-0.0021918
-0.00181937
-0.00121071
-0.000291883
0.000925004
0.00210417
0.00266128
0.0020499
)
;

boundaryField
{
    floor
    {
        type            calculated;
        value           nonuniform List<scalar> 
29
(
0
0
0
0
0
0
0
0
0
0
0
0
0
0
0
0
0
0
0
0
-3.96572e-06
-1.01098e-05
-1.53134e-05
-1.99689e-05
-1.66176e-06
-2.96742e-06
-8.65018e-06
-9.47856e-06
-8.35756e-06
)
;
    }
    ceiling
    {
        type            calculated;
        value           nonuniform List<scalar> 
43
(
-2.34076e-05
-4.36589e-05
-4.40356e-05
-2.28962e-05
-1.40806e-05
-9.18112e-06
-6.07502e-06
-3.78475e-06
-2.07034e-06
-7.66087e-07
3.21374e-07
1.25973e-06
2.07626e-06
2.77083e-06
3.33528e-06
3.78386e-06
4.14111e-06
4.42398e-06
4.6363e-06
4.77935e-06
4.86218e-06
4.89562e-06
4.8883e-06
4.84661e-06
4.78184e-06
4.69771e-06
4.59429e-06
4.47531e-06
4.34231e-06
4.19322e-06
4.0386e-06
3.88315e-06
3.73295e-06
3.59659e-06
3.49034e-06
3.44367e-06
3.53551e-06
3.72509e-06
3.98839e-06
5.04598e-06
1.02754e-05
7.22966e-06
-5.67711e-05
)
;
    }
    sWall
    {
        type            calculated;
        value           uniform -0.000230193;
    }
    nWall
    {
        type            calculated;
        value           nonuniform List<scalar> 6(-4.85666e-05 -5.81093e-05 -6.2523e-05 -7.48361e-05 -8.21293e-05 -0.000101928);
    }
    sideWalls
    {
        type            empty;
        value           nonuniform 0();
    }
    glass1
    {
        type            calculated;
        value           nonuniform List<scalar> 9(-5.73065e-05 -0.000154424 -0.000236273 -0.000305967 -0.000365143 -0.000415021 -0.00045961 -0.000513555 -0.000573927);
    }
    glass2
    {
        type            calculated;
        value           nonuniform List<scalar> 2(-0.000258148 -0.000286031);
    }
    sun
    {
        type            calculated;
        value           uniform 0;
    }
    heatsource1
    {
        type            calculated;
        value           nonuniform List<scalar> 3(2.04187e-07 2.04129e-07 2.04147e-07);
    }
    heatsource2
    {
        type            calculated;
        value           nonuniform List<scalar> 4(5.11925e-08 5.12764e-08 0 0);
    }
    Table_master
    {
        type            calculated;
        value           nonuniform List<scalar> 9(-1.53137e-07 -1.53228e-07 -1.53261e-07 -1.53282e-07 -1.53298e-07 -1.53309e-07 -1.53314e-07 -1.53309e-07 -1.53279e-07);
    }
    Table_slave
    {
        type            calculated;
        value           nonuniform List<scalar> 9(1.53015e-07 1.53034e-07 1.53013e-07 1.52995e-07 1.52988e-07 1.52991e-07 1.53005e-07 1.53047e-07 1.53128e-07);
    }
    inlet
    {
        type            calculated;
        value           uniform -0.00662875;
    }
    outlet
    {
        type            calculated;
        value           nonuniform List<scalar> 2(-2.3036e-05 0.0111079);
    }
}


// ************************************************************************* //
