/*--------------------------------*- C++ -*----------------------------------*\
  =========                 |
  \\      /  F ield         | OpenFOAM: The Open Source CFD Toolbox
   \\    /   O peration     | Website:  https://openfoam.org
    \\  /    A nd           | Version:  6
     \\/     M anipulation  |
\*---------------------------------------------------------------------------*/
FoamFile
{
    version     2.0;
    format      ascii;
    class       volVectorField;
    location    "1400";
    object      U;
}
// * * * * * * * * * * * * * * * * * * * * * * * * * * * * * * * * * * * * * //

dimensions      [0 1 -1 0 0 0 0];

internalField   nonuniform List<vector> 
459
(
(0.0341191 0.0859065 0)
(-0.167127 0.0255067 0)
(-0.191918 0.0178464 0)
(-0.222929 0.0121313 0)
(-0.24535 0.00582825 0)
(-0.258081 -0.000877905 0)
(-0.259426 -0.00805548 0)
(-0.248125 -0.0157286 0)
(-0.22478 -0.0231903 0)
(-0.191314 -0.0291047 0)
(-0.151478 -0.0323692 0)
(-0.109691 -0.0324469 0)
(-0.0702085 -0.0294892 0)
(-0.0381916 -0.0246259 0)
(-0.0275406 -0.019702 0)
(-0.00655849 0.00896062 0)
(-0.0293013 -0.0166431 0)
(-0.00768419 -0.0265831 0)
(0.0160705 -0.0206197 0)
(0.0316845 -0.0142149 0)
(0.0445845 -0.00926081 0)
(0.052762 -0.0053934 0)
(0.0570334 -0.00335726 0)
(0.0589616 -0.00254326 0)
(0.059917 -0.00219615 0)
(0.0605156 -0.00197981 0)
(0.0608589 -0.00180275 0)
(0.0608865 -0.00159016 0)
(0.0604112 -0.00117145 0)
(0.0589032 -0.0001803 0)
(0.0552304 0.00188672 0)
(0.0481557 0.0040917 0)
(0.0416486 0.00589669 0)
(-0.0129261 0.0204124 0)
(0.208624 0.176011 0)
(-0.156277 0.0674892 0)
(-0.15479 0.0530636 0)
(-0.18695 0.0412023 0)
(-0.20923 0.0277357 0)
(-0.222272 0.0125439 0)
(-0.224334 -0.0046903 0)
(-0.213999 -0.0233592 0)
(-0.192472 -0.0408425 0)
(-0.162091 -0.0540335 0)
(-0.126737 -0.0608126 0)
(-0.0904942 -0.060561 0)
(-0.0569228 -0.0538839 0)
(-0.0294263 -0.0424103 0)
(-0.0119762 -0.0286741 0)
(0.00187588 -0.010686 0)
(0.00050467 0.0156836 0)
(0.0607199 0.036553 0)
(0.024477 -0.018081 0)
(0.0331897 -0.0314949 0)
(0.0443975 -0.0281629 0)
(0.0534399 -0.0203949 0)
(0.0601453 -0.0128751 0)
(0.0630894 -0.00550535 0)
(0.0636711 -0.00126108 0)
(0.0636246 0.00050309 0)
(0.0637339 0.00127314 0)
(0.0639406 0.00174384 0)
(0.0640913 0.00213329 0)
(0.0641448 0.00260516 0)
(0.064056 0.0034792 0)
(0.0633211 0.00561837 0)
(0.0596294 0.0115469 0)
(0.0502596 0.0165173 0)
(0.045714 0.019885 0)
(-0.0491393 0.0442758 0)
(0.368789 0.263415 0)
(-0.173138 0.107513 0)
(-0.116254 0.0858895 0)
(-0.147631 0.0647331 0)
(-0.167522 0.0425491 0)
(-0.179728 0.017867 0)
(-0.181493 -0.0101587 0)
(-0.170513 -0.0400509 0)
(-0.149266 -0.0671311 0)
(-0.121002 -0.0863488 0)
(-0.0898034 -0.0950245 0)
(-0.0591636 -0.0931028 0)
(-0.0313579 -0.08201 0)
(-0.00844382 -0.0640115 0)
(0.00858645 -0.040482 0)
(0.0197367 -0.0140639 0)
(0.0239137 0.0231886 0)
(0.110184 -0.0264925 0)
(0.0744883 -0.0375796 0)
(0.0690698 -0.0384149 0)
(0.0705985 -0.033125 0)
(0.0719988 -0.0252484 0)
(0.0733924 -0.0183245 0)
(0.0722007 -0.0146251 0)
(0.0674855 -0.0103014 0)
(0.0640417 -0.00793794 0)
(0.0624863 -0.00658541 0)
(0.0618216 -0.00571461 0)
(0.0614799 -0.00510964 0)
(0.0614457 -0.00458122 0)
(0.0621609 -0.00375209 0)
(0.0647422 -0.000673779 0)
(0.0627445 0.0161393 0)
(0.0497444 0.0278455 0)
(0.0519486 0.035799 0)
(-0.081115 0.0690961 0)
(0.513402 0.333733 0)
(-0.2079 0.143005 0)
(-0.0753263 0.113871 0)
(-0.105392 0.0848232 0)
(-0.119866 0.0563789 0)
(-0.128906 0.0239823 0)
(-0.127714 -0.0146946 0)
(-0.113689 -0.056401 0)
(-0.092085 -0.0923167 0)
(-0.0669082 -0.115899 0)
(-0.0416712 -0.12495 0)
(-0.0187201 -0.120791 0)
(0.00172221 -0.105541 0)
(0.0185419 -0.0827449 0)
(0.0328299 -0.055888 0)
(0.048115 -0.0268226 0)
(0.0696846 0.0050707 0)
(0.10045 0.0164088 0)
(0.105557 -0.0226367 0)
(0.0919231 -0.0334504 0)
(0.0829405 -0.0328526 0)
(0.0778257 -0.0288127 0)
(0.0739767 -0.0228 0)
(0.0713626 -0.0151308 0)
(0.0725607 -0.00916103 0)
(0.0775424 -0.00684506 0)
(0.0817791 -0.0055629 0)
(0.084577 -0.0046589 0)
(0.0862872 -0.00365483 0)
(0.0864776 -0.00225205 0)
(0.0840262 -0.000189862 0)
(0.0776707 0.00283914 0)
(0.0648939 0.00736578 0)
(0.0526453 0.0266785 0)
(0.0405459 0.0429916 0)
(0.0560045 0.0559382 0)
(-0.114436 0.0913369 0)
(0.638632 0.388201 0)
(-0.250471 0.171985 0)
(-0.0345702 0.130049 0)
(-0.0611622 0.0963482 0)
(-0.0676238 0.0644331 0)
(-0.0706714 0.0269103 0)
(-0.0606944 -0.0214992 0)
(-0.0414817 -0.0740746 0)
(-0.0209116 -0.115216 0)
(-0.00164831 -0.139362 0)
(0.0145721 -0.145792 0)
(0.0269761 -0.137983 0)
(0.0367036 -0.120091 0)
(0.0445588 -0.095673 0)
(0.0518419 -0.0682422 0)
(0.0605299 -0.0415844 0)
(0.0733576 -0.0219949 0)
(0.0840604 -0.0211622 0)
(0.0851794 -0.0289267 0)
(0.0787948 -0.0297967 0)
(0.0705665 -0.0269407 0)
(0.0637629 -0.0231061 0)
(0.0585975 -0.0185467 0)
(0.0554315 -0.0131597 0)
(0.055164 -0.00734594 0)
(0.0574843 -0.00451629 0)
(0.06019 -0.00349662 0)
(0.0627694 -0.00271724 0)
(0.0651335 -0.00114035 0)
(0.0669412 0.00184196 0)
(0.0669658 0.00634723 0)
(0.0645931 0.0125387 0)
(0.0592186 0.0210529 0)
(0.0523608 0.0362375 0)
(0.0422821 0.0542457 0)
(0.0643834 0.0743625 0)
(-0.0214154 0.103478 0)
(0.0463832 0.0323906 0)
(-0.0619917 -0.0344502 0)
(-0.272438 -0.0571045 0)
(0.729752 0.433614 0)
(-0.292054 0.191492 0)
(-0.00334665 0.12663 0)
(-0.0160027 0.097609 0)
(-0.0119077 0.0668669 0)
(-0.00625061 0.0238542 0)
(0.0224531 -0.0387154 0)
(0.0442674 -0.0944279 0)
(0.0597786 -0.132564 0)
(0.0691574 -0.151875 0)
(0.0730754 -0.154324 0)
(0.0729427 -0.143501 0)
(0.0702659 -0.123443 0)
(0.0665542 -0.0981368 0)
(0.063295 -0.0712464 0)
(0.0618981 -0.046437 0)
(0.0632146 -0.0279821 0)
(0.0640852 -0.0207073 0)
(0.0608286 -0.0203723 0)
(0.0538384 -0.0205098 0)
(0.0459158 -0.0191152 0)
(0.0392618 -0.0168826 0)
(0.0344168 -0.0141671 0)
(0.031679 -0.0110288 0)
(0.0313175 -0.00807934 0)
(0.0329781 -0.00692786 0)
(0.0356014 -0.00678984 0)
(0.0387271 -0.00642521 0)
(0.0421693 -0.00481633 0)
(0.0456639 -0.00107635 0)
(0.048857 0.00514403 0)
(0.0505416 0.0134962 0)
(0.0509748 0.0241327 0)
(0.0515104 0.0385598 0)
(0.0503565 0.0562932 0)
(0.0728399 0.0790398 0)
(0.0525172 0.0969656 0)
(0.0932485 0.0678497 0)
(0.116149 0.0446258 0)
(-0.128961 -0.00703701 0)
(0.781813 0.474891 0)
(-0.312997 0.17695 0)
(0.0235108 0.0771518 0)
(0.0426678 0.073817 0)
(0.0578334 0.0522202 0)
(0.0846026 0.000980527 0)
(0.11869 -0.0631053 0)
(0.137929 -0.111861 0)
(0.144292 -0.141291 0)
(0.140465 -0.152841 0)
(0.129197 -0.149483 0)
(0.11341 -0.134972 0)
(0.0956804 -0.113185 0)
(0.0782494 -0.0880185 0)
(0.0627991 -0.0626754 0)
(0.0505724 -0.0402689 0)
(0.0420063 -0.0239085 0)
(0.0355556 -0.0156994 0)
(0.029044 -0.0134038 0)
(0.021976 -0.0130764 0)
(0.0152797 -0.0125594 0)
(0.00987923 -0.0117366 0)
(0.00609276 -0.010754 0)
(0.00409914 -0.00968182 0)
(0.00398379 -0.00893287 0)
(0.00538653 -0.00913781 0)
(0.00765991 -0.0097982 0)
(0.0105233 -0.0100562 0)
(0.0140072 -0.00902788 0)
(0.0182308 -0.00570315 0)
(0.0241025 0.000954175 0)
(0.0301181 0.0101271 0)
(0.0357763 0.0209106 0)
(0.0429157 0.0337832 0)
(0.0506881 0.0484314 0)
(0.0727578 0.0668271 0)
(0.0860045 0.0745043 0)
(0.118338 0.0519287 0)
(0.158024 0.0439899 0)
(-0.0351497 0.0940121 0)
(0.886501 0.477554 0)
(-0.070562 0.156574 0)
(0.106092 0.00383963 0)
(0.169281 -0.0166378 0)
(0.182348 -0.0355789 0)
(0.21798 -0.0696137 0)
(0.239739 -0.102309 0)
(0.242192 -0.12563 0)
(0.228143 -0.137084 0)
(0.202539 -0.136904 0)
(0.170254 -0.126863 0)
(0.135514 -0.109594 0)
(0.101362 -0.0877903 0)
(0.0702873 -0.0647033 0)
(0.0437438 -0.0427422 0)
(0.023101 -0.0245081 0)
(0.00880477 -0.0125157 0)
(-0.000498728 -0.00720281 0)
(-0.00708298 -0.00630326 0)
(-0.0126122 -0.00684934 0)
(-0.0173545 -0.00746768 0)
(-0.0211341 -0.00797781 0)
(-0.0238674 -0.00843823 0)
(-0.0255025 -0.00894033 0)
(-0.0260822 -0.00968838 0)
(-0.0259085 -0.0108297 0)
(-0.0253637 -0.0120974 0)
(-0.0245825 -0.0130496 0)
(-0.0234219 -0.0131818 0)
(-0.0215029 -0.0119103 0)
(-0.0178713 -0.00847611 0)
(-0.0091722 -0.00213101 0)
(-0.000327132 0.00626279 0)
(0.0103045 0.0146564 0)
(0.0220024 0.0217756 0)
(0.0417628 0.0290901 0)
(0.0603192 0.022106 0)
(0.0797956 -0.00531345 0)
(0.138777 0.0403627 0)
(-0.413705 0.206839 0)
(1.03163 0.429945 0)
(0.496758 0.285066 0)
(0.503029 0.191392 0)
(0.511579 0.119896 0)
(0.48698 0.0683933 0)
(0.4441 0.0149871 0)
(0.394051 -0.0332499 0)
(0.340507 -0.0673489 0)
(0.283174 -0.0848578 0)
(0.224477 -0.0878413 0)
(0.167728 -0.0803455 0)
(0.115689 -0.0663733 0)
(0.0693757 -0.0486805 0)
(0.0306814 -0.0306746 0)
(-0.000837147 -0.0145572 0)
(-0.0215498 -0.00462868 0)
(-0.0326019 -0.000920924 0)
(-0.0387146 -0.000442758 0)
(-0.0427015 -0.00142476 0)
(-0.0461906 -0.00277403 0)
(-0.0493834 -0.00409391 0)
(-0.0522883 -0.00533137 0)
(-0.0548838 -0.00652017 0)
(-0.0571927 -0.00770923 0)
(-0.0593358 -0.00896067 0)
(-0.0615829 -0.010253 0)
(-0.0642678 -0.0113699 0)
(-0.0676965 -0.0119393 0)
(-0.0721996 -0.0114308 0)
(-0.0782396 -0.00914821 0)
(-0.0864178 -0.0042638 0)
(-0.0967952 0.00384397 0)
(-0.107364 0.0146912 0)
(-0.122644 0.0284388 0)
(-0.14673 0.0451294 0)
(-0.182146 0.0635632 0)
(-0.232178 0.0796805 0)
(-0.289138 0.0908683 0)
(-0.357759 0.0971277 0)
(-0.619915 0.0991548 0)
(-0.148044 0.0827353 0)
(0.134659 0.0615592 0)
(0.217884 0.00578257 0)
(0.201358 -0.0289998 0)
(0.185597 -0.0432427 0)
(0.163046 -0.0478077 0)
(0.130532 -0.046088 0)
(0.0919583 -0.039626 0)
(0.0520976 -0.0298389 0)
(0.0141307 -0.0175598 0)
(-0.0230898 -0.00383132 0)
(-0.0467754 0.00379479 0)
(-0.061208 0.00717844 0)
(-0.0682237 0.00757098 0)
(-0.071652 0.00676466 0)
(-0.0739078 0.00575129 0)
(-0.0758495 0.00475392 0)
(-0.077783 0.00382788 0)
(-0.0800134 0.00291284 0)
(-0.0825823 0.00188155 0)
(-0.0854172 0.00078022 0)
(-0.0885464 -0.000327734 0)
(-0.092042 -0.00135778 0)
(-0.0959971 -0.00215022 0)
(-0.100488 -0.0024557 0)
(-0.10552 -0.00196017 0)
(-0.111002 -0.000308222 0)
(-0.116719 0.00285862 0)
(-0.122072 0.00797971 0)
(-0.126269 0.0158041 0)
(-0.129748 0.0274578 0)
(-0.132757 0.0433251 0)
(-0.136104 0.0625078 0)
(-0.140297 0.0813378 0)
(-0.142146 0.08993 0)
(-0.12482 0.0674667 0)
(-0.0810488 -0.0256637 0)
(-0.278767 -0.203488 0)
(-0.0203466 0.232427 0)
(0.0636765 0.0998555 0)
(0.0378217 0.0192261 0)
(0.0254891 -0.00442379 0)
(0.0159978 -0.00984143 0)
(-0.00272097 -0.0111768 0)
(-0.0277043 -0.00867079 0)
(-0.0534062 -0.00407741 0)
(-0.0751543 0.000425166 0)
(-0.090116 0.00341738 0)
(-0.0972991 0.00365255 0)
(-0.0998357 0.00139721 0)
(-0.100189 -0.00160041 0)
(-0.099595 -0.00498998 0)
(-0.0991404 -0.00844189 0)
(-0.099223 -0.011715 0)
(-0.0998712 -0.0146848 0)
(-0.100985 -0.0171448 0)
(-0.102425 -0.0189344 0)
(-0.104105 -0.0200247 0)
(-0.106067 -0.0205136 0)
(-0.108279 -0.0204136 0)
(-0.110738 -0.0199605 0)
(-0.113419 -0.0192031 0)
(-0.116215 -0.0180325 0)
(-0.118899 -0.0162171 0)
(-0.121109 -0.0133784 0)
(-0.122337 -0.00894095 0)
(-0.12205 -0.00269673 0)
(-0.119277 0.00588323 0)
(-0.112571 0.0176666 0)
(-0.100651 0.0334079 0)
(-0.0832274 0.0526654 0)
(-0.0611839 0.0713319 0)
(-0.0373865 0.0822706 0)
(0.00267947 0.0665919 0)
(0.143314 -0.00457968 0)
(-0.20735 -0.114181 0)
(0.94026 -0.000229682 0)
(-0.529071 -0.460945 0)
(-0.317404 0.0894695 0)
(-0.227896 -0.019589 0)
(-0.180302 -0.0410859 0)
(-0.165779 -0.029016 0)
(-0.163336 -0.0160417 0)
(-0.164634 -0.00571481 0)
(-0.165156 0.00290621 0)
(-0.162873 0.010458 0)
(-0.15814 0.0173907 0)
(-0.151083 0.0236958 0)
(-0.142639 0.0291063 0)
(-0.134243 0.0336357 0)
(-0.126747 0.0378502 0)
(-0.120481 0.0419726 0)
(-0.115448 0.0460898 0)
(-0.111478 0.0500098 0)
(-0.108426 0.0533604 0)
(-0.106198 0.0557914 0)
(-0.104714 0.0570961 0)
(-0.1039 0.057242 0)
(-0.1037 0.0563422 0)
(-0.104056 0.054514 0)
(-0.104889 0.0522009 0)
(-0.106102 0.049627 0)
(-0.107532 0.0469144 0)
(-0.108913 0.0441697 0)
(-0.109823 0.041465 0)
(-0.109585 0.0388608 0)
(-0.10695 0.0372061 0)
(-0.100039 0.0371876 0)
(-0.0863854 0.0395752 0)
(-0.0641296 0.0452728 0)
(-0.0338755 0.0547898 0)
(0.0144733 0.0677662 0)
(0.0590994 0.0690229 0)
(0.101639 0.0543624 0)
(0.163812 0.0253535 0)
(-0.219268 -0.0294498 0)
)
;

boundaryField
{
    floor
    {
        type            noSlip;
    }
    ceiling
    {
        type            noSlip;
    }
    sWall
    {
        type            noSlip;
    }
    nWall
    {
        type            noSlip;
    }
    sideWalls
    {
        type            empty;
    }
    glass1
    {
        type            noSlip;
    }
    glass2
    {
        type            noSlip;
    }
    sun
    {
        type            noSlip;
    }
    heatsource1
    {
        type            noSlip;
    }
    heatsource2
    {
        type            noSlip;
    }
    Table_master
    {
        type            noSlip;
    }
    Table_slave
    {
        type            noSlip;
    }
    inlet
    {
        type            fixedValue;
        value           uniform (0.3 0 0);
    }
    outlet
    {
        type            zeroGradient;
    }
}


// ************************************************************************* //
