// -*- C++ -*-
// File generated by PyFoam - sorry for the ugliness

FoamFile
{
 version 2.0;
 format ascii;
 class volScalarField;
 location "800";
 object T;
}

dimensions [ 0 0 0 1 0 0 0 ];

internalField nonuniform List<scalar> 459
(
  302.98
  302.725
  302.707
  302.7
  302.694
  302.689
  302.69
  302.711
  302.799
  302.845
  302.878
  302.901
  302.919
  302.937
  302.962
  304.021
  303.914
  303.827
  303.781
  303.783
  303.807
  303.838
  303.872
  303.908
  303.945
  303.983
  304.023
  304.065
  304.108
  304.153
  304.201
  304.257
  304.33
  304.442
  303.127
  302.745
  302.705
  302.692
  302.682
  302.666
  302.654
  302.687
  302.79
  302.868
  302.924
  302.956
  302.972
  302.979
  302.982
  302.996
  303.02
  304.068
  303.964
  303.718
  303.682
  303.699
  303.735
  303.768
  303.804
  303.844
  303.887
  303.934
  303.989
  304.05
  304.113
  304.177
  304.24
  304.304
  304.378
  304.479
  303.287
  302.789
  302.731
  302.719
  302.707
  302.665
  302.622
  302.662
  302.785
  302.902
  302.986
  303.031
  303.045
  303.043
  303.033
  303.031
  303.037
  304.055
  303.741
  303.61
  303.597
  303.648
  303.714
  303.74
  303.776
  303.818
  303.869
  303.933
  304.018
  304.128
  304.254
  304.347
  304.387
  304.412
  304.448
  304.518
  303.454
  302.856
  302.784
  302.782
  302.772
  302.682
  302.593
  302.636
  302.782
  302.945
  303.066
  303.129
  303.143
  303.131
  303.106
  303.084
  303.069
  303.091
  303.237
  303.298
  303.393
  303.518
  303.65
  303.765
  303.854
  303.917
  303.97
  304.02
  304.068
  304.114
  304.16
  304.205
  304.254
  304.347
  304.426
  304.485
  304.547
  303.623
  302.949
  302.867
  302.881
  302.867
  302.698
  302.568
  302.611
  302.789
  303.005
  303.171
  303.256
  303.272
  303.247
  303.206
  303.169
  303.147
  303.165
  303.228
  303.335
  303.481
  303.644
  303.8
  303.933
  304.04
  304.118
  304.184
  304.237
  304.282
  304.32
  304.351
  304.375
  304.392
  304.418
  304.464
  304.514
  304.565
  304.643
  304.808
  304.805
  303.787
  303.072
  302.992
  303.037
  302.936
  302.692
  302.535
  302.589
  302.815
  303.095
  303.311
  303.417
  303.435
  303.395
  303.34
  303.298
  303.284
  303.326
  303.428
  303.571
  303.737
  303.903
  304.051
  304.172
  304.266
  304.338
  304.39
  304.432
  304.465
  304.492
  304.512
  304.521
  304.519
  304.511
  304.521
  304.549
  304.585
  304.633
  304.69
  304.732
  303.962
  303.252
  303.188
  303.202
  302.956
  302.621
  302.46
  302.573
  302.881
  303.24
  303.505
  303.622
  303.631
  303.578
  303.523
  303.496
  303.516
  303.605
  303.747
  303.908
  304.07
  304.218
  304.341
  304.436
  304.509
  304.556
  304.588
  304.614
  304.636
  304.651
  304.658
  304.655
  304.64
  304.615
  304.598
  304.606
  304.628
  304.66
  304.692
  304.73
  304.189
  303.667
  303.589
  303.35
  302.826
  302.402
  302.328
  302.592
  303.032
  303.486
  303.779
  303.87
  303.857
  303.816
  303.788
  303.795
  303.856
  303.981
  304.139
  304.293
  304.431
  304.543
  304.63
  304.691
  304.729
  304.752
  304.771
  304.786
  304.797
  304.802
  304.798
  304.786
  304.764
  304.74
  304.729
  304.748
  304.794
  304.836
  304.84
  304.863
  304.526
  304.263
  304.031
  303.089
  302.161
  301.877
  302.181
  302.779
  303.383
  303.912
  304.101
  304.142
  304.135
  304.127
  304.138
  304.184
  304.272
  304.398
  304.536
  304.66
  304.76
  304.832
  304.88
  304.909
  304.927
  304.939
  304.948
  304.955
  304.957
  304.955
  304.945
  304.931
  304.916
  304.91
  304.928
  304.986
  305.085
  305.202
  305.314
  305.457
  295.329
  296.342
  298.873
  301.007
  302.598
  303.705
  304.15
  304.354
  304.424
  304.45
  304.466
  304.491
  304.532
  304.597
  304.684
  304.785
  304.884
  304.968
  305.029
  305.071
  305.096
  305.111
  305.119
  305.123
  305.125
  305.124
  305.118
  305.107
  305.091
  305.072
  305.055
  305.045
  305.055
  305.094
  305.165
  305.258
  305.395
  305.533
  296.365
  299.366
  301.951
  303.337
  304.089
  304.474
  304.634
  304.712
  304.757
  304.791
  304.825
  304.865
  304.914
  304.974
  305.041
  305.109
  305.17
  305.218
  305.252
  305.273
  305.285
  305.29
  305.29
  305.288
  305.282
  305.272
  305.259
  305.242
  305.222
  305.201
  305.18
  305.164
  305.16
  305.173
  305.216
  305.3
  305.409
  305.524
  304.589
  302.223
  301.573
  303.612
  304.448
  304.762
  304.918
  305.012
  305.073
  305.119
  305.158
  305.194
  305.228
  305.262
  305.297
  305.332
  305.367
  305.399
  305.424
  305.442
  305.452
  305.456
  305.455
  305.45
  305.442
  305.431
  305.418
  305.403
  305.385
  305.366
  305.346
  305.327
  305.309
  305.294
  305.285
  305.29
  305.325
  305.434
  305.594
  305.85
)
;

boundaryField
{
  floor
  {
    type wallHeatTransfer;
    Tinf uniform 305.2;
    alphaWall uniform 0.24;
    value nonuniform List<scalar> 29
(
  303.183
  304.217
  304.104
  304.009
  303.954
  303.948
  303.97
  304.005
  304.044
  304.084
  304.125
  304.165
  304.206
  304.248
  304.291
  304.334
  304.379
  304.432
  304.499
  304.603
  304.603
  304.63
  304.662
  304.684
  303.183
  304.217
  304.262
  304.25
  303.292
)
;
  }
  ceiling
  {
    type wallHeatTransfer;
    Tinf uniform 303.2;
    alphaWall uniform 0.24;
    value nonuniform List<scalar> 43
(
  304.492
  302.288
  301.676
  303.588
  304.369
  304.656
  304.794
  304.873
  304.923
  304.961
  304.995
  305.027
  305.059
  305.09
  305.123
  305.155
  305.187
  305.214
  305.234
  305.247
  305.253
  305.254
  305.25
  305.244
  305.234
  305.222
  305.208
  305.191
  305.172
  305.151
  305.129
  305.106
  305.085
  305.067
  305.055
  305.056
  305.084
  305.184
  305.335
  305.576
  304.467
  304.22
  296.819
)
;
  }
  sWall
  {
    type wallHeatTransfer;
    Tinf uniform 315.2;
    alphaWall uniform 0.36;
    value uniform 305.667;
  }
  nWall
  {
    type wallHeatTransfer;
    Tinf uniform 307.2;
    alphaWall uniform 0.36;
    value nonuniform List<scalar> 6
(
  305.337
  305.275
  305.185
  305.772
  305.745
  306.05
)
;
  }
  sideWalls
  {
    type empty;
  }
  glass1
  {
    type wallHeatTransfer;
    Tinf uniform 315.2;
    alphaWall uniform 4.3;
    value nonuniform List<scalar> 9
(
  310.748
  310.191
  309.834
  309.561
  309.336
  309.146
  309.063
  309.173
  309.437
)
;
  }
  glass2
  {
    type wallHeatTransfer;
    Tinf uniform 307.2;
    alphaWall uniform 4.3;
    value nonuniform List<scalar> 2
(
  306.545
  306.64
)
;
  }
  sun
  {
    type wallHeatTransfer;
    Tinf uniform 305.2;
    alphaWall uniform 0.24;
    value nonuniform List<scalar> 14
(
  303.174
  302.922
  302.899
  302.883
  302.869
  302.857
  302.853
  302.872
  302.96
  303.011
  303.051
  303.083
  303.112
  303.143
)
;
  }
  heatsource1
  {
    type fixedGradient;
    gradient uniform 0;
  }
  heatsource2
  {
    type fixedGradient;
    gradient uniform 0;
  }
  Table_master
  {
    type zeroGradient;
  }
  Table_slave
  {
    type zeroGradient;
  }
  inlet
  {
    type fixedValue;
    value uniform 293.15;
  }
  outlet
  {
    type zeroGradient;
  }
} 	// ************************************************************************* //

