/*--------------------------------*- C++ -*----------------------------------*\
  =========                 |
  \\      /  F ield         | OpenFOAM: The Open Source CFD Toolbox
   \\    /   O peration     | Website:  https://openfoam.org
    \\  /    A nd           | Version:  6
     \\/     M anipulation  |
\*---------------------------------------------------------------------------*/
FoamFile
{
    version     2.0;
    format      ascii;
    class       volScalarField;
    location    "700";
    object      epsilon;
}
// * * * * * * * * * * * * * * * * * * * * * * * * * * * * * * * * * * * * * //

dimensions      [0 2 -3 0 0 0 0];

internalField   nonuniform List<scalar> 
459
(
0.000629827
0.00084458
0.000924833
0.00108207
0.00125373
0.00145178
0.00163878
0.00176493
0.00179092
0.00169662
0.00146815
0.00106206
0.000753013
0.000486049
0.000302125
5.31138e-05
8.55364e-05
0.00013753
0.000175484
0.000180508
0.000167636
0.000138349
0.000110957
8.95738e-05
7.33294e-05
6.09054e-05
5.1285e-05
4.3699e-05
3.76421e-05
3.26446e-05
2.83092e-05
2.42572e-05
2.06992e-05
1.53726e-05
0.00144438
0.00192405
0.000783469
0.000783726
0.000862078
0.000999643
0.00116277
0.0012861
0.00131773
0.00124307
0.00107525
0.000829742
0.000633122
0.000472265
0.000346961
0.000545689
0.000281903
5.04859e-05
8.26136e-05
0.000129495
0.00014552
0.000144274
0.000136978
0.000139864
0.000113541
8.87059e-05
6.92649e-05
5.45958e-05
4.35996e-05
3.52803e-05
2.89425e-05
2.41326e-05
2.10961e-05
1.96372e-05
3.04209e-05
2.43729e-05
0.00247948
0.00425685
0.000919854
0.000775107
0.000884845
0.00108762
0.0013049
0.00144119
0.00146216
0.0013734
0.00118905
0.000961955
0.000756792
0.000584062
0.000438879
0.000400727
0.000509024
0.000118697
0.000157842
0.000172157
0.000173485
0.00016491
0.000162763
0.000353605
0.000231948
0.000157181
0.000110572
8.06539e-05
6.08223e-05
4.72774e-05
3.79932e-05
3.1917e-05
2.39531e-05
2.00425e-05
4.5987e-05
3.23701e-05
0.00382439
0.00841537
0.00135208
0.000838478
0.000979362
0.00130298
0.00157163
0.00168776
0.00167687
0.001556
0.00134818
0.0010997
0.000860428
0.000664533
0.000513461
0.000426924
0.000423749
0.000723066
0.000474596
0.000340403
0.000272487
0.000233336
0.000205216
0.000198456
0.000521412
0.000386711
0.000300859
0.000241214
0.000196354
0.000159751
0.000128193
9.99898e-05
7.36277e-05
3.93666e-05
2.481e-05
6.98886e-05
3.97033e-05
0.0056018
0.0146882
0.00248339
0.00105873
0.00122501
0.00179414
0.00203825
0.00207427
0.00199987
0.00182773
0.00156468
0.00124538
0.000936734
0.000691364
0.000520911
0.000419186
0.000392215
0.000430774
0.000386274
0.000343198
0.000308898
0.000275396
0.000240057
0.000209066
0.000204956
0.000188384
0.000170552
0.00015208
0.000132787
0.000112916
9.32532e-05
7.47415e-05
5.7797e-05
3.95462e-05
2.74124e-05
5.34043e-05
4.01241e-05
6.72782e-05
0.000118662
0.000168766
0.00800189
0.0217613
0.00538131
0.00197446
0.00233678
0.00276239
0.0027716
0.00264947
0.00246953
0.00220637
0.00184309
0.00141341
0.00100613
0.000693809
0.000495291
0.000395835
0.000374335
0.000390161
0.000392843
0.000379677
0.000350223
0.000308668
0.00026196
0.000218572
0.000188183
0.00016813
0.000152098
0.000135795
0.000118159
9.98205e-05
8.19211e-05
6.56245e-05
5.17057e-05
3.95463e-05
3.2608e-05
4.21376e-05
4.34302e-05
5.33451e-05
0.000221559
0.000193386
0.0106161
0.0260785
0.0109197
0.0056252
0.00499567
0.00438468
0.0038602
0.00345153
0.00309414
0.00268716
0.00217725
0.00159381
0.00106151
0.000677352
0.000461153
0.000379658
0.000378035
0.000402606
0.000412473
0.000394585
0.000354655
0.000303543
0.000251083
0.000205741
0.000173883
0.000155513
0.000142593
0.000130578
0.0001179
0.000104898
9.21755e-05
8.02114e-05
6.97654e-05
6.10858e-05
5.91354e-05
6.78081e-05
8.80791e-05
0.000145032
0.000330552
0.000310142
0.0111503
0.0270605
0.015817
0.0110658
0.00812944
0.00625998
0.00511566
0.00439571
0.00383869
0.0032414
0.00252407
0.00171796
0.00103381
0.000591405
0.000411752
0.000370538
0.000379944
0.000395967
0.000389846
0.000358164
0.000310471
0.000258695
0.000212415
0.000177177
0.000154915
0.000143486
0.000138317
0.000137035
0.00013945
0.00014549
0.000154292
0.000165268
0.000180925
0.000208249
0.000257257
0.000392766
0.000725312
0.00140123
0.00412813
0.00110299
0.0103039
0.0169177
0.013444
0.0104521
0.00820601
0.00679452
0.00591317
0.00526971
0.00459632
0.00371959
0.00266837
0.00147683
0.000744744
0.000470303
0.000376131
0.000352067
0.000350264
0.000344474
0.000321924
0.000284902
0.000242158
0.000201919
0.000169179
0.000146214
0.000132823
0.000127285
0.000128196
0.00013564
0.000151008
0.000176529
0.000215251
0.000271302
0.00035147
0.000467117
0.000627096
0.000834869
0.00106958
0.00127818
0.0014454
0.000902493
0.00386027
0.00533717
0.00665462
0.00665423
0.00621937
0.00540938
0.00407681
0.00241245
0.00135838
0.00077279
0.000496372
0.000381341
0.000336152
0.000317241
0.000303359
0.000283578
0.000255488
0.000223267
0.000192574
0.000167088
0.000147941
0.000134709
0.000126361
0.000122157
0.000122225
0.000127522
0.00013965
0.000160921
0.000194571
0.000245067
0.000318287
0.000420723
0.000554918
0.000710396
0.000855216
0.00094812
0.000890364
0.00055858
0.00274076
0.00779085
0.00768644
0.00572427
0.00411741
0.00279194
0.00176524
0.00109379
0.000699673
0.000492613
0.000393752
0.00034844
0.000326895
0.000314413
0.000303882
0.000292232
0.000279182
0.000266101
0.00025442
0.000244847
0.000237368
0.000231519
0.000226645
0.000222173
0.000217933
0.000214598
0.000213956
0.000218926
0.000233388
0.000262006
0.000309887
0.00038112
0.0004751
0.00058433
0.000657647
0.000732248
0.00081344
0.000599528
0.00255404
0.00249132
0.00262946
0.00320694
0.00255591
0.00212562
0.00176759
0.00139885
0.00107522
0.000832957
0.000671471
0.000573357
0.000514138
0.000475369
0.000445504
0.000417199
0.000386345
0.000352135
0.000316722
0.000283426
0.000254761
0.000231584
0.00021343
0.0001993
0.000188312
0.000180069
0.000174776
0.000173167
0.000176341
0.000185619
0.000202496
0.000228797
0.000266885
0.000319482
0.000389249
0.000478489
0.000496612
0.000440313
0.000374806
0.000309362
)
;

boundaryField
{
    floor
    {
        Cmu             0.09;
        kappa           0.41;
        E               9.8;
        type            epsilonWallFunction;
        value           nonuniform List<scalar> 
29
(
0.000302125
5.31138e-05
8.55364e-05
0.00013753
0.000175484
0.000180508
0.000167636
0.000138349
0.000110957
8.95738e-05
7.33294e-05
6.09054e-05
5.1285e-05
4.3699e-05
3.76421e-05
3.26446e-05
2.83092e-05
2.42572e-05
2.06992e-05
1.53726e-05
1.53726e-05
2.43729e-05
3.23701e-05
3.97033e-05
0.000302125
5.31138e-05
5.04859e-05
0.000118697
0.000723066
)
;
    }
    ceiling
    {
        Cmu             0.09;
        kappa           0.41;
        E               9.8;
        type            epsilonWallFunction;
        value           nonuniform List<scalar> 
43
(
0.00255404
0.00249132
0.00262946
0.00320694
0.00255591
0.00212562
0.00176759
0.00139885
0.00107522
0.000832957
0.000671471
0.000573357
0.000514138
0.000475369
0.000445504
0.000417199
0.000386345
0.000352135
0.000316722
0.000283426
0.000254761
0.000231584
0.00021343
0.0001993
0.000188312
0.000180069
0.000174776
0.000173167
0.000176341
0.000185619
0.000202496
0.000228797
0.000266885
0.000319482
0.000389249
0.000478489
0.000496612
0.000440313
0.000374806
0.000309362
0.0103039
0.0169177
0.00274076
)
;
    }
    sWall
    {
        Cmu             0.09;
        kappa           0.41;
        E               9.8;
        type            epsilonWallFunction;
        value           uniform 0.00255404;
    }
    nWall
    {
        Cmu             0.09;
        kappa           0.41;
        E               9.8;
        type            epsilonWallFunction;
        value           nonuniform List<scalar> 6(0.000168766 0.000193386 0.000310142 0.00055858 0.000599528 0.000309362);
    }
    sideWalls
    {
        type            empty;
    }
    glass1
    {
        Cmu             0.09;
        kappa           0.41;
        E               9.8;
        type            epsilonWallFunction;
        value           nonuniform List<scalar> 9(0.000629827 0.00144438 0.00247948 0.00382439 0.0056018 0.00800189 0.0106161 0.0111503 0.0103039);
    }
    glass2
    {
        Cmu             0.09;
        kappa           0.41;
        E               9.8;
        type            epsilonWallFunction;
        value           nonuniform List<scalar> 2(0.00110299 0.000902493);
    }
    sun
    {
        Cmu             0.09;
        kappa           0.41;
        E               9.8;
        type            epsilonWallFunction;
        value           nonuniform List<scalar> 
14
(
0.000629827
0.00084458
0.000924833
0.00108207
0.00125373
0.00145178
0.00163878
0.00176493
0.00179092
0.00169662
0.00146815
0.00106206
0.000753013
0.000486049
)
;
    }
    heatsource1
    {
        Cmu             0.09;
        kappa           0.41;
        E               9.8;
        type            epsilonWallFunction;
        value           nonuniform List<scalar> 3(6.72782e-05 0.000118662 0.000168766);
    }
    heatsource2
    {
        Cmu             0.09;
        kappa           0.41;
        E               9.8;
        type            epsilonWallFunction;
        value           nonuniform List<scalar> 4(0.000545689 0.000281903 0.000281903 0.000509024);
    }
    Table_master
    {
        Cmu             0.09;
        kappa           0.41;
        E               9.8;
        type            epsilonWallFunction;
        value           nonuniform List<scalar> 9(0.000353605 0.000231948 0.000157181 0.000110572 8.06539e-05 6.08223e-05 4.72774e-05 3.79932e-05 3.1917e-05);
    }
    Table_slave
    {
        Cmu             0.09;
        kappa           0.41;
        E               9.8;
        type            epsilonWallFunction;
        value           nonuniform List<scalar> 9(0.000521412 0.000386711 0.000300859 0.000241214 0.000196354 0.000159751 0.000128193 9.99898e-05 7.36277e-05);
    }
    inlet
    {
        type            turbulentMixingLengthDissipationRateInlet;
        mixingLength    0.01;
        phi             phi;
        k               k;
        value           uniform 0.000101881;
    }
    outlet
    {
        type            zeroGradient;
    }
}


// ************************************************************************* //
