/*--------------------------------*- C++ -*----------------------------------*\
  =========                 |
  \\      /  F ield         | OpenFOAM: The Open Source CFD Toolbox
   \\    /   O peration     | Website:  https://openfoam.org
    \\  /    A nd           | Version:  6
     \\/     M anipulation  |
\*---------------------------------------------------------------------------*/
FoamFile
{
    version     2.0;
    format      ascii;
    class       volScalarField;
    location    "700";
    object      nut;
}
// * * * * * * * * * * * * * * * * * * * * * * * * * * * * * * * * * * * * * //

dimensions      [0 2 -1 0 0 0 0];

internalField   nonuniform List<scalar> 
459
(
0.00121181
0.0013363
0.00137735
0.00145135
0.00152436
0.00160072
0.0016667
0.00170842
0.00171678
0.00168613
0.00160688
0.00144242
0.0012862
0.00111152
0.000948583
0.000531402
0.000622882
0.000729712
0.000791451
0.000798923
0.000779458
0.000731131
0.00067929
0.000632504
0.000591691
0.000556187
0.000525208
0.000497918
0.000473759
0.00045179
0.000430832
0.000409208
0.000388136
0.000351492
0.00159805
0.00408011
0.00399246
0.00463648
0.00526981
0.0057712
0.0061887
0.00654487
0.00680689
0.00694625
0.00691672
0.00662994
0.00607882
0.0050004
0.0033256
0.00115529
0.000926947
0.000522494
0.00129428
0.00207353
0.0027241
0.00312118
0.00307934
0.00215867
0.00178243
0.00153961
0.00136477
0.00123247
0.00112882
0.00104627
0.000969752
0.000889107
0.000811688
0.000743239
0.000795352
0.000409881
0.00191346
0.00553254
0.004929
0.00572481
0.00610949
0.00640088
0.0066806
0.00698696
0.0073178
0.00763821
0.00784955
0.00783989
0.00759398
0.00702212
0.0057645
0.00372913
0.00112885
0.000694878
0.0013737
0.00224974
0.00320269
0.00388881
0.00373539
0.000999654
0.000868575
0.000762917
0.000678515
0.000610783
0.000555946
0.000511168
0.000475241
0.000448421
0.000503868
0.000602906
0.000913868
0.000450559
0.00221083
0.00687768
0.00505515
0.00590936
0.00604598
0.00616106
0.00632308
0.00657991
0.00695231
0.00738621
0.00771554
0.0078626
0.00782053
0.00756483
0.00690247
0.00558006
0.00301253
0.001269
0.00150575
0.00220957
0.00327339
0.0043592
0.00509387
0.00475961
0.00113782
0.00102993
0.000947255
0.000879998
0.000821667
0.000767067
0.000712813
0.00065616
0.000592528
0.000543113
0.000588371
0.00104741
0.000482306
0.0025108
0.00857199
0.00555544
0.00603142
0.00611092
0.00607727
0.00611255
0.00632022
0.00671315
0.00716745
0.00753038
0.00770278
0.00768679
0.00753467
0.00721826
0.0065866
0.00542737
0.00474998
0.00507848
0.00568424
0.00636228
0.0068952
0.00714338
0.00691156
0.00561892
0.00492241
0.00446002
0.00404645
0.00359874
0.00311286
0.00259347
0.00205569
0.00152683
0.00107338
0.000833333
0.00101262
0.000607772
0.000575029
0.000694759
0.000781313
0.00282771
0.0104526
0.0073537
0.00662045
0.00657519
0.00628363
0.00614217
0.00627816
0.00667421
0.0071613
0.00753852
0.00768492
0.00762546
0.00749413
0.00741137
0.00737643
0.00727472
0.00745128
0.0080041
0.00847199
0.00875412
0.00881284
0.00864852
0.00824903
0.00756252
0.00690091
0.00629326
0.00568671
0.00506214
0.00440812
0.00372288
0.00301472
0.0023132
0.00168426
0.00127176
0.00110771
0.000840894
0.000738866
0.00106544
0.000817599
0.00310715
0.0117215
0.00987707
0.00819213
0.007296
0.00653234
0.0062153
0.00635537
0.0068204
0.00737137
0.0077636
0.0078766
0.00779616
0.0077885
0.00809534
0.008566
0.00900261
0.00948183
0.00992928
0.0100911
0.0100002
0.00970013
0.00923837
0.0086491
0.00795148
0.00725973
0.00659538
0.00595143
0.00531102
0.00467799
0.00405672
0.00343744
0.00282063
0.00222867
0.00178965
0.00149375
0.00125062
0.00121199
0.00126084
0.000957039
0.00315842
0.0100854
0.00912481
0.0079499
0.00679843
0.00613542
0.00606436
0.00648362
0.00717018
0.00782155
0.00819133
0.00823959
0.00821513
0.00864366
0.00933757
0.00982382
0.0101882
0.0104786
0.0106067
0.0104598
0.0100618
0.00947866
0.00876979
0.00798065
0.00716212
0.00638618
0.00566971
0.00501182
0.00444038
0.00398311
0.00363422
0.00333217
0.00301541
0.00266493
0.00244647
0.00240284
0.00258975
0.0030739
0.00378112
0.00146081
0.0030764
0.00362931
0.00397946
0.00407371
0.00431339
0.00493489
0.00588908
0.00699437
0.00798582
0.00857224
0.0086619
0.00861132
0.00898206
0.00950785
0.00991899
0.0101429
0.0102493
0.0102286
0.0100126
0.00956318
0.0089095
0.00810953
0.00721888
0.00629911
0.00541506
0.00461083
0.00391419
0.0033455
0.00291289
0.00261036
0.00241426
0.00229663
0.00222999
0.00220059
0.00220341
0.00222041
0.00220147
0.00210464
0.00196106
0.0013663
0.00147342
0.00301057
0.00572062
0.00764117
0.00884088
0.00945419
0.00957129
0.00923469
0.00874597
0.00860936
0.0088615
0.0090868
0.00915505
0.00911069
0.00895946
0.00865248
0.00815102
0.00746719
0.00666288
0.00582009
0.00501305
0.00429435
0.00368798
0.00319591
0.00281361
0.00253348
0.00234306
0.00222762
0.00217247
0.0021643
0.00219069
0.00223936
0.00229359
0.00232651
0.002307
0.00223716
0.00206902
0.00116434
0.00197854
0.00595369
0.00826844
0.00910432
0.00902337
0.00849614
0.00783452
0.0072832
0.00694963
0.00679343
0.00669682
0.00658666
0.00646754
0.00632325
0.00611073
0.00579164
0.00536319
0.00486632
0.00436546
0.00391595
0.00354451
0.00325133
0.00302205
0.00283895
0.00268705
0.00255653
0.00244429
0.00235417
0.0022944
0.00227288
0.00229157
0.00234139
0.00240094
0.00244871
0.00241789
0.00246668
0.00251362
0.00119212
0.00193252
0.00191655
0.00195133
0.00208481
0.00193296
0.00181779
0.00170942
0.00158118
0.00144839
0.0013302
0.00123796
0.00117442
0.00113248
0.00110324
0.00107962
0.00105624
0.00102952
0.000998181
0.000963525
0.000928498
0.000896074
0.000868031
0.000844729
0.000825663
0.000810206
0.000798215
0.000790328
0.000787911
0.000792719
0.000806409
0.000830171
0.000864685
0.000910249
0.000966517
0.00103231
0.00110585
0.00111965
0.00107563
0.0010194
0.000956209
)
;

boundaryField
{
    floor
    {
        type            nutkWallFunction;
        Cmu             0.09;
        kappa           0.41;
        E               9.8;
        value           nonuniform List<scalar> 
29
(
0.000114659
6.37121e-05
7.52023e-05
8.83659e-05
9.58676e-05
9.67715e-05
9.44174e-05
8.85413e-05
8.21862e-05
7.64006e-05
7.13114e-05
6.68493e-05
6.29274e-05
5.94488e-05
5.63495e-05
5.35138e-05
5.07925e-05
4.79672e-05
4.51952e-05
4.03282e-05
4.03281e-05
4.80521e-05
5.33493e-05
5.74415e-05
0.000114659
6.37121e-05
6.25803e-05
8.40895e-05
0.000151923
)
;
    }
    ceiling
    {
        type            nutkWallFunction;
        Cmu             0.09;
        kappa           0.41;
        E               9.8;
        value           nonuniform List<scalar> 
43
(
0.000226016
0.000224185
0.000227976
0.000242607
0.000226112
0.000213487
0.00020152
0.000187248
0.000172336
0.000158937
0.000148387
0.000141071
0.000136217
0.000132822
0.000130071
0.000127341
0.000124212
0.00012053
0.000116442
0.000112293
0.000108436
0.000105087
0.000102295
0.000100003
9.81402e-05
9.66918e-05
9.57373e-05
9.54434e-05
9.60229e-05
9.76744e-05
0.000100535
0.000104673
0.000110108
0.000116777
0.000124519
0.000133107
0.000134711
0.000129586
0.000123003
0.000115558
0.000348064
0.000405167
0.000230782
)
;
    }
    sWall
    {
        type            nutkWallFunction;
        Cmu             0.09;
        kappa           0.41;
        E               9.8;
        value           uniform 0.000226074;
    }
    nWall
    {
        type            nutkWallFunction;
        Cmu             0.09;
        kappa           0.41;
        E               9.8;
        value           nonuniform List<scalar> 6(9.46323e-05 9.90157e-05 0.000115656 0.000139908 0.000143117 0.000115563);
    }
    sideWalls
    {
        type            empty;
    }
    glass1
    {
        type            nutkWallFunction;
        Cmu             0.09;
        kappa           0.41;
        E               9.8;
        value           nonuniform List<scalar> 9(0.000145517 0.000189378 0.000224313 0.000256679 0.000288859 0.00032242 0.000351689 0.000357038 0.000348509);
    }
    glass2
    {
        type            nutkWallFunction;
        Cmu             0.09;
        kappa           0.41;
        E               9.8;
        value           nonuniform List<scalar> 2(0.000173797 0.000163096);
    }
    sun
    {
        type            nutkWallFunction;
        Cmu             0.09;
        kappa           0.41;
        E               9.8;
        value           nonuniform List<scalar> 
14
(
0.00014537
0.000159618
0.000164284
0.000172658
0.000180873
0.00018942
0.000196767
0.000201397
0.000202321
0.000198921
0.000190093
0.000171644
0.000153897
0.000133766
)
;
    }
    heatsource1
    {
        type            nutkWallFunction;
        Cmu             0.09;
        kappa           0.41;
        E               9.8;
        value           nonuniform List<scalar> 3(6.92134e-05 8.40788e-05 9.46323e-05);
    }
    heatsource2
    {
        type            nutkWallFunction;
        Cmu             0.09;
        kappa           0.41;
        E               9.8;
        value           nonuniform List<scalar> 4(0.000138835 0.000112091 0.000112091 0.000135768);
    }
    Table_master
    {
        type            nutkWallFunction;
        Cmu             0.09;
        kappa           0.41;
        E               9.8;
        value           nonuniform List<scalar> 9(0.000120688 0.000105141 9.24102e-05 8.20909e-05 7.36985e-05 6.68214e-05 6.11441e-05 5.65446e-05 5.30827e-05);
    }
    Table_slave
    {
        type            nutkWallFunction;
        Cmu             0.09;
        kappa           0.41;
        E               9.8;
        value           nonuniform List<scalar> 9(0.000136824 0.000124245 0.000114504 0.000106506 9.95124e-05 9.29127e-05 8.62994e-05 7.93293e-05 7.14134e-05);
    }
    inlet
    {
        type            calculated;
        value           uniform 0.000100623;
    }
    outlet
    {
        type            calculated;
        value           nonuniform List<scalar> 2(0.00193252 0.00191655);
    }
}


// ************************************************************************* //
