/*--------------------------------*- C++ -*----------------------------------*\
  =========                 |
  \\      /  F ield         | OpenFOAM: The Open Source CFD Toolbox
   \\    /   O peration     | Website:  https://openfoam.org
    \\  /    A nd           | Version:  6
     \\/     M anipulation  |
\*---------------------------------------------------------------------------*/
FoamFile
{
    version     2.0;
    format      ascii;
    class       surfaceScalarField;
    location    "700";
    object      phi;
}
// * * * * * * * * * * * * * * * * * * * * * * * * * * * * * * * * * * * * * //

dimensions      [1 0 -1 0 0 0 0];

internalField   nonuniform List<scalar> 
852
(
-0.00310322
0.00316032
-0.00431168
0.00120849
-0.00512319
0.000811546
-0.00561017
0.000487021
-0.00572229
0.00011215
-0.00541447
-0.000307785
-0.00467624
-0.000738195
-0.00358494
-0.00109126
-0.00229446
-0.00129045
-0.000982112
-0.00131232
0.000159781
-0.00114188
0.00089318
-0.000733384
0.0012101
-0.000316907
0.00101359
0.000196526
0.0010157
-0.000942329
0.000945082
-0.000863659
-7.87104e-05
-0.000271501
-0.000592193
0.000385087
-0.000656622
0.000918546
-0.000533495
0.00130225
-0.000383746
0.00152221
-0.000219993
0.00162681
-0.000104645
0.00168606
-5.92893e-05
0.00172554
-3.95254e-05
0.0017516
-2.61073e-05
0.001767
-1.54477e-05
0.00177028
-3.32375e-06
0.00175164
1.85864e-05
0.00168518
6.64061e-05
0.00152604
0.00015909
0.00124945
0.000276536
0.000847762
0.000401627
0.000851029
-0.00223603
0.00555089
-0.00337593
0.00234843
-0.00421401
0.00164967
-0.00471911
0.000992158
-0.00485326
0.000246341
-0.00457606
-0.00058494
-0.00390229
-0.00141192
-0.0029412
-0.0020523
-0.00186262
-0.002369
-0.000824019
-0.00235089
5.34005e-05
-0.00201928
0.000723377
-0.00140335
0.00113285
-0.000726371
0.00134841
-1.90226e-05
0.00173639
0.000627719
0.000927145
0.000809205
0.000927099
-9.68222e-05
0.00105032
0.000310008
-0.000485579
0.000740035
-0.00102225
0.00108468
-0.0010013
0.00137226
-0.000821108
0.00157838
-0.000589899
0.0016258
-0.000267453
0.00163632
-0.000115206
0.0016475
-7.05059e-05
0.00165672
-4.87896e-05
0.00166289
-3.23227e-05
0.00166678
-1.93884e-05
0.00166777
-4.3591e-06
0.00166148
2.48206e-05
0.00161715
0.000110686
0.0014269
0.000349285
0.00110464
0.000598737
0.000692153
0.00081405
0.00155221
-0.00157569
0.0073641
-0.0025413
0.00331408
-0.00330172
0.00241013
-0.00375636
0.00144684
-0.00387067
0.000360699
-0.00357526
-0.000880303
-0.00291721
-0.00206992
-0.0020508
-0.00291865
-0.0011514
-0.00326834
-0.000335334
-0.00316692
0.00032807
-0.00268267
0.00085937
-0.00193464
0.00123958
-0.00110658
0.00150285
-0.000282288
0.00164607
0.000484504
0.00132482
0.00113046
0.00225192
0.00134828
-0.000286144
0.00168368
-0.000821012
0.00170719
-0.00104578
0.00175226
-0.0010464
0.00182565
-0.000894531
0.00194904
-0.000713319
0.0016817
0.00156661
0.00149621
0.00144753
0.00141532
0.00139603
0.00139178
0.0014167
0.00152748
0.0012321
0.000644607
0.000906098
0.000924683
0.000523952
0.00119613
0.00209034
-0.00109573
0.00876892
-0.00183959
0.00405798
-0.0023719
0.00294248
-0.00268542
0.00176041
-0.00268577
0.000361086
-0.00228408
-0.00128194
-0.00162186
-0.00273207
-0.000881049
-0.00365939
-0.00020057
-0.00394876
0.0003641
-0.00373155
0.000809601
-0.00312815
0.00116987
-0.00229491
0.00144907
-0.00138579
0.00167554
-0.000508764
0.00189093
0.000269119
0.00217259
0.000848803
0.00325409
0.00117042
0.00284613
0.000417761
0.00271788
-0.00015789
0.00251875
-0.000621887
0.00229993
-0.000826978
0.00210744
-0.000853934
0.00196196
-0.000749084
0.00179121
-0.000542611
0.0020001
-0.000209091
0.00207243
-7.25289e-05
0.00209004
-1.78155e-05
0.00206914
2.06938e-05
0.00200665
6.22739e-05
0.00189361
0.000112829
0.0017128
0.000180589
0.00143407
0.000278516
0.000999019
0.000434823
0.000873919
0.00076964
0.000626699
0.00117184
0.000292086
0.00153068
0.00240131
-0.000752494
0.00989201
-0.00128776
0.00459328
-0.00143736
0.00309212
-0.00151457
0.00183766
-0.00121955
6.61024e-05
-0.000621294
-0.00188014
7.8864e-06
-0.00336117
0.000530872
-0.00418229
0.000915261
-0.00433308
0.00118061
-0.00399686
0.0013654
-0.00331293
0.00149725
-0.00242677
0.00160065
-0.0014892
0.00171574
-0.000623874
0.00189763
8.72254e-05
0.00217863
0.000567801
0.0025942
0.000754851
0.00261323
0.000398722
0.00253516
-7.98172e-05
0.00232635
-0.000413093
0.00207603
-0.000576685
0.00182956
-0.000607491
0.00161565
-0.000535216
0.00145562
-0.000382634
0.00143013
-0.000183664
0.00141138
-5.38313e-05
0.0013813
1.21963e-05
0.00134702
5.49065e-05
0.00130816
0.000101064
0.00125401
0.000166909
0.00117007
0.00026445
0.00104279
0.000405716
0.000879287
0.000598253
0.000757726
0.00089113
0.000659429
0.00127007
0.000411182
0.00177886
0.000455762
0.00235666
-0.000975554
0.00143102
-0.00141946
0.000443603
-0.00137338
-0.000623069
0.0109381
-0.000935155
0.00490541
-0.00048887
0.00264587
2.84438e-05
0.00132037
0.00074187
-0.000647299
0.0014096
-0.00254781
0.00186063
-0.0038121
0.00207056
-0.00439213
0.00210876
-0.0043712
0.00202014
-0.0039082
0.00186586
-0.00315865
0.00169518
-0.00225611
0.0015497
-0.00134376
0.00146941
-0.000543614
0.00149075
6.58623e-05
0.00162028
0.000438265
0.00183297
0.000542147
0.00191044
0.00032124
0.0018166
1.40086e-05
0.00162272
-0.000219248
0.00139087
-0.00034487
0.00115717
-0.000373843
0.000948546
-0.000326649
0.000790867
-0.00022502
0.000707835
-0.000100702
0.000669628
-1.56975e-05
0.000656332
2.54165e-05
0.000662313
4.88469e-05
0.000681565
8.17324e-05
0.00070651
0.000141882
0.000730348
0.000240529
0.000750211
0.00038577
0.000767326
0.000581056
0.000823254
0.000835124
0.000968547
0.0011247
0.00120841
0.00153893
0.00174072
0.00182428
0.00206062
0.00111104
0.00171866
0.000785475
0.000400992
-0.000599536
0.0120087
-0.000358456
0.00466436
0.00094332
0.00134413
0.00211082
0.000152897
0.00310405
-0.00164049
0.0036775
-0.00312118
0.00383365
-0.00396814
0.00364633
-0.00420472
0.00322696
-0.00395176
0.0026823
-0.00336351
0.00211155
-0.00258793
0.0015812
-0.0017258
0.00115076
-0.000913379
0.000855594
-0.0002485
0.000735131
0.00018629
0.000773663
0.000399708
0.000887382
0.000428405
0.000926348
0.000282246
0.000853409
8.69091e-05
0.000703046
-6.89329e-05
0.000512135
-0.000154018
0.000313007
-0.000174784
0.00013341
-0.000147126
-1.28721e-06
-9.04022e-05
-7.29319e-05
-2.91405e-05
-9.12799e-05
2.56418e-06
-7.15664e-05
5.61592e-06
-2.21382e-05
-6.69339e-07
5.40689e-05
5.43548e-06
0.000154178
4.16819e-05
0.000277039
0.000117575
0.000426451
0.000236267
0.000604425
0.000402992
0.00083386
0.000605605
0.00115355
0.000804928
0.00162591
0.00106649
0.00234689
0.00110323
0.00292445
0.000533401
0.00298569
0.000724154
0.00344602
0.00293408
0.00960225
0.00381211
0.00378637
0.00446332
0.000692948
0.00562948
-0.00101323
0.00629273
-0.00230365
0.00630988
-0.00313821
0.00580865
-0.00346679
0.00495583
-0.0033518
0.00390986
-0.00290574
0.00281349
-0.00226714
0.00179789
-0.00157239
0.000921759
-0.000849756
0.000264556
-0.000256264
-0.000112183
0.000128163
-0.000234079
0.000308137
-0.000206515
0.000372103
-0.000134621
0.000356468
-0.000114842
0.000262416
-0.000171491
0.000143497
-0.00028698
4.64836e-05
-0.00043359
-7.48776e-06
-0.000585349
-2.31104e-05
-0.000718347
-1.42198e-05
-0.000813769
4.92516e-06
-0.000860598
1.7592e-05
-0.000868194
1.00636e-05
-0.000848921
-1.3754e-05
-0.000805512
-4.41757e-05
-0.000730945
-6.92302e-05
-0.000616182
-7.31807e-05
-0.000459223
-3.94825e-05
-0.000262481
3.94264e-05
-1.35186e-05
0.000153932
0.000290968
0.000301025
0.000629513
0.000466294
0.00104397
0.000651949
0.00148222
0.000664895
0.00160762
0.000407925
0.000853744
0.00147794
0.00454453
0.0101845
0.0139655
0.0124549
0.00220353
0.0114931
-5.12822e-05
0.010223
-0.00103336
0.00864705
-0.00156214
0.00688055
-0.00170018
0.00508115
-0.00155235
0.00335777
-0.00118239
0.00178891
-0.000698348
0.000465969
-0.000249553
-0.000490853
0.000106927
-0.00100911
0.000261891
-0.00119337
0.000312353
-0.00121843
0.000333134
-0.00118006
0.000333667
-0.00113234
0.000308677
-0.00112349
0.000253495
-0.00116706
0.000186979
-0.00125088
0.000130209
-0.00135268
9.42132e-05
-0.00145394
7.8052e-05
-0.00154218
7.39147e-05
-0.00160989
7.25279e-05
-0.00165904
6.66271e-05
-0.00170179
5.27112e-05
-0.00175081
3.51526e-05
-0.00181827
2.31781e-05
-0.00191522
2.76116e-05
-0.00204926
6.07448e-05
-0.00222477
0.000135924
-0.00245376
0.000268321
-0.00277511
0.000475182
-0.00324528
0.000771094
-0.00393697
0.00115788
-0.0049
0.00161489
-0.00624513
0.00200993
-0.0078883
0.002051
-0.00734999
0.000939542
-0.00253982
0.00499162
0.00396931
0.00353001
0.0014104
0.00339775
-0.000901135
0.00286231
-0.00102679
0.00189238
-0.000730387
0.000737395
-0.000397526
-0.000413295
-3.18987e-05
-0.00133152
0.000219731
-0.00188404
0.000302848
-0.00211347
0.000336246
-0.00217847
0.000326798
-0.00217129
0.000305085
-0.00212738
0.000289135
-0.00207238
0.000278579
-0.0020281
0.000264301
-0.00201397
0.000239271
-0.00203434
0.000207237
-0.00208027
0.000176032
-0.0021375
0.000151333
-0.00219385
0.000134282
-0.00224271
0.000122656
-0.0022833
0.000113002
-0.00231936
0.00010256
-0.0023575
9.07332e-05
-0.00240299
8.0524e-05
-0.00245793
7.8006e-05
-0.00252199
9.15557e-05
-0.00259302
0.000131661
-0.00266833
0.000211128
-0.00274611
0.000345998
-0.00282647
0.000555432
-0.00290901
0.000853538
-0.00297875
0.00122752
-0.0029683
0.00160434
-0.00278855
0.00183008
-0.00217342
0.00143578
-0.000910864
-0.000323125
-0.00338477
-0.000173182
0.00421173
0.00044771
0.000789406
-0.000546445
9.27965e-05
-0.0015755
2.06462e-06
-0.00238812
8.20543e-05
-0.00295892
0.000173108
-0.00323925
0.000248269
-0.00330453
0.000284887
-0.00327909
0.000277289
-0.00319405
0.000251096
-0.00308825
0.000220884
-0.00298136
0.000198093
-0.00287866
0.000186328
-0.00278311
0.000182915
-0.00270055
0.000181621
-0.00263832
0.000176929
-0.0025989
0.000167693
-0.00257855
0.000155559
-0.00257014
0.000142796
-0.0025669
0.000130912
-0.00256476
0.000120389
-0.0025628
0.000110907
-0.00256216
0.000101792
-0.00256432
9.27678e-05
-0.00256883
8.49083e-05
-0.00257185
8.08991e-05
-0.0025656
8.51848e-05
-0.00253828
0.000104227
-0.00247393
0.000146664
-0.00235199
0.000223944
-0.00214845
0.000351785
-0.00184061
0.000545581
-0.00140546
0.000792271
-0.000791074
0.000989844
0.000127538
0.000911368
0.00124533
0.000317879
0.00158699
-0.000664901
-0.00172571
0.000873148
-0.0105627
-0.006311
-0.00550821
-0.0054119
-0.00541055
-0.00533162
-0.00516349
-0.00492177
-0.00464477
-0.00437653
-0.00413542
-0.00392527
-0.00373854
-0.00356413
-0.00339366
-0.00322502
-0.00306161
-0.00290797
-0.00276693
-0.00263903
-0.00252328
-0.00241823
-0.00232273
-0.00223634
-0.00215892
-0.00208922
-0.00202331
-0.00195279
-0.00186279
-0.0017298
-0.00151889
-0.00117943
-0.00064547
0.000135863
0.00111533
0.00201628
0.00232314
0.00164641
)
;

boundaryField
{
    floor
    {
        type            calculated;
        value           nonuniform List<scalar> 
29
(
0
0
0
0
0
0
0
0
0
0
0
0
0
0
0
0
0
0
0
0
-3.32992e-06
-9.09752e-06
-1.4238e-05
-1.89523e-05
-2.09945e-06
-2.79611e-06
-8.46171e-06
-1.18612e-05
-9.79821e-06
)
;
    }
    ceiling
    {
        type            calculated;
        value           nonuniform List<scalar> 
43
(
-1.58441e-05
-3.82488e-05
-4.01623e-05
-1.35567e-05
-3.6758e-06
5.61978e-07
2.97163e-06
4.83447e-06
6.41009e-06
7.76414e-06
8.91882e-06
9.85441e-06
1.06057e-05
1.12307e-05
1.17847e-05
1.23139e-05
1.28473e-05
1.33884e-05
1.39125e-05
1.43805e-05
1.47579e-05
1.50278e-05
1.51934e-05
1.52697e-05
1.52728e-05
1.52105e-05
1.5078e-05
1.48596e-05
1.45368e-05
1.40985e-05
1.35491e-05
1.29096e-05
1.22125e-05
1.1501e-05
1.08232e-05
1.02655e-05
1.03038e-05
1.09057e-05
1.17057e-05
1.35763e-05
8.0947e-06
5.44299e-06
-6.91839e-05
)
;
    }
    sWall
    {
        type            calculated;
        value           uniform -0.000222226;
    }
    nWall
    {
        type            calculated;
        value           nonuniform List<scalar> 6(-4.63816e-05 -5.58034e-05 -5.94187e-05 -6.60407e-05 -7.21958e-05 -9.29985e-05);
    }
    sideWalls
    {
        type            empty;
        value           nonuniform 0();
    }
    glass1
    {
        type            calculated;
        value           nonuniform List<scalar> 9(-5.70608e-05 -0.000154499 -0.000237491 -0.000309045 -0.000370557 -0.000422971 -0.000470979 -0.000527637 -0.000590311);
    }
    glass2
    {
        type            calculated;
        value           nonuniform List<scalar> 2(-0.000244855 -0.000265736);
    }
    sun
    {
        type            calculated;
        value           uniform 0;
    }
    heatsource1
    {
        type            calculated;
        value           nonuniform List<scalar> 3(2.03913e-07 2.03794e-07 2.03831e-07);
    }
    heatsource2
    {
        type            calculated;
        value           nonuniform List<scalar> 4(5.1131e-08 5.12648e-08 0 0);
    }
    Table_master
    {
        type            calculated;
        value           nonuniform List<scalar> 9(-1.53042e-07 -1.53193e-07 -1.53239e-07 -1.53266e-07 -1.53282e-07 -1.5329e-07 -1.53292e-07 -1.53279e-07 -1.53235e-07);
    }
    Table_slave
    {
        type            calculated;
        value           nonuniform List<scalar> 9(1.52825e-07 1.52857e-07 1.5284e-07 1.52828e-07 1.52824e-07 1.52836e-07 1.52867e-07 1.52922e-07 1.53013e-07);
    }
    inlet
    {
        type            calculated;
        value           uniform -0.00675731;
    }
    outlet
    {
        type            calculated;
        value           nonuniform List<scalar> 2(-0.000635246 0.011474);
    }
}


// ************************************************************************* //
