/*--------------------------------*- C++ -*----------------------------------*\
  =========                 |
  \\      /  F ield         | OpenFOAM: The Open Source CFD Toolbox
   \\    /   O peration     | Website:  https://openfoam.org
    \\  /    A nd           | Version:  6
     \\/     M anipulation  |
\*---------------------------------------------------------------------------*/
FoamFile
{
    version     2.0;
    format      ascii;
    class       volScalarField;
    location    "500";
    object      nut;
}
// * * * * * * * * * * * * * * * * * * * * * * * * * * * * * * * * * * * * * //

dimensions      [0 2 -1 0 0 0 0];

internalField   nonuniform List<scalar> 
459
(
0.00112433
0.00123157
0.00126007
0.00132263
0.00138168
0.00143906
0.00149883
0.00154594
0.0015723
0.00157107
0.00153774
0.00146893
0.00135755
0.00115906
0.000909319
0.000495859
0.000586819
0.000673044
0.000703803
0.000695241
0.000671943
0.000629562
0.000584896
0.000544377
0.000508803
0.000477674
0.000450359
0.000426219
0.000404837
0.000385371
0.000366843
0.000347941
0.000333735
0.000303912
0.0015125
0.00371982
0.00357477
0.00415401
0.00473198
0.00528305
0.00569023
0.00606018
0.00638048
0.00661634
0.00673851
0.00672342
0.00653368
0.00605459
0.00476736
0.00115606
0.000826916
0.000497285
0.00117745
0.00174129
0.00219849
0.0024826
0.0024771
0.00183062
0.00153401
0.00133433
0.00118667
0.0010727
0.000981988
0.000907952
0.000838943
0.000770403
0.00070773
0.000654437
0.000760878
0.000384416
0.0018316
0.00503713
0.00439287
0.0053283
0.00576861
0.00609734
0.00635305
0.00663038
0.00693665
0.00724693
0.00752078
0.00772087
0.00777888
0.0075904
0.00692341
0.00501737
0.00119032
0.000839
0.00138545
0.00199557
0.00263345
0.00311041
0.00303605
0.000883293
0.0007713
0.000681301
0.000609197
0.000551023
0.000503621
0.000464661
0.000432868
0.000407888
0.000447854
0.000527487
0.000876173
0.000442188
0.00213477
0.00634843
0.0043917
0.00552348
0.00578099
0.00587448
0.00600024
0.00621025
0.00650482
0.00686473
0.00723274
0.00755513
0.00773712
0.00776081
0.00754772
0.00671543
0.00397711
0.00136927
0.0016649
0.00225425
0.00300199
0.0037228
0.00421821
0.0039645
0.00100432
0.000911072
0.000843506
0.000790744
0.000744839
0.000703586
0.000663397
0.000621157
0.000572659
0.000531115
0.000549689
0.00102809
0.000487581
0.00244251
0.0080408
0.00475004
0.00537766
0.00567413
0.00564879
0.00570354
0.00587415
0.00615485
0.00653971
0.00693967
0.00726492
0.00744889
0.00748242
0.00738907
0.00711029
0.00632738
0.00560637
0.00545171
0.00559124
0.00583007
0.006028
0.00608864
0.00584813
0.00480818
0.00428828
0.00397237
0.00372719
0.00348121
0.00314475
0.00273053
0.00225703
0.00175545
0.00128623
0.000958975
0.00102074
0.000661
0.000598288
0.000720412
0.000810898
0.00276984
0.00990984
0.00640952
0.0054468
0.00579804
0.00573419
0.00573455
0.0058214
0.00605043
0.00642247
0.00684135
0.00717381
0.00732602
0.00729623
0.00718006
0.00710311
0.00711101
0.00723404
0.00743762
0.00759378
0.00763094
0.00753974
0.0073256
0.00697358
0.00643619
0.0059523
0.00553619
0.00515444
0.00477975
0.00437291
0.00389862
0.00334811
0.00273063
0.0020959
0.00157567
0.00121084
0.000932243
0.000802989
0.00114136
0.000851534
0.00307105
0.0112247
0.00892875
0.00690204
0.00663367
0.00627784
0.00598283
0.00591824
0.00611918
0.00652134
0.00697764
0.00731732
0.007433
0.00734522
0.00722404
0.0073178
0.00772596
0.00822435
0.00854434
0.00860834
0.00845076
0.0081346
0.00770685
0.00719355
0.00661942
0.00606862
0.00556703
0.0051109
0.00469988
0.00434081
0.00403376
0.00364895
0.00316656
0.00261253
0.00211142
0.00168873
0.00138992
0.00132946
0.00137605
0.00100175
0.00313241
0.00997783
0.00878927
0.00798757
0.00716501
0.00636359
0.00593425
0.00593709
0.00629258
0.00683893
0.00736475
0.00767935
0.00770771
0.00754997
0.00749404
0.00785153
0.00847028
0.00884037
0.00890154
0.00870262
0.00830076
0.00775414
0.00711027
0.0064195
0.00574596
0.00514843
0.00464325
0.0042301
0.00391142
0.0036903
0.00356414
0.00349314
0.00328828
0.0029654
0.00270971
0.00262025
0.00280731
0.00329276
0.00395168
0.00151976
0.0030544
0.00363087
0.0040671
0.00412824
0.00422115
0.0045271
0.0050982
0.00589999
0.00679548
0.00758725
0.00807664
0.00814864
0.00789602
0.00771112
0.00790719
0.00823498
0.00845882
0.00844953
0.00820103
0.0077494
0.00714059
0.00642041
0.00564963
0.0049106
0.00427407
0.00376905
0.00338458
0.00309773
0.00288562
0.0027262
0.00259998
0.00249909
0.00242721
0.00237943
0.00236512
0.00237039
0.00233542
0.00221414
0.00205248
0.00141216
0.00169296
0.00311865
0.00500207
0.00651173
0.00767094
0.00851489
0.00896592
0.00901226
0.00868739
0.00809706
0.00754311
0.00732982
0.00741206
0.0074562
0.00732087
0.00699039
0.00648535
0.00584663
0.00513776
0.00443676
0.00381403
0.00330928
0.00292951
0.00266025
0.00247684
0.0023575
0.00228658
0.002253
0.00225264
0.00227709
0.00231371
0.00235619
0.00239314
0.00239809
0.00233372
0.00219957
0.00198642
0.00116735
0.00206392
0.00485932
0.00701153
0.00805291
0.00861579
0.00856888
0.00808742
0.0073898
0.00668949
0.00614803
0.00579477
0.00560103
0.00544124
0.00521708
0.00490963
0.00451895
0.0040631
0.00358751
0.0031494
0.00279011
0.00252132
0.00233209
0.00220397
0.0021178
0.0020631
0.00203705
0.0020398
0.00206923
0.00212336
0.00219946
0.00229311
0.00239425
0.0024833
0.00254845
0.0025209
0.00254123
0.00250548
0.0011882
0.00179607
0.00189049
0.00195849
0.00204218
0.00188531
0.00178115
0.00171304
0.00162033
0.00149369
0.00135284
0.00121415
0.0010908
0.000992878
0.000920804
0.000866735
0.000822687
0.000783469
0.000746725
0.00071271
0.000683246
0.0006602
0.000644496
0.0006361
0.000634598
0.00063975
0.000651551
0.000670283
0.00069607
0.000728747
0.000768561
0.000815045
0.000868207
0.00092838
0.000995784
0.00106912
0.00116218
0.00117924
0.00114169
0.00107244
0.000993674
)
;

boundaryField
{
    floor
    {
        type            nutkWallFunction;
        Cmu             0.09;
        kappa           0.41;
        E               9.8;
        value           nonuniform List<scalar> 
29
(
0.000109993
5.9183e-05
7.06977e-05
8.1413e-05
8.51952e-05
8.41451e-05
8.12788e-05
7.60331e-05
7.04581e-05
6.53557e-05
6.08375e-05
5.68516e-05
5.33274e-05
5.01905e-05
4.73932e-05
4.48301e-05
4.2375e-05
3.98539e-05
3.79473e-05
3.39096e-05
3.39096e-05
4.47016e-05
5.22648e-05
5.81197e-05
0.000109993
5.91829e-05
5.93643e-05
0.000101587
0.000163364
)
;
    }
    ceiling
    {
        type            nutkWallFunction;
        Cmu             0.09;
        kappa           0.41;
        E               9.8;
        value           nonuniform List<scalar> 
43
(
0.000210943
0.000221308
0.000228739
0.000237947
0.000220869
0.000209432
0.000201909
0.000191609
0.000177432
0.000161504
0.00014564
0.000131358
0.000119891
0.000111368
0.000104923
9.96379e-05
9.49042e-05
9.04434e-05
8.62905e-05
8.26737e-05
7.98316e-05
7.78878e-05
7.68456e-05
7.66584e-05
7.72967e-05
7.87577e-05
8.1071e-05
8.42435e-05
8.82438e-05
9.30895e-05
9.87098e-05
0.000105092
0.000112261
0.000120229
0.000128827
0.000139643
0.000141615
0.00013727
0.000129215
0.000119981
0.000345785
0.000405348
0.00024008
)
;
    }
    sWall
    {
        type            nutkWallFunction;
        Cmu             0.09;
        kappa           0.41;
        E               9.8;
        value           uniform 0.000211002;
    }
    nWall
    {
        type            nutkWallFunction;
        Cmu             0.09;
        kappa           0.41;
        E               9.8;
        value           nonuniform List<scalar> 6(9.82104e-05 0.000103097 0.000120935 0.000140252 0.000142661 0.000119987);
    }
    sideWalls
    {
        type            empty;
    }
    glass1
    {
        type            nutkWallFunction;
        Cmu             0.09;
        kappa           0.41;
        E               9.8;
        value           nonuniform List<scalar> 9(0.000135375 0.000179777 0.000215313 0.000248451 0.000281576 0.000316329 0.000347932 0.00035434 0.00034622);
    }
    glass2
    {
        type            nutkWallFunction;
        Cmu             0.09;
        kappa           0.41;
        E               9.8;
        value           nonuniform List<scalar> 2(0.000180439 0.000168303);
    }
    sun
    {
        type            nutkWallFunction;
        Cmu             0.09;
        kappa           0.41;
        E               9.8;
        value           nonuniform List<scalar> 
14
(
0.000135258
0.00014764
0.000150911
0.000158062
0.000164777
0.000171272
0.000178007
0.000183295
0.000186245
0.000186106
0.000182373
0.000174638
0.000162034
0.00013927
)
;
    }
    heatsource1
    {
        type            nutkWallFunction;
        Cmu             0.09;
        kappa           0.41;
        E               9.8;
        value           nonuniform List<scalar> 3(7.21323e-05 8.72251e-05 9.82094e-05);
    }
    heatsource2
    {
        type            nutkWallFunction;
        Cmu             0.09;
        kappa           0.41;
        E               9.8;
        value           nonuniform List<scalar> 4(0.000138926 0.000100142 0.000100142 0.000142883);
    }
    Table_master
    {
        type            nutkWallFunction;
        Cmu             0.09;
        kappa           0.41;
        E               9.8;
        value           nonuniform List<scalar> 9(0.000106897 9.34252e-05 8.24318e-05 7.3499e-05 6.61986e-05 6.01802e-05 5.51812e-05 5.1063e-05 4.78007e-05);
    }
    Table_slave
    {
        type            nutkWallFunction;
        Cmu             0.09;
        kappa           0.41;
        E               9.8;
        value           nonuniform List<scalar> 9(0.000121235 0.000110207 0.000102135 9.57794e-05 9.02088e-05 8.5168e-05 8.02232e-05 7.4987e-05 6.89215e-05);
    }
    inlet
    {
        type            calculated;
        value           uniform 0.000100623;
    }
    outlet
    {
        type            calculated;
        value           nonuniform List<scalar> 2(0.00179607 0.00189049);
    }
}


// ************************************************************************* //
