// -*- C++ -*-
// File generated by PyFoam - sorry for the ugliness

FoamFile
{
 version 2.0;
 format ascii;
 class volVectorField;
 location "400";
 object U;
}

dimensions [ 0 1 -1 0 0 0 0 ];

internalField nonuniform List<vector> 459
(
  (0.0455932 0.0315723 0)
  (-0.089134 -0.0110363 0)
  (-0.0739786 -0.0209337 0)
  (-0.0594923 -0.0169283 0)
  (-0.0424101 -0.00856203 0)
  (-0.0338202 -0.00553134 0)
  (-0.0277424 -0.00516682 0)
  (-0.0221465 -0.00539172 0)
  (-0.0166373 -0.00560259 0)
  (-0.0113494 -0.00569157 0)
  (-0.00635918 -0.00572087 0)
  (-0.00120386 -0.00576188 0)
  (0.00290565 -0.00497957 0)
  (-0.0199237 -0.00295026 0)
  (0.111728 0.00351047 0)
  (-0.0885795 -0.00287383 0)
  (0.0281752 0.00539023 0)
  (-0.00615539 0.00325524 0)
  (-0.0104907 0.000730789 0)
  (-0.00888763 -0.000728832 0)
  (-0.00680863 -0.00032762 0)
  (0.0017026 -0.00604383 0)
  (0.0059958 -0.00990847 0)
  (0.0153398 -0.00705144 0)
  (0.0199209 -0.00498047 0)
  (0.0230283 -0.00362324 0)
  (0.0260045 -0.00292924 0)
  (0.029439 -0.0030652 0)
  (0.0330078 -0.00367092 0)
  (0.0370597 -0.00264269 0)
  (0.0343533 0.00325232 0)
  (0.0249646 0.00846599 0)
  (-0.0194763 0.0145803 0)
  (0.0807299 -0.00363046 0)
  (0.221055 0.043873 0)
  (0.0997653 0.0487009 0)
  (0.0134146 0.0207935 0)
  (-0.0282646 -0.010448 0)
  (-0.024874 -0.00865246 0)
  (-0.0231854 -0.00788319 0)
  (-0.0190771 -0.0082069 0)
  (-0.0145412 -0.0086055 0)
  (-0.0104153 -0.00867466 0)
  (-0.00697701 -0.00837475 0)
  (-0.00428314 -0.00787856 0)
  (-0.00218454 -0.00746435 0)
  (-0.00106715 -0.00657979 0)
  (-0.00707272 -0.00905837 0)
  (0.0207701 -0.0021545 0)
  (0.013903 0.00801294 0)
  (0.00880544 0.022277 0)
  (-0.138176 0.00199881 0)
  (0.0339461 0.00373421 0)
  (0.00796718 0.00546217 0)
  (0.00125713 0.00373495 0)
  (-0.00667151 0.000393749 0)
  (-0.020719 -0.0026623 0)
  (-0.0134614 -0.0151553 0)
  (-0.0144965 -0.0214777 0)
  (0.00321683 -0.0110374 0)
  (0.00961081 -0.00728469 0)
  (0.012115 -0.00534158 0)
  (0.0125839 -0.00417202 0)
  (0.01138 -0.00323212 0)
  (0.00745026 -0.00142937 0)
  (-0.000431863 0.00620691 0)
  (-0.00108541 0.0164826 0)
  (-0.00358814 0.0173711 0)
  (-0.0443133 0.0178852 0)
  (0.149981 -0.0022319 0)
  (-0.130755 -0.0312503 0)
  (0.0554445 0.0682409 0)
  (-0.0358043 0.0312542 0)
  (-0.0374063 0.00465699 0)
  (-0.0332354 -0.00772282 0)
  (-0.0286718 -0.0122473 0)
  (-0.0235498 -0.0129795 0)
  (-0.0201738 -0.0123092 0)
  (-0.0187466 -0.0109691 0)
  (-0.019202 -0.00909647 0)
  (-0.021557 -0.00669265 0)
  (-0.0259512 -0.00405646 0)
  (-0.0328531 -0.00114022 0)
  (-0.0408761 0.00121018 0)
  (-0.0443968 0.00392421 0)
  (-0.0475899 0.00594724 0)
  (-0.0550017 0.000280339 0)
  (-0.153085 0.0156177 0)
  (-0.00457976 0.000936151 0)
  (-0.0164231 0.00195192 0)
  (-0.0132103 0.0026564 0)
  (-0.00681593 0.00322044 0)
  (-0.00801242 0.00476167 0)
  (0.0180461 -0.00597694 0)
  (-0.0244733 -0.017719 0)
  (-0.0396391 -0.00909821 0)
  (-0.0479721 -0.00591723 0)
  (-0.0534577 -0.00428998 0)
  (-0.057592 -0.00313594 0)
  (-0.0609908 -0.00235977 0)
  (-0.0618486 -0.002116 0)
  (-0.0544954 -0.00255549 0)
  (-0.0394203 -0.00115893 0)
  (-0.021229 0.00428274 0)
  (-0.0494038 0.00740224 0)
  (0.19829 -0.000335113 0)
  (-0.379415 -0.0207384 0)
  (0.122835 0.0978497 0)
  (-0.037107 0.0490848 0)
  (-0.0478492 0.00612745 0)
  (-0.0469736 -0.0136384 0)
  (-0.0419329 -0.0194184 0)
  (-0.0380231 -0.0169568 0)
  (-0.0383662 -0.0126635 0)
  (-0.0424004 -0.00803218 0)
  (-0.0496016 -0.00319916 0)
  (-0.0593138 0.00147874 0)
  (-0.0697983 0.00476637 0)
  (-0.0798974 0.00559318 0)
  (-0.0890447 0.00283608 0)
  (-0.0960972 -0.0046654 0)
  (-0.102687 -0.0196822 0)
  (-0.111498 -0.0462144 0)
  (-0.112431 -0.0809488 0)
  (-0.106155 0.00587094 0)
  (-0.091206 0.00120793 0)
  (-0.0988345 0.00321862 0)
  (-0.104161 0.00389663 0)
  (-0.110756 0.00304744 0)
  (-0.118248 0.000680479 0)
  (-0.124158 1.75071e-05 0)
  (-0.124938 -0.00176746 0)
  (-0.1239 -0.00348683 0)
  (-0.121002 -0.00497431 0)
  (-0.116565 -0.00647186 0)
  (-0.110654 -0.00816184 0)
  (-0.102865 -0.0102295 0)
  (-0.0921548 -0.0129654 0)
  (-0.0778472 -0.0168157 0)
  (-0.0641298 -0.0217239 0)
  (-0.0553372 -0.0247723 0)
  (-0.0710534 -0.0251854 0)
  (0.242432 0.010321 0)
  (-0.5243 -0.0350962 0)
  (0.185604 0.10111 0)
  (0.0338239 0.0917273 0)
  (-0.0263073 0.0315551 0)
  (-0.0507984 -0.014132 0)
  (-0.0549337 -0.0232189 0)
  (-0.0568508 -0.0155442 0)
  (-0.0636697 -0.0067061 0)
  (-0.0733972 0.000953706 0)
  (-0.0831993 0.00700156 0)
  (-0.0916552 0.0114382 0)
  (-0.0989566 0.0144118 0)
  (-0.105111 0.0157477 0)
  (-0.110237 0.0151982 0)
  (-0.114978 0.012585 0)
  (-0.121769 0.00781103 0)
  (-0.132084 0.00200866 0)
  (-0.137865 0.000158093 0)
  (-0.137132 0.003282 0)
  (-0.135311 0.00355254 0)
  (-0.135089 0.00574758 0)
  (-0.134091 0.00703087 0)
  (-0.132885 0.00696673 0)
  (-0.131551 0.0053883 0)
  (-0.129759 0.00307709 0)
  (-0.127449 -0.000106122 0)
  (-0.124884 -0.00269557 0)
  (-0.121829 -0.00480479 0)
  (-0.118251 -0.00668995 0)
  (-0.114229 -0.00859847 0)
  (-0.109824 -0.0107952 0)
  (-0.105131 -0.0137113 0)
  (-0.10092 -0.0180752 0)
  (-0.0995261 -0.0240883 0)
  (-0.10483 -0.0282512 0)
  (-0.116188 -0.0287568 0)
  (-0.119595 -0.0143309 0)
  (-0.155863 -0.0176257 0)
  (-0.134214 -0.0379046 0)
  (0.216459 -0.105689 0)
  (-0.604392 -0.0851281 0)
  (0.21924 0.0717012 0)
  (0.118758 0.119719 0)
  (0.0545338 0.106457 0)
  (-0.0166265 0.0302896 0)
  (-0.0573559 -0.0115922 0)
  (-0.0725703 -0.00412416 0)
  (-0.0876514 0.00544986 0)
  (-0.0996135 0.0116237 0)
  (-0.108402 0.0154539 0)
  (-0.114467 0.0178216 0)
  (-0.118386 0.0189796 0)
  (-0.120738 0.0187061 0)
  (-0.122183 0.0166034 0)
  (-0.123672 0.0122513 0)
  (-0.126711 0.00588694 0)
  (-0.131869 7.69717e-05 0)
  (-0.136217 -0.000919117 0)
  (-0.13716 0.000583418 0)
  (-0.135678 0.00160537 0)
  (-0.133053 0.00285808 0)
  (-0.129417 0.00343254 0)
  (-0.125359 0.00294916 0)
  (-0.121263 0.00134478 0)
  (-0.117351 -0.00100665 0)
  (-0.113872 -0.00378724 0)
  (-0.110723 -0.00640271 0)
  (-0.107631 -0.00872973 0)
  (-0.104444 -0.0108349 0)
  (-0.101125 -0.0128043 0)
  (-0.0977068 -0.0147092 0)
  (-0.0943509 -0.0166541 0)
  (-0.0915892 -0.0187649 0)
  (-0.0903433 -0.020699 0)
  (-0.0906748 -0.0208438 0)
  (-0.0893724 -0.0181355 0)
  (-0.0852013 -0.0112632 0)
  (-0.101292 -0.0141892 0)
  (-0.157023 -0.0241204 0)
  (0.328355 -0.135456 0)
  (-0.629071 -0.150482 0)
  (0.233072 -0.0494712 0)
  (0.19024 0.103631 0)
  (0.115809 0.172431 0)
  (0.0198874 0.11302 0)
  (-0.0557264 0.0352412 0)
  (-0.0845083 0.0222496 0)
  (-0.10479 0.0215655 0)
  (-0.116631 0.02174 0)
  (-0.122497 0.0214157 0)
  (-0.124269 0.0207617 0)
  (-0.123229 0.019805 0)
  (-0.120387 0.0183546 0)
  (-0.116719 0.0160403 0)
  (-0.113275 0.0124073 0)
  (-0.111095 0.00744959 0)
  (-0.110489 0.00251154 0)
  (-0.110287 -0.000289069 0)
  (-0.108971 -0.00121847 0)
  (-0.106418 -0.00147645 0)
  (-0.102997 -0.00134278 0)
  (-0.0988744 -0.00139848 0)
  (-0.0944448 -0.00201526 0)
  (-0.0901541 -0.00332795 0)
  (-0.0863397 -0.00521651 0)
  (-0.0830625 -0.00747699 0)
  (-0.0802517 -0.00981324 0)
  (-0.07771 -0.0120927 0)
  (-0.0752511 -0.0143056 0)
  (-0.0727265 -0.0164833 0)
  (-0.0700077 -0.0186676 0)
  (-0.0669928 -0.0209144 0)
  (-0.0636567 -0.0232306 0)
  (-0.0599305 -0.0252855 0)
  (-0.0548651 -0.0261781 0)
  (-0.0447713 -0.0252288 0)
  (-0.0258198 -0.0238686 0)
  (-0.019281 -0.0279726 0)
  (-0.179518 -0.0370372 0)
  (0.501347 -0.146707 0)
  (-0.586216 -0.145822 0)
  (0.137132 -0.158335 0)
  (0.157854 0.0326833 0)
  (0.108089 0.254641 0)
  (-0.0432083 0.174068 0)
  (-0.0860778 0.0807715 0)
  (-0.104477 0.0483905 0)
  (-0.116797 0.0351427 0)
  (-0.120544 0.0273986 0)
  (-0.118436 0.0219061 0)
  (-0.112629 0.0179005 0)
  (-0.104636 0.0148065 0)
  (-0.0954821 0.0122461 0)
  (-0.0860491 0.00980726 0)
  (-0.0772047 0.00697691 0)
  (-0.0696298 0.00351211 0)
  (-0.0636296 1.95707e-05 0)
  (-0.0592695 -0.00251145 0)
  (-0.0557473 -0.00392628 0)
  (-0.0523313 -0.00466742 0)
  (-0.0488845 -0.0050098 0)
  (-0.0453691 -0.00530955 0)
  (-0.0419232 -0.00583584 0)
  (-0.0387503 -0.00674915 0)
  (-0.0360305 -0.00808065 0)
  (-0.0338468 -0.00974746 0)
  (-0.0321693 -0.0116083 0)
  (-0.0308689 -0.013582 0)
  (-0.0297875 -0.0156529 0)
  (-0.0287585 -0.0178463 0)
  (-0.0275939 -0.0202206 0)
  (-0.0260631 -0.0228804 0)
  (-0.0238639 -0.0259635 0)
  (-0.0204906 -0.029542 0)
  (-0.014677 -0.0335849 0)
  (-0.00244661 -0.038542 0)
  (0.023661 -0.0463306 0)
  (0.054553 -0.0569915 0)
  (-0.0930841 -0.0654645 0)
  (0.841975 -0.100478 0)
  (-0.489109 -0.039718 0)
  (-0.227407 -0.105645 0)
  (-0.512224 0.0379739 0)
  (0.0112658 0.340595 0)
  (-0.159606 0.202554 0)
  (-0.140746 0.100413 0)
  (-0.120698 0.0595204 0)
  (-0.105925 0.0403907 0)
  (-0.0910781 0.0283325 0)
  (-0.0756551 0.0194659 0)
  (-0.0591476 0.0132332 0)
  (-0.0432301 0.00922337 0)
  (-0.0286805 0.0067533 0)
  (-0.0155724 0.00513331 0)
  (-0.00407809 0.00379174 0)
  (0.00547433 0.00230153 0)
  (0.0122393 0.000786697 0)
  (0.0172281 -0.000406422 0)
  (0.0209334 -0.00121761 0)
  (0.0238158 -0.00173849 0)
  (0.026155 -0.00206416 0)
  (0.0281257 -0.00235335 0)
  (0.0297732 -0.002753 0)
  (0.0310609 -0.00336941 0)
  (0.0319221 -0.00425108 0)
  (0.0323099 -0.0053878 0)
  (0.0322289 -0.00673799 0)
  (0.0317389 -0.00828029 0)
  (0.0309288 -0.0100311 0)
  (0.0299065 -0.0120491 0)
  (0.0288061 -0.0144476 0)
  (0.0278039 -0.0174235 0)
  (0.0271427 -0.0213022 0)
  (0.027181 -0.0265981 0)
  (0.0286208 -0.0341702 0)
  (0.0337678 -0.0456369 0)
  (0.0468673 -0.0636184 0)
  (0.0640294 -0.0883696 0)
  (-0.0858236 -0.0966841 0)
  (0.907102 -0.0419313 0)
  (-2.64999 0.0851294 0)
  (-0.0759843 0.220194 0)
  (-0.22134 0.137193 0)
  (-0.131091 0.0605697 0)
  (-0.0550407 0.0226347 0)
  (-0.0086884 0.00875302 0)
  (0.0242927 0.000954657 0)
  (0.0475158 -0.00341955 0)
  (0.0647326 -0.00515197 0)
  (0.0779305 -0.00497879 0)
  (0.0885452 -0.00361724 0)
  (0.0971617 -0.0016254 0)
  (0.104057 0.000606874 0)
  (0.109366 0.00278697 0)
  (0.11314 0.00464867 0)
  (0.115583 0.00609877 0)
  (0.116905 0.00713992 0)
  (0.117359 0.00778932 0)
  (0.117183 0.00807477 0)
  (0.116562 0.00800339 0)
  (0.115605 0.00757222 0)
  (0.114346 0.00677791 0)
  (0.11277 0.00562337 0)
  (0.110839 0.00411768 0)
  (0.108522 0.00226347 0)
  (0.105808 3.31032e-05 0)
  (0.102699 -0.0026475 0)
  (0.099208 -0.00591051 0)
  (0.095349 -0.00996184 0)
  (0.0911292 -0.0151064 0)
  (0.0865234 -0.0217843 0)
  (0.0814109 -0.0306211 0)
  (0.0754858 -0.0425069 0)
  (0.0686083 -0.0587323 0)
  (0.0601464 -0.080971 0)
  (0.0412947 -0.108168 0)
  (-0.12012 -0.105288 0)
  (0.420407 0.0432119 0)
  (-1.21234 0.0569445 0)
  (0.492391 -0.0926999 0)
  (0.217726 -0.123455 0)
  (0.193254 -0.151593 0)
  (0.214268 -0.157951 0)
  (0.232513 -0.155472 0)
  (0.242787 -0.152021 0)
  (0.248217 -0.150098 0)
  (0.25071 -0.150003 0)
  (0.251165 -0.151289 0)
  (0.250082 -0.153395 0)
  (0.2478 -0.155774 0)
  (0.244578 -0.157918 0)
  (0.240637 -0.15941 0)
  (0.236179 -0.160007 0)
  (0.231388 -0.15964 0)
  (0.226437 -0.158402 0)
  (0.221486 -0.156514 0)
  (0.216652 -0.154259 0)
  (0.211983 -0.151919 0)
  (0.207456 -0.149722 0)
  (0.202982 -0.147822 0)
  (0.198439 -0.146298 0)
  (0.193692 -0.145171 0)
  (0.188617 -0.144421 0)
  (0.183103 -0.144011 0)
  (0.17705 -0.1439 0)
  (0.170349 -0.14405 0)
  (0.162865 -0.144425 0)
  (0.154397 -0.144987 0)
  (0.144632 -0.145682 0)
  (0.133051 -0.146416 0)
  (0.118788 -0.14703 0)
  (0.100856 -0.147273 0)
  (0.0785168 -0.146844 0)
  (0.0525844 -0.148178 0)
  (-0.125545 -0.157458 0)
  (0.497299 -0.293456 0)
  (-0.979993 0.00570931 0)
  (0.801178 0.584074 0)
  (0.482702 0.457152 0)
  (0.732427 0.356539 0)
  (0.74496 0.326906 0)
  (0.69482 0.315406 0)
  (0.653852 0.308061 0)
  (0.622037 0.307649 0)
  (0.592121 0.313898 0)
  (0.562938 0.324846 0)
  (0.535403 0.338924 0)
  (0.509998 0.354933 0)
  (0.486745 0.37172 0)
  (0.465585 0.3881 0)
  (0.446474 0.402948 0)
  (0.429352 0.415338 0)
  (0.41409 0.424665 0)
  (0.400479 0.430743 0)
  (0.38825 0.433817 0)
  (0.377108 0.434465 0)
  (0.366762 0.433429 0)
  (0.356946 0.431453 0)
  (0.34743 0.429161 0)
  (0.338019 0.427005 0)
  (0.328548 0.425261 0)
  (0.318874 0.424059 0)
  (0.308863 0.423421 0)
  (0.298377 0.423301 0)
  (0.287253 0.423619 0)
  (0.275287 0.424278 0)
  (0.262214 0.425183 0)
  (0.247694 0.426228 0)
  (0.23129 0.427279 0)
  (0.21245 0.428121 0)
  (0.190459 0.428383 0)
  (0.16457 0.427393 0)
  (0.134897 0.423213 0)
  (0.109708 0.410206 0)
  (-0.146861 0.464339 0)
  (0.632507 0.767387 0)
)
;

boundaryField
{
  floor
  {
    type noSlip;
  }
  ceiling
  {
    type noSlip;
  }
  sWall
  {
    type noSlip;
  }
  nWall
  {
    type noSlip;
  }
  sideWalls
  {
    type empty;
  }
  glass1
  {
    type noSlip;
  }
  glass2
  {
    type noSlip;
  }
  sun
  {
    type noSlip;
  }
  heatsource1
  {
    type noSlip;
  }
  heatsource2
  {
    type noSlip;
  }
  Table_master
  {
    type noSlip;
  }
  Table_slave
  {
    type noSlip;
  }
  inlet
  {
    type fixedValue;
    value uniform (0.3 0 0);
  }
  outlet
  {
    type zeroGradient;
  }
} 	// ************************************************************************* //

