/*--------------------------------*- C++ -*----------------------------------*\
  =========                 |
  \\      /  F ield         | OpenFOAM: The Open Source CFD Toolbox
   \\    /   O peration     | Website:  https://openfoam.org
    \\  /    A nd           | Version:  6
     \\/     M anipulation  |
\*---------------------------------------------------------------------------*/
FoamFile
{
    version     2.0;
    format      ascii;
    class       volScalarField;
    location    "1600";
    object      epsilon;
}
// * * * * * * * * * * * * * * * * * * * * * * * * * * * * * * * * * * * * * //

dimensions      [0 2 -3 0 0 0 0];

internalField   nonuniform List<scalar> 
459
(
0.000427124
0.000553501
0.00058556
0.000673481
0.000762436
0.000853221
0.000950296
0.00104955
0.00112315
0.00115219
0.00112049
0.00102224
0.000865735
0.000675474
0.000490694
3.45964e-05
5.84697e-05
8.42121e-05
8.66838e-05
7.92177e-05
6.93699e-05
5.71363e-05
4.62648e-05
3.76785e-05
3.10395e-05
2.58789e-05
2.18226e-05
1.85978e-05
1.60043e-05
1.38523e-05
1.19818e-05
1.02493e-05
9.31796e-06
7.21056e-06
0.00107895
0.00157789
0.000519776
0.000503179
0.000525785
0.000565362
0.000626291
0.000707208
0.000784539
0.00083261
0.000831084
0.000774315
0.000670867
0.000543204
0.000437967
0.000517428
0.000123708
3.91639e-05
9.20518e-05
0.000103165
9.67713e-05
8.44167e-05
7.19457e-05
6.5697e-05
5.29381e-05
4.16253e-05
3.27435e-05
2.59587e-05
2.07958e-05
1.68541e-05
1.38597e-05
1.16575e-05
1.02795e-05
9.67439e-06
2.57144e-05
1.72368e-05
0.00196534
0.00388021
0.000638192
0.000476534
0.000497433
0.000558045
0.00065049
0.000768082
0.00087636
0.000940853
0.00094398
0.000886974
0.000781526
0.000653449
0.000534396
0.000475601
0.000565476
0.00025804
0.000204536
0.000163565
0.000131539
0.000106412
9.09589e-05
0.000165669
0.000114301
8.1427e-05
5.9939e-05
4.54921e-05
3.54973e-05
2.84052e-05
2.32906e-05
1.9608e-05
1.49312e-05
1.25321e-05
4.95308e-05
2.77575e-05
0.0031823
0.0080754
0.00100597
0.000478328
0.000482235
0.000567284
0.000706764
0.000882518
0.00102018
0.00108658
0.00107801
0.0010056
0.000880169
0.000733262
0.000603714
0.000519259
0.000499854
0.000904042
0.000522767
0.000321476
0.00021914
0.0001604
0.000123629
0.000106068
0.000240903
0.000183436
0.000148428
0.000124996
0.000107169
9.22274e-05
7.92598e-05
6.70084e-05
5.44668e-05
3.24989e-05
2.12511e-05
8.40644e-05
3.85799e-05
0.00485793
0.0144479
0.00198898
0.000558111
0.000484237
0.000597283
0.000848753
0.00111239
0.00125893
0.00130173
0.00126048
0.00115331
0.000994715
0.000810902
0.000633566
0.000488628
0.000389767
0.000348053
0.000285711
0.000229364
0.000184051
0.000148412
0.000120635
0.000101104
9.6778e-05
8.97857e-05
8.31535e-05
7.67375e-05
7.00234e-05
6.28073e-05
5.55703e-05
4.86805e-05
4.23846e-05
3.40404e-05
2.64679e-05
5.92568e-05
4.57757e-05
7.45112e-05
0.000129997
0.000183882
0.0071922
0.0215213
0.00449331
0.00104123
0.000679803
0.000795121
0.00130187
0.00156811
0.00164577
0.00161894
0.00152256
0.0013646
0.00115254
0.000911304
0.000677426
0.000485501
0.000354012
0.00028028
0.000235673
0.000200031
0.000167471
0.000138939
0.000115622
9.87467e-05
8.97857e-05
8.56712e-05
8.33212e-05
8.08228e-05
7.70593e-05
7.11177e-05
6.25496e-05
5.33929e-05
4.49652e-05
3.75411e-05
3.31509e-05
4.45657e-05
4.75768e-05
5.74673e-05
0.000240471
0.000209797
0.00997379
0.0257771
0.00938719
0.00344891
0.0022137
0.00219553
0.00240446
0.00238006
0.00224974
0.00208173
0.00188339
0.00163973
0.00134672
0.00102941
0.000729994
0.000492257
0.000337133
0.000253515
0.000208917
0.00017697
0.000148749
0.000124842
0.000106737
9.5329e-05
9.07879e-05
9.10916e-05
9.34353e-05
9.62024e-05
9.83641e-05
9.84543e-05
9.35744e-05
8.34811e-05
7.31129e-05
6.44386e-05
6.16542e-05
6.9013e-05
8.55173e-05
0.000128401
0.00031386
0.000300768
0.0106573
0.0287326
0.0156187
0.00995393
0.00707277
0.00547174
0.00433844
0.00357654
0.0030591
0.00267448
0.00232931
0.00196063
0.00154968
0.00112969
0.000748828
0.000464467
0.000295665
0.000212648
0.000172228
0.000145
0.000123113
0.000106833
9.66488e-05
9.24645e-05
9.3641e-05
9.88699e-05
0.000106943
0.000117528
0.000130823
0.000146932
0.000165207
0.000180311
0.000190901
0.000212166
0.000255116
0.000371965
0.000639577
0.00117156
0.00401059
0.00106856
0.00990635
0.0168693
0.013535
0.0102239
0.00780288
0.00615336
0.00503967
0.00427958
0.00373198
0.00326767
0.00278751
0.00224516
0.00165265
0.00109674
0.000620964
0.000332425
0.000211676
0.000157916
0.000129508
0.000110542
9.70268e-05
8.86728e-05
8.52659e-05
8.63729e-05
9.14579e-05
0.000100075
0.000112232
0.000128647
0.000150724
0.000180545
0.000220921
0.000275484
0.000351029
0.000460472
0.000622372
0.000845326
0.00111083
0.00136356
0.00156071
0.000859724
0.00493896
0.00664207
0.00669386
0.00620357
0.00553005
0.00488665
0.00424448
0.00353868
0.00275752
0.0019227
0.00105488
0.00056063
0.000300258
0.000179606
0.000126589
0.000100285
8.5102e-05
7.55053e-05
6.97895e-05
6.72845e-05
6.76179e-05
7.04946e-05
7.57359e-05
8.34211e-05
9.39704e-05
0.000108206
0.000127431
0.000153602
0.000189714
0.000240688
0.000311907
0.000410965
0.000544983
0.000711141
0.000886759
0.00103103
0.000972632
0.000438956
0.0034121
0.00673033
0.00665564
0.00535969
0.00453019
0.00385383
0.00300062
0.00209719
0.00133306
0.000780444
0.000430653
0.000243098
0.000148813
0.000104365
8.31371e-05
7.20553e-05
6.58934e-05
6.26628e-05
6.15848e-05
6.22708e-05
6.44931e-05
6.81542e-05
7.33725e-05
8.04588e-05
8.98706e-05
0.000102316
0.000118909
0.000141365
0.00017218
0.000214579
0.000273007
0.000352287
0.00045427
0.000571723
0.000685604
0.000833776
0.000460407
0.000468751
0.00217022
0.00253458
0.00282902
0.00313469
0.00234062
0.00181731
0.00159838
0.00139285
0.00112591
0.000846374
0.000589299
0.000392084
0.000259622
0.000179055
0.000132639
0.000105224
8.79189e-05
7.65327e-05
6.92284e-05
6.51062e-05
6.35565e-05
6.41169e-05
6.64988e-05
7.06113e-05
7.6589e-05
8.44979e-05
9.45916e-05
0.000107392
0.000123698
0.000144803
0.000171482
0.000205009
0.000247256
0.000300518
0.000366798
0.000447955
0.000465945
0.000333131
0.000286018
0.0004753
)
;

boundaryField
{
    floor
    {
        Cmu             0.09;
        kappa           0.41;
        E               9.8;
        type            epsilonWallFunction;
        value           nonuniform List<scalar> 
29
(
0.000490694
3.45964e-05
5.84697e-05
8.42121e-05
8.66838e-05
7.92177e-05
6.93699e-05
5.71363e-05
4.62648e-05
3.76785e-05
3.10395e-05
2.58789e-05
2.18226e-05
1.85978e-05
1.60043e-05
1.38523e-05
1.19818e-05
1.02493e-05
9.31796e-06
7.21056e-06
7.21056e-06
1.72368e-05
2.77575e-05
3.85799e-05
0.000490694
3.45964e-05
3.91639e-05
0.00025804
0.000904042
)
;
    }
    ceiling
    {
        Cmu             0.09;
        kappa           0.41;
        E               9.8;
        type            epsilonWallFunction;
        value           nonuniform List<scalar> 
43
(
0.00217022
0.00253458
0.00282902
0.00313469
0.00234062
0.00181731
0.00159838
0.00139285
0.00112591
0.000846374
0.000589299
0.000392084
0.000259622
0.000179055
0.000132639
0.000105224
8.79189e-05
7.65327e-05
6.92284e-05
6.51062e-05
6.35565e-05
6.41169e-05
6.64988e-05
7.06113e-05
7.6589e-05
8.44979e-05
9.45916e-05
0.000107392
0.000123698
0.000144803
0.000171482
0.000205009
0.000247256
0.000300518
0.000366798
0.000447955
0.000465945
0.000333131
0.000286018
0.0004753
0.00990635
0.0168693
0.0034121
)
;
    }
    sWall
    {
        Cmu             0.09;
        kappa           0.41;
        E               9.8;
        type            epsilonWallFunction;
        value           uniform 0.00217022;
    }
    nWall
    {
        Cmu             0.09;
        kappa           0.41;
        E               9.8;
        type            epsilonWallFunction;
        value           nonuniform List<scalar> 6(0.000183882 0.000209797 0.000300768 0.000438956 0.000468751 0.0004753);
    }
    sideWalls
    {
        type            empty;
    }
    glass1
    {
        Cmu             0.09;
        kappa           0.41;
        E               9.8;
        type            epsilonWallFunction;
        value           nonuniform List<scalar> 9(0.000427124 0.00107895 0.00196534 0.0031823 0.00485793 0.0071922 0.00997379 0.0106573 0.00990635);
    }
    glass2
    {
        Cmu             0.09;
        kappa           0.41;
        E               9.8;
        type            epsilonWallFunction;
        value           nonuniform List<scalar> 2(0.00106856 0.000859724);
    }
    sun
    {
        Cmu             0.09;
        kappa           0.41;
        E               9.8;
        type            epsilonWallFunction;
        value           nonuniform List<scalar> 
14
(
0.000427124
0.000553501
0.00058556
0.000673481
0.000762436
0.000853221
0.000950296
0.00104955
0.00112315
0.00115219
0.00112049
0.00102224
0.000865735
0.000675474
)
;
    }
    heatsource1
    {
        Cmu             0.09;
        kappa           0.41;
        E               9.8;
        type            epsilonWallFunction;
        value           nonuniform List<scalar> 3(7.45112e-05 0.000129997 0.000183882);
    }
    heatsource2
    {
        Cmu             0.09;
        kappa           0.41;
        E               9.8;
        type            epsilonWallFunction;
        value           nonuniform List<scalar> 4(0.000517428 0.000123708 0.000123708 0.000565476);
    }
    Table_master
    {
        Cmu             0.09;
        kappa           0.41;
        E               9.8;
        type            epsilonWallFunction;
        value           nonuniform List<scalar> 9(0.000165669 0.000114301 8.1427e-05 5.9939e-05 4.54921e-05 3.54973e-05 2.84052e-05 2.32906e-05 1.9608e-05);
    }
    Table_slave
    {
        Cmu             0.09;
        kappa           0.41;
        E               9.8;
        type            epsilonWallFunction;
        value           nonuniform List<scalar> 9(0.000240903 0.000183436 0.000148428 0.000124996 0.000107169 9.22274e-05 7.92598e-05 6.70084e-05 5.44668e-05);
    }
    inlet
    {
        type            turbulentMixingLengthDissipationRateInlet;
        mixingLength    0.01;
        phi             phi;
        k               k;
        value           uniform 0.000101881;
    }
    outlet
    {
        type            zeroGradient;
    }
}


// ************************************************************************* //
