/*--------------------------------*- C++ -*----------------------------------*\
  =========                 |
  \\      /  F ield         | OpenFOAM: The Open Source CFD Toolbox
   \\    /   O peration     | Website:  https://openfoam.org
    \\  /    A nd           | Version:  6
     \\/     M anipulation  |
\*---------------------------------------------------------------------------*/
FoamFile
{
    version     2.0;
    format      ascii;
    class       surfaceScalarField;
    location    "1600";
    object      phi;
}
// * * * * * * * * * * * * * * * * * * * * * * * * * * * * * * * * * * * * * //

dimensions      [1 0 -1 0 0 0 0];

internalField   nonuniform List<scalar> 
852
(
-0.00295889
0.00301623
-0.00399916
0.00104027
-0.00479937
0.000800207
-0.00542251
0.000623145
-0.00583514
0.000412625
-0.00600913
0.00017399
-0.0059163
-9.28326e-05
-0.00553474
-0.000381558
-0.00488052
-0.000654213
-0.00401894
-0.000861585
-0.00305012
-0.000968824
-0.00208582
-0.000964293
-0.00122817
-0.000857653
-0.000538936
-0.000689234
-0.000537269
-0.000783475
0.000786469
-0.000540643
-0.000242832
4.39234e-05
-0.000584566
0.000539834
-0.00049591
0.000884455
-0.000344622
0.00110965
-0.000225191
0.00123595
-0.0001263
0.00129759
-6.16424e-05
0.00133207
-3.4483e-05
0.0013536
-2.15242e-05
0.00136617
-1.25699e-05
0.00137137
-5.20135e-06
0.00136801
3.35301e-06
0.00134902
1.89898e-05
0.0012942
5.48275e-05
0.00116952
0.000124681
0.000963526
0.000205989
0.000711459
0.000252067
0.000715481
-0.00211982
0.00529057
-0.00314027
0.00206072
-0.00396929
0.00162922
-0.00458875
0.00124261
-0.00499983
0.000823704
-0.00518336
0.000357519
-0.00510788
-0.00016831
-0.00475575
-0.000733691
-0.00415559
-0.00125437
-0.00338332
-0.00163385
-0.00253726
-0.00181488
-0.00171213
-0.00178943
-0.000988401
-0.00158138
-0.000439862
-0.00123777
-0.000172343
-0.000804789
0.000116965
-0.000289359
0.000116914
0.000239577
0.000555621
0.000635298
-0.000638553
0.000898613
-0.000847882
0.00111851
-0.000715808
0.00129372
-0.000519827
0.00140705
-0.000338528
0.00142748
-0.000146724
0.00143257
-6.67381e-05
0.00143873
-4.0639e-05
0.0014439
-2.66936e-05
0.00144734
-1.60108e-05
0.00144925
-7.11324e-06
0.00144907
3.53425e-06
0.00144378
2.42824e-05
0.00140671
9.18971e-05
0.00124677
0.000284624
0.000967183
0.000485571
0.000616995
0.000602255
0.0013427
-0.00148987
0.00701686
-0.00237269
0.00294354
-0.00311344
0.00236998
-0.00364936
0.00177853
-0.00401456
0.0011889
-0.00418472
0.00052768
-0.00410557
-0.000247457
-0.00375148
-0.00108778
-0.00317686
-0.001829
-0.00247538
-0.00233533
-0.00174221
-0.00254805
-0.00104992
-0.00248172
-0.000450491
-0.00218081
2.16355e-05
-0.0017099
0.000332198
-0.00111535
0.000471892
-0.000429053
0.000588806
0.00148507
-0.000919877
0.00170257
-0.000856052
0.00165519
-0.0008005
0.00163887
-0.000699481
0.00165939
-0.00054035
0.00169807
-0.000377207
0.0015515
0.00148491
0.00144443
0.00141789
0.00140203
0.00139507
0.00139876
0.00142319
0.00151524
0.00125359
0.000546274
0.000931363
0.000807802
0.000526393
0.00100722
0.00188455
-0.00104319
0.00836619
-0.00174519
0.00364553
-0.00224321
0.002868
-0.00260236
0.00213768
-0.00285408
0.00144062
-0.00296149
0.000635095
-0.0028278
-0.000381151
-0.00243662
-0.00147896
-0.00188954
-0.00237608
-0.00128908
-0.00293578
-0.000710911
-0.00312622
-0.000194619
-0.00299801
0.000243936
-0.00261937
0.00060532
-0.00207128
0.000926606
-0.00143664
0.0012885
-0.000790942
0.00213026
-0.000252959
0.00247751
-0.00033885
0.00213334
-0.000575706
0.00199963
-0.000722343
0.0018701
-0.000670978
0.00175162
-0.000580996
0.00167399
-0.000462715
0.00161005
-0.000313269
0.00174094
-0.000131047
0.00181836
-7.75673e-05
0.00187982
-6.16188e-05
0.0019281
-4.84267e-05
0.00195017
-2.22285e-05
0.00192521
2.48038e-05
0.00182795
9.71109e-05
0.00162487
0.000202924
0.00126184
0.000362876
0.00110633
0.000701788
0.000801632
0.0011125
0.000339008
0.00146985
0.0022437
-0.00072884
0.00946037
-0.00126229
0.00417898
-0.00138465
0.00299036
-0.00147825
0.00223129
-0.00154061
0.00150298
-0.00150183
0.000596317
-0.00122746
-0.000655525
-0.000786537
-0.00191988
-0.000310741
-0.00285188
0.000121047
-0.00336757
0.000474474
-0.00347965
0.000744812
-0.00326835
0.000953797
-0.00282835
0.00113092
-0.0022484
0.00131012
-0.00161584
0.00153897
-0.00101979
0.00186081
-0.000574803
0.00196446
-0.000442494
0.00188417
-0.000495417
0.00170899
-0.000547162
0.00154965
-0.000511639
0.00141105
-0.0004424
0.00130681
-0.000358476
0.00125295
-0.000259403
0.0012865
-0.0001646
0.00133118
-0.00012225
0.00138115
-0.000111586
0.00143421
-0.000101489
0.00148121
-6.92307e-05
0.00150282
3.19891e-06
0.00147727
0.000122661
0.00139119
0.000289003
0.00124464
0.000509424
0.00110726
0.000839173
0.000950764
0.00126899
0.000596783
0.00182383
0.000490685
0.0023498
-0.000994791
0.00148527
-0.00145656
0.000461565
-0.00140808
-0.000631025
0.0105066
-0.000997352
0.0045453
-0.000603421
0.00259643
-0.000310414
0.00193828
-9.61792e-05
0.00128874
0.000227989
0.000272149
0.000709057
-0.00113659
0.00114702
-0.00235785
0.00145979
-0.00316465
0.00163348
-0.00354126
0.00169382
-0.00353998
0.00167301
-0.00324754
0.00160368
-0.00275902
0.00152333
-0.00216806
0.00146519
-0.00155769
0.00145409
-0.0010087
0.00148334
-0.000604053
0.00145066
-0.000409812
0.00132617
-0.000370928
0.00114744
-0.000368429
0.000981707
-0.000345906
0.000847483
-0.000308177
0.000753002
-0.000263995
0.000709229
-0.00021563
0.000720278
-0.000175649
0.000762107
-0.000164079
0.000821411
-0.00017089
0.000893192
-0.00017327
0.000972743
-0.000148782
0.00105064
-7.46949e-05
0.00110858
6.47191e-05
0.00113733
0.000260247
0.00114583
0.000500933
0.00117786
0.000807135
0.00127966
0.0011672
0.00146484
0.00163865
0.00190831
0.00190632
0.00216103
0.00123256
0.00177422
0.000848377
0.000424411
-0.000717217
0.0116837
-0.00060321
0.0044313
0.000472799
0.00152042
0.00115042
0.00126066
0.00172492
0.000714246
0.00237082
-0.000373758
0.00292496
-0.00169073
0.00323076
-0.00266365
0.00328239
-0.00321628
0.00312574
-0.00338462
0.002825
-0.00323924
0.00244427
-0.00286681
0.00203854
-0.00235329
0.00165616
-0.00178567
0.00132989
-0.00123143
0.00107968
-0.000758485
0.000902422
-0.000426797
0.000751435
-0.000258826
0.000591293
-0.000210785
0.00042933
-0.000206466
0.000288301
-0.000204877
0.00017952
-0.000199397
0.000107694
-0.000192168
7.75236e-05
-0.000185459
8.78966e-05
-0.000186022
0.000125617
-0.000201799
0.000180376
-0.000225649
0.000250404
-0.000243298
0.000340026
-0.000238404
0.00045575
-0.000190418
0.000591446
-7.09767e-05
0.000731909
0.000119784
0.000883122
0.000349719
0.00108497
0.000605291
0.00138521
0.000866955
0.00184874
0.00117512
0.00252205
0.00123301
0.0030416
0.000713002
0.003065
0.000824976
0.00355287
0.0026031
0.00959435
0.00328065
0.00375374
0.00344505
0.00135602
0.0038977
0.000808011
0.00458915
2.27991e-05
0.00528187
-0.00106648
0.00556419
-0.00197305
0.00543948
-0.00253894
0.00499563
-0.00277243
0.00433745
-0.00272644
0.00356738
-0.00246918
0.00277188
-0.00207131
0.00201152
-0.00159293
0.00134122
-0.00111538
0.000787913
-0.000678117
0.000373488
-0.00034406
9.69195e-05
-0.000150228
-8.7385e-05
-7.45215e-05
-0.000228788
-6.93824e-05
-0.000348224
-8.70305e-05
-0.000447169
-0.000105932
-0.000523381
-0.000123184
-0.000575562
-0.000139988
-0.000603108
-0.000157912
-0.000609013
-0.000180117
-0.000602048
-0.000208765
-0.000588345
-0.000239352
-0.000567686
-0.000263957
-0.000532748
-0.000273343
-0.000466267
-0.000256899
-0.000336581
-0.000200662
-0.000140182
-7.66155e-05
0.000100551
0.000108987
0.000393877
0.000311964
0.000758257
0.000502575
0.00123961
0.000693765
0.00174958
0.000723042
0.00189215
0.000570429
0.000941323
0.00177581
0.00475544
0.0101583
0.0139048
0.0122316
0.00302923
0.0113316
0.00170803
0.0105972
0.000757194
0.00970549
-0.000174766
0.00855699
-0.000824547
0.00725887
-0.00124082
0.00590539
-0.00141895
0.00456571
-0.00138675
0.00330301
-0.00120648
0.00216736
-0.000935655
0.00117009
-0.000595669
0.000352461
-0.000297742
-0.000251463
-7.41924e-05
-0.000628189
3.26654e-05
-0.000832318
5.39008e-05
-0.00094779
4.09505e-05
-0.00103165
1.44791e-05
-0.00110569
-1.29892e-05
-0.00117356
-3.80655e-05
-0.0012347
-6.20468e-05
-0.0012889
-8.57792e-05
-0.00133758
-0.000109239
-0.00138498
-0.00013271
-0.00143843
-0.000155317
-0.00150521
-0.000172577
-0.00159224
-0.00017692
-0.00170765
-0.000157936
-0.00186188
-0.000102668
-0.00206412
1.57175e-06
-0.00230481
0.00016408
-0.00259371
0.000397889
-0.00300205
0.000720304
-0.00363306
0.00113358
-0.00455961
0.00162031
-0.00590821
0.00207164
-0.00761947
0.00228169
-0.00744464
0.00160097
-0.00240012
0.0051018
0.00455608
0.00409578
0.00271405
0.00449517
0.000357809
0.00453475
-0.00021435
0.00412621
-0.000416008
0.00344099
-0.000555596
0.00259264
-0.000570606
0.00167365
-0.000467768
0.000757695
-0.000290518
-0.000101045
-7.69153e-05
-0.000798089
0.000101375
-0.00125437
0.00015854
-0.00150038
0.00017182
-0.00162033
0.000152615
-0.00168668
0.000120247
-0.00173337
8.7645e-05
-0.00177658
5.76818e-05
-0.00182176
3.21932e-05
-0.00187118
1.13543e-05
-0.00192652
-6.71136e-06
-0.00198804
-2.42511e-05
-0.00205621
-4.10682e-05
-0.00213319
-5.57381e-05
-0.00222118
-6.73225e-05
-0.00232135
-7.24074e-05
-0.00243299
-6.52816e-05
-0.00255244
-3.84805e-05
-0.00267233
1.72195e-05
-0.00278085
0.000110088
-0.00287281
0.000256045
-0.00295346
0.000478538
-0.00302457
0.00079141
-0.00308185
0.00119086
-0.00308583
0.00162429
-0.00296715
0.00195296
-0.00227713
0.00159167
-0.000586828
-8.93251e-05
-0.00290858
-0.000438607
0.00505128
0.000856789
0.00141865
0.000820541
0.000394058
0.000546483
5.97077e-05
0.000167001
-3.65258e-05
-0.000356184
-3.24107e-05
-0.00094456
1.77689e-05
-0.0014932
8.08759e-05
-0.00192229
0.000138568
-0.00218182
0.000182619
-0.00228341
0.000202961
-0.00231544
0.000190572
-0.00230943
0.000165812
-0.00229464
0.000137828
-0.00228706
0.000112659
-0.00229095
9.15426e-05
-0.00230631
7.30368e-05
-0.00233053
5.64127e-05
-0.00236049
4.13131e-05
-0.00239485
2.76539e-05
-0.0024344
1.5299e-05
-0.00247903
3.56201e-06
-0.00252818
-6.58888e-06
-0.00258113
-1.43757e-05
-0.00263528
-1.82524e-05
-0.00268516
-1.54041e-05
-0.0027216
-2.03822e-06
-0.00273369
2.9308e-05
-0.00271065
8.70434e-05
-0.00263246
0.000177854
-0.00246868
0.000314763
-0.00219092
0.00051365
-0.00177847
0.000778415
-0.00118798
0.0010338
-0.000119738
0.000884724
0.00176949
-0.000297561
0.0033821
-0.00170194
0.000559234
-0.00793537
-0.0107887
-0.00569327
-0.00425173
-0.00384358
-0.00377466
-0.00380507
-0.00383365
-0.00381377
-0.00373208
-0.00359379
-0.00341239
-0.00321147
-0.00302363
-0.00286112
-0.00272706
-0.00261853
-0.00253142
-0.00246305
-0.00241146
-0.00237508
-0.00235241
-0.00234211
-0.00234352
-0.00235504
-0.00237427
-0.00239728
-0.00241733
-0.00242389
-0.00239896
-0.00231613
-0.00214233
-0.00183147
-0.00132158
-0.000546815
0.000483403
0.00136443
0.00106268
-0.000644798
)
;

boundaryField
{
    floor
    {
        type            calculated;
        value           nonuniform List<scalar> 
29
(
0
0
0
0
0
0
0
0
0
0
0
0
0
0
0
0
0
0
0
0
-4.02136e-06
-1.02247e-05
-1.54585e-05
-2.01376e-05
-1.66666e-06
-2.99402e-06
-8.72899e-06
-9.57717e-06
-8.39643e-06
)
;
    }
    ceiling
    {
        type            calculated;
        value           nonuniform List<scalar> 
43
(
-4.66621e-05
-4.53866e-05
-4.41158e-05
-2.28843e-05
-1.40903e-05
-9.21581e-06
-6.11571e-06
-3.82707e-06
-2.1123e-06
-8.09181e-07
2.77534e-07
1.21583e-06
2.03415e-06
2.73358e-06
3.30604e-06
3.76501e-06
4.13459e-06
4.43124e-06
4.66077e-06
4.82533e-06
4.93038e-06
4.98498e-06
4.99856e-06
4.97825e-06
4.92783e-06
4.85379e-06
4.76016e-06
4.64841e-06
4.51924e-06
4.37179e-06
4.21549e-06
4.05748e-06
3.90374e-06
3.76202e-06
3.64515e-06
3.57811e-06
3.69974e-06
4.18699e-06
5.54184e-06
6.48371e-06
1.02461e-05
7.20329e-06
-5.65855e-05
)
;
    }
    sWall
    {
        type            calculated;
        value           uniform -0.000271726;
    }
    nWall
    {
        type            calculated;
        value           nonuniform List<scalar> 6(-4.86808e-05 -5.82773e-05 -6.3459e-05 -7.83718e-05 -8.5714e-05 -9.20478e-05);
    }
    sideWalls
    {
        type            empty;
        value           nonuniform 0();
    }
    glass1
    {
        type            calculated;
        value           nonuniform List<scalar> 9(-5.7342e-05 -0.00015452 -0.000236415 -0.000306141 -0.000365339 -0.00041523 -0.000459823 -0.000513784 -0.000574177);
    }
    glass2
    {
        type            calculated;
        value           nonuniform List<scalar> 2(-0.000261239 -0.000289075);
    }
    sun
    {
        type            calculated;
        value           uniform 0;
    }
    heatsource1
    {
        type            calculated;
        value           nonuniform List<scalar> 3(2.04204e-07 2.04137e-07 2.04154e-07);
    }
    heatsource2
    {
        type            calculated;
        value           nonuniform List<scalar> 4(5.11942e-08 5.12789e-08 0 0);
    }
    Table_master
    {
        type            calculated;
        value           nonuniform List<scalar> 9(-1.53159e-07 -1.53248e-07 -1.53281e-07 -1.53303e-07 -1.53318e-07 -1.53329e-07 -1.53335e-07 -1.5333e-07 -1.53302e-07);
    }
    Table_slave
    {
        type            calculated;
        value           nonuniform List<scalar> 9(1.5304e-07 1.53062e-07 1.53043e-07 1.53028e-07 1.53021e-07 1.53024e-07 1.53038e-07 1.53078e-07 1.53156e-07);
    }
    inlet
    {
        type            calculated;
        value           uniform -0.00662866;
    }
    outlet
    {
        type            calculated;
        value           nonuniform List<scalar> 2(0.00825375 0.00289868);
    }
}


// ************************************************************************* //
