// -*- C++ -*-
// File generated by PyFoam - sorry for the ugliness

FoamFile
{
 version 2.0;
 format ascii;
 class volScalarField;
 location "1600";
 object T;
}

dimensions [ 0 0 0 1 0 0 0 ];

internalField nonuniform List<scalar> 459
(
  303.383
  303.12
  303.107
  303.103
  303.099
  303.095
  303.091
  303.085
  303.076
  303.065
  303.052
  303.042
  303.036
  303.034
  303.041
  303.128
  303.108
  303.1
  303.102
  303.106
  303.11
  303.114
  303.118
  303.122
  303.126
  303.13
  303.134
  303.138
  303.141
  303.145
  303.149
  303.154
  303.159
  303.179
  303.562
  303.162
  303.139
  303.142
  303.145
  303.145
  303.143
  303.136
  303.119
  303.094
  303.067
  303.043
  303.028
  303.021
  303.02
  303.017
  303.014
  303.13
  303.092
  303.086
  303.088
  303.092
  303.096
  303.098
  303.1
  303.101
  303.102
  303.103
  303.105
  303.106
  303.107
  303.11
  303.113
  303.12
  303.129
  303.162
  303.748
  303.212
  303.175
  303.187
  303.201
  303.213
  303.217
  303.21
  303.183
  303.139
  303.09
  303.051
  303.025
  303.015
  303.014
  303.016
  303.016
  303.082
  303.075
  303.078
  303.085
  303.095
  303.102
  303.102
  303.102
  303.102
  303.102
  303.102
  303.102
  303.103
  303.103
  303.103
  303.106
  303.111
  303.119
  303.154
  303.937
  303.274
  303.212
  303.231
  303.261
  303.29
  303.309
  303.303
  303.26
  303.189
  303.113
  303.056
  303.021
  303.009
  303.011
  303.016
  303.021
  303.031
  303.043
  303.06
  303.078
  303.096
  303.112
  303.125
  303.135
  303.144
  303.152
  303.159
  303.165
  303.17
  303.174
  303.176
  303.177
  303.156
  303.136
  303.127
  303.154
  304.121
  303.352
  303.251
  303.267
  303.31
  303.358
  303.399
  303.393
  303.329
  303.227
  303.124
  303.052
  303.013
  303.002
  303.007
  303.02
  303.033
  303.048
  303.066
  303.087
  303.109
  303.13
  303.149
  303.164
  303.178
  303.19
  303.2
  303.208
  303.213
  303.216
  303.215
  303.212
  303.204
  303.187
  303.161
  303.141
  303.151
  303.227
  303.272
  303.278
  304.286
  303.452
  303.316
  303.308
  303.349
  303.41
  303.473
  303.45
  303.357
  303.233
  303.118
  303.036
  302.996
  302.99
  303.006
  303.029
  303.053
  303.077
  303.103
  303.128
  303.153
  303.176
  303.195
  303.211
  303.224
  303.235
  303.244
  303.25
  303.254
  303.254
  303.249
  303.241
  303.229
  303.211
  303.185
  303.16
  303.155
  303.186
  303.203
  303.238
  304.435
  303.613
  303.469
  303.434
  303.453
  303.509
  303.535
  303.47
  303.338
  303.189
  303.066
  302.99
  302.964
  302.977
  303.011
  303.052
  303.091
  303.125
  303.155
  303.183
  303.207
  303.227
  303.244
  303.258
  303.269
  303.278
  303.284
  303.289
  303.29
  303.287
  303.279
  303.267
  303.252
  303.233
  303.209
  303.184
  303.171
  303.179
  303.189
  303.218
  304.653
  304.037
  303.873
  303.77
  303.722
  303.703
  303.603
  303.427
  303.227
  303.058
  302.95
  302.909
  302.925
  302.974
  303.039
  303.101
  303.151
  303.19
  303.219
  303.242
  303.262
  303.278
  303.291
  303.301
  303.309
  303.314
  303.318
  303.319
  303.318
  303.314
  303.307
  303.295
  303.279
  303.261
  303.243
  303.225
  303.218
  303.228
  303.247
  303.38
  304.963
  304.675
  304.41
  304.179
  303.991
  303.764
  303.429
  303.111
  302.885
  302.775
  302.763
  302.821
  302.918
  303.018
  303.114
  303.186
  303.229
  303.258
  303.279
  303.296
  303.31
  303.321
  303.33
  303.336
  303.341
  303.344
  303.345
  303.344
  303.342
  303.34
  303.338
  303.338
  303.34
  303.346
  303.36
  303.382
  303.413
  303.445
  303.47
  303.532
  297.021
  299.136
  300.244
  300.706
  301.154
  301.599
  302.01
  302.359
  302.639
  302.865
  303.058
  303.165
  303.231
  303.271
  303.296
  303.314
  303.328
  303.34
  303.349
  303.355
  303.361
  303.364
  303.367
  303.369
  303.37
  303.371
  303.372
  303.373
  303.374
  303.376
  303.38
  303.388
  303.4
  303.417
  303.439
  303.461
  303.482
  303.521
  297.457
  299.325
  300.267
  300.972
  301.575
  302.111
  302.517
  302.801
  302.999
  303.133
  303.22
  303.272
  303.306
  303.328
  303.343
  303.355
  303.364
  303.371
  303.376
  303.38
  303.383
  303.385
  303.387
  303.388
  303.389
  303.391
  303.392
  303.393
  303.394
  303.396
  303.4
  303.405
  303.413
  303.424
  303.438
  303.455
  303.474
  303.498
  299.531
  299.46
  299.456
  301.237
  302.101
  302.544
  302.794
  302.971
  303.099
  303.187
  303.25
  303.294
  303.323
  303.341
  303.354
  303.363
  303.369
  303.374
  303.378
  303.381
  303.384
  303.386
  303.388
  303.39
  303.391
  303.393
  303.395
  303.397
  303.398
  303.4
  303.402
  303.404
  303.406
  303.409
  303.414
  303.421
  303.43
  303.436
  303.491
  303.58
)
;

boundaryField
{
  floor
  {
    type wallHeatTransfer;
    Tinf uniform 305.2;
    alphaWall uniform 0.24;
    value nonuniform List<scalar> 29
(
  303.263
  303.528
  303.467
  303.432
  303.431
  303.441
  303.455
  303.474
  303.495
  303.516
  303.536
  303.555
  303.574
  303.592
  303.609
  303.626
  303.643
  303.662
  303.676
  303.716
  303.716
  303.618
  303.568
  303.54
  303.263
  303.528
  303.519
  303.338
  303.222
)
;
  }
  ceiling
  {
    type wallHeatTransfer;
    Tinf uniform 303.2;
    alphaWall uniform 0.24;
    value nonuniform List<scalar> 43
(
  299.785
  299.709
  299.697
  301.36
  302.176
  302.592
  302.825
  302.989
  303.107
  303.189
  303.246
  303.284
  303.308
  303.323
  303.332
  303.339
  303.343
  303.346
  303.349
  303.351
  303.353
  303.354
  303.356
  303.358
  303.361
  303.363
  303.365
  303.367
  303.37
  303.372
  303.375
  303.378
  303.381
  303.385
  303.39
  303.398
  303.406
  303.409
  303.457
  303.541
  304.881
  304.616
  297.807
)
;
  }
  sWall
  {
    type wallHeatTransfer;
    Tinf uniform 315.2;
    alphaWall uniform 0.36;
    value uniform 301.11;
  }
  nWall
  {
    type wallHeatTransfer;
    Tinf uniform 307.2;
    alphaWall uniform 0.36;
    value nonuniform List<scalar> 6
(
  304.004
  303.95
  303.876
  304.077
  304.049
  304.117
)
;
  }
  sideWalls
  {
    type empty;
  }
  glass1
  {
    type wallHeatTransfer;
    Tinf uniform 315.2;
    alphaWall uniform 4.3;
    value nonuniform List<scalar> 9
(
  311.493
  310.858
  310.456
  310.149
  309.893
  309.661
  309.48
  309.545
  309.768
)
;
  }
  glass2
  {
    type wallHeatTransfer;
    Tinf uniform 307.2;
    alphaWall uniform 4.3;
    value nonuniform List<scalar> 2
(
  305.765
  305.875
)
;
  }
  sun
  {
    type wallHeatTransfer;
    Tinf uniform 305.2;
    alphaWall uniform 0.24;
    value nonuniform List<scalar> 14
(
  303.577
  303.328
  303.313
  303.302
  303.293
  303.284
  303.274
  303.264
  303.253
  303.241
  303.231
  303.226
  303.228
  303.24
)
;
  }
  heatsource1
  {
    type fixedGradient;
    gradient uniform 0;
  }
  heatsource2
  {
    type fixedGradient;
    gradient uniform 0;
  }
  Table_master
  {
    type zeroGradient;
  }
  Table_slave
  {
    type zeroGradient;
  }
  inlet
  {
    type fixedValue;
    value uniform 293.15;
  }
  outlet
  {
    type zeroGradient;
  }
} 	// ************************************************************************* //

