/*--------------------------------*- C++ -*----------------------------------*\
  =========                 |
  \\      /  F ield         | OpenFOAM: The Open Source CFD Toolbox
   \\    /   O peration     | Website:  https://openfoam.org
    \\  /    A nd           | Version:  6
     \\/     M anipulation  |
\*---------------------------------------------------------------------------*/
FoamFile
{
    version     2.0;
    format      ascii;
    class       volScalarField;
    location    "900";
    object      nut;
}
// * * * * * * * * * * * * * * * * * * * * * * * * * * * * * * * * * * * * * //

dimensions      [0 2 -1 0 0 0 0];

internalField   nonuniform List<scalar> 
459
(
0.00101851
0.00110526
0.00112205
0.00117324
0.00122004
0.00126338
0.00130538
0.00134875
0.00138118
0.00139737
0.00139146
0.00135892
0.00129826
0.0012142
0.0011217
0.000440865
0.000528217
0.000587869
0.000581088
0.00055918
0.000532338
0.00050027
0.000468737
0.000440142
0.000414718
0.000392146
0.000372029
0.000354144
0.000338034
0.000323146
0.000308735
0.000293742
0.000286351
0.000264313
0.00140189
0.00319734
0.00298789
0.00346004
0.00390953
0.00436873
0.00478867
0.00509003
0.00537866
0.00562709
0.0057963
0.00584254
0.00570449
0.00525077
0.00399948
0.00113157
0.000629788
0.000469557
0.000915289
0.00122999
0.00145343
0.00157249
0.00157531
0.00130588
0.00114477
0.00102566
0.000932417
0.000857291
0.000795551
0.000741141
0.000690498
0.000642332
0.000600636
0.000561323
0.000679374
0.000363138
0.00172366
0.00434106
0.00359622
0.00454769
0.00495719
0.00525077
0.00547789
0.0056572
0.00587164
0.00610963
0.00634061
0.00652254
0.0066009
0.00652469
0.00614315
0.00482379
0.00109838
0.000912105
0.00123781
0.00152058
0.00177831
0.00196291
0.00194096
0.000707839
0.000633098
0.000571784
0.000521475
0.000479932
0.000445349
0.000416355
0.000392022
0.000371862
0.000398293
0.000453073
0.000765417
0.000428397
0.00203585
0.0056282
0.00351324
0.00475712
0.00509167
0.0051605
0.00519397
0.00527395
0.00544209
0.00567805
0.00595413
0.00622463
0.00642253
0.00651686
0.0064506
0.00603781
0.00446608
0.00130746
0.00154256
0.00189397
0.00224356
0.00253612
0.00273711
0.00263154
0.0007964
0.000736853
0.000695335
0.000664287
0.00063745
0.000611063
0.000585288
0.000557464
0.000524129
0.000492963
0.00049258
0.000894388
0.000479019
0.0023552
0.00732841
0.00380043
0.00449096
0.00498512
0.00493954
0.0048516
0.00488957
0.00506076
0.00530316
0.00560479
0.005913
0.00613132
0.0062166
0.0061583
0.00594117
0.00544208
0.00453876
0.00417926
0.00404809
0.00401066
0.00400818
0.00400496
0.00392393
0.00345321
0.0032409
0.00312691
0.0030342
0.00292038
0.00273772
0.00245688
0.00209799
0.00168837
0.00126959
0.000934461
0.000909439
0.00064346
0.000598358
0.00072023
0.000806827
0.00269404
0.00919596
0.00533041
0.00422343
0.00470594
0.00485945
0.00472096
0.00477281
0.00493925
0.00516937
0.00546469
0.00576959
0.00599176
0.0060509
0.00592524
0.00566409
0.00536314
0.00511429
0.00501617
0.00497372
0.00492034
0.00484995
0.00476314
0.00464854
0.00447354
0.00432026
0.00417872
0.00403073
0.00386607
0.00367576
0.0034059
0.00303821
0.00257172
0.00203424
0.00153537
0.0011105
0.000868257
0.000753118
0.00108316
0.000842027
0.00301833
0.0105812
0.00788555
0.00539054
0.00485051
0.00496909
0.00497085
0.00496173
0.00502711
0.00521544
0.00550837
0.00582083
0.00603567
0.00605533
0.00585744
0.00552706
0.00525027
0.0051875
0.00527488
0.00531417
0.00523697
0.00507414
0.00486527
0.00464674
0.00444586
0.00427871
0.00412756
0.00397832
0.00382849
0.00368325
0.00354347
0.00330733
0.00293708
0.0024682
0.0020041
0.00156246
0.00126379
0.00117903
0.00121704
0.000952064
0.00309219
0.00976646
0.00836436
0.00724219
0.00644737
0.00597745
0.00549471
0.00520136
0.00517463
0.00537955
0.00571572
0.00604366
0.00622123
0.00615112
0.00583893
0.00542813
0.00518308
0.00524234
0.00531882
0.00518918
0.00492052
0.00459825
0.00429117
0.00404129
0.00385598
0.0037162
0.0035986
0.00349411
0.0034061
0.0033448
0.00332283
0.0033202
0.00310888
0.00279302
0.00250603
0.00235898
0.00246745
0.00288782
0.00359533
0.00149627
0.00302182
0.003622
0.00410287
0.00427748
0.00431702
0.00432088
0.00443571
0.00471879
0.00515416
0.00566984
0.00614493
0.00644495
0.00646275
0.0061543
0.00562113
0.00518992
0.00502126
0.00492463
0.00470617
0.00435479
0.00396743
0.00362667
0.00336787
0.00318591
0.00305677
0.00295538
0.00286482
0.0027769
0.00268747
0.00259295
0.00249013
0.00238177
0.00229088
0.00222406
0.0022032
0.00222132
0.00221674
0.00213186
0.00199292
0.00139982
0.00191939
0.00335906
0.00433031
0.00503297
0.00562766
0.00615094
0.00659756
0.00692104
0.00701338
0.00680345
0.00628941
0.00554953
0.0048014
0.00437505
0.00411703
0.00380147
0.00342275
0.00305165
0.00275663
0.00255036
0.00241479
0.00232551
0.00226326
0.00221592
0.00217733
0.00214525
0.00211979
0.00210283
0.00209917
0.00211561
0.00213946
0.00216986
0.00220045
0.00220622
0.00214579
0.00200383
0.00179659
0.00114519
0.00217666
0.0044286
0.00571026
0.00629927
0.00674792
0.00692057
0.00692897
0.00680124
0.00624758
0.00533203
0.00437969
0.00364734
0.00315333
0.00280366
0.00246529
0.00215093
0.00191299
0.00176032
0.00166495
0.00161225
0.0015914
0.00159244
0.00160968
0.00164024
0.00168259
0.00173554
0.0017972
0.00186398
0.00194137
0.00202853
0.00212403
0.00222291
0.00231143
0.00237182
0.00236021
0.00238089
0.00232558
0.00116261
0.00187129
0.00197039
0.00204593
0.00211923
0.00190721
0.00170658
0.00156794
0.00147876
0.001374
0.00124087
0.00109091
0.000934439
0.000783903
0.000664788
0.000585866
0.000540101
0.000517119
0.000509112
0.000510912
0.000519329
0.000532458
0.00054899
0.000568118
0.000589685
0.000613684
0.000640217
0.000669502
0.000701915
0.00073811
0.000779233
0.000825193
0.000875956
0.000932209
0.000994672
0.00106354
0.00114713
0.00117588
0.00114801
0.00107429
0.000996509
)
;

boundaryField
{
    floor
    {
        type            nutkWallFunction;
        Cmu             0.09;
        kappa           0.41;
        E               9.8;
        value           nonuniform List<scalar> 
29
(
0.000134948
5.20932e-05
6.33045e-05
7.08267e-05
6.99761e-05
6.72208e-05
6.38267e-05
5.97442e-05
5.5698e-05
5.19993e-05
4.86852e-05
4.57212e-05
4.30613e-05
4.06809e-05
3.85235e-05
3.65179e-05
3.45648e-05
3.25203e-05
3.15073e-05
2.84656e-05
2.84655e-05
4.188e-05
5.04717e-05
5.70215e-05
0.000134948
5.20932e-05
5.58039e-05
0.000110327
0.000156328
)
;
    }
    ceiling
    {
        type            nutkWallFunction;
        Cmu             0.09;
        kappa           0.41;
        E               9.8;
        value           nonuniform List<scalar> 
43
(
0.000219206
0.000230036
0.000238254
0.000246286
0.000223246
0.000201167
0.00018574
0.000175736
0.000163897
0.000148703
0.000131363
0.000112977
9.49466e-05
8.03901e-05
7.0575e-05
6.48108e-05
6.18941e-05
6.08744e-05
6.11042e-05
6.21762e-05
6.38439e-05
6.59366e-05
6.83482e-05
7.10555e-05
7.4054e-05
7.73527e-05
8.09742e-05
8.49607e-05
8.93864e-05
9.43837e-05
9.99321e-05
0.000106019
0.000112715
0.000120097
0.000128175
0.0001379
0.000141225
0.000138002
0.000129431
0.000120314
0.000342397
0.000404454
0.000252304
)
;
    }
    sWall
    {
        type            nutkWallFunction;
        Cmu             0.09;
        kappa           0.41;
        E               9.8;
        value           uniform 0.000219267;
    }
    nWall
    {
        type            nutkWallFunction;
        Cmu             0.09;
        kappa           0.41;
        E               9.8;
        value           nonuniform List<scalar> 6(9.772e-05 0.000101957 0.000115071 0.000137685 0.000139702 0.00012032);
    }
    sideWalls
    {
        type            empty;
    }
    glass1
    {
        type            nutkWallFunction;
        Cmu             0.09;
        kappa           0.41;
        E               9.8;
        value           nonuniform List<scalar> 9(0.000122983 0.000167271 0.000203376 0.000237702 0.00027223 0.000308328 0.000342433 0.000350155 0.000342823);
    }
    glass2
    {
        type            nutkWallFunction;
        Cmu             0.09;
        kappa           0.41;
        E               9.8;
        value           nonuniform List<scalar> 2(0.000177797 0.000166903);
    }
    sun
    {
        type            nutkWallFunction;
        Cmu             0.09;
        kappa           0.41;
        E               9.8;
        value           nonuniform List<scalar> 
14
(
0.000122901
0.000133036
0.000134988
0.000140917
0.000146312
0.000151288
0.000156091
0.000161034
0.000164719
0.000166554
0.000165884
0.000162189
0.000155278
0.00014564
)
;
    }
    heatsource1
    {
        type            nutkWallFunction;
        Cmu             0.09;
        kappa           0.41;
        E               9.8;
        value           nonuniform List<scalar> 3(7.21426e-05 8.72038e-05 9.77191e-05);
    }
    heatsource2
    {
        type            nutkWallFunction;
        Cmu             0.09;
        kappa           0.41;
        E               9.8;
        value           nonuniform List<scalar> 4(0.000136088 7.60621e-05 7.60621e-05 0.00013223);
    }
    Table_master
    {
        type            nutkWallFunction;
        Cmu             0.09;
        kappa           0.41;
        E               9.8;
        value           nonuniform List<scalar> 9(8.56858e-05 7.64696e-05 6.88111e-05 6.24523e-05 5.71444e-05 5.26822e-05 4.89076e-05 4.57142e-05 4.30494e-05);
    }
    Table_slave
    {
        type            nutkWallFunction;
        Cmu             0.09;
        kappa           0.41;
        E               9.8;
        value           nonuniform List<scalar> 9(9.64579e-05 8.92316e-05 8.41525e-05 8.03306e-05 7.70097e-05 7.37281e-05 7.0506e-05 6.70083e-05 6.27894e-05);
    }
    inlet
    {
        type            calculated;
        value           uniform 0.000100623;
    }
    outlet
    {
        type            calculated;
        value           nonuniform List<scalar> 2(0.00187129 0.00197039);
    }
}


// ************************************************************************* //
