/*--------------------------------*- C++ -*----------------------------------*\
  =========                 |
  \\      /  F ield         | OpenFOAM: The Open Source CFD Toolbox
   \\    /   O peration     | Website:  https://openfoam.org
    \\  /    A nd           | Version:  6
     \\/     M anipulation  |
\*---------------------------------------------------------------------------*/
FoamFile
{
    version     2.0;
    format      ascii;
    class       surfaceScalarField;
    location    "900";
    object      phi;
}
// * * * * * * * * * * * * * * * * * * * * * * * * * * * * * * * * * * * * * //

dimensions      [1 0 -1 0 0 0 0];

internalField   nonuniform List<scalar> 
852
(
-0.00293394
0.00299192
-0.00392712
0.000993186
-0.00471688
0.000789771
-0.0053527
0.000635823
-0.00580208
0.00044938
-0.00603959
0.000237522
-0.00603815
-1.4423e-06
-0.00576999
-0.000268155
-0.00523169
-0.00053829
-0.00446444
-0.000767246
-0.00354828
-0.000916157
-0.00258287
-0.00096541
-0.00166079
-0.000922068
-0.000824131
-0.000836657
-0.000822457
-0.000732616
0.000735756
-0.000421168
-0.00031144
0.000188061
-0.000609221
0.000661982
-0.000473913
0.000973197
-0.000311207
0.0011651
-0.000191899
0.00126811
-0.000102997
0.00131824
-5.01187e-05
0.00134571
-2.74642e-05
0.00136177
-1.60506e-05
0.00136986
-8.08291e-06
0.00137122
-1.34729e-06
0.0013643
6.92738e-06
0.00134148
2.283e-05
0.00128189
5.96021e-05
0.00115101
0.000130887
0.000939244
0.000211777
0.000697071
0.000242184
0.000701307
-0.00210198
0.00524996
-0.00309504
0.00198625
-0.00392064
0.00161537
-0.00455293
0.00126812
-0.00499806
0.000894522
-0.00524184
0.000481308
-0.00525479
1.15064e-05
-0.00500973
-0.00051321
-0.00451199
-0.00103603
-0.00381507
-0.00146416
-0.00300347
-0.00172775
-0.00216937
-0.00179951
-0.00139729
-0.00169414
-0.000787182
-0.00144676
-0.000524156
-0.00108548
-2.09266e-05
-0.000503275
-2.0972e-05
0.000376556
0.000368216
0.000774536
-0.000709413
0.00100872
-0.000843397
0.00121129
-0.000676477
0.0013661
-0.000466005
0.00145816
-0.000283955
0.00147131
-0.000116137
0.00147509
-5.38898e-05
0.0014798
-3.21695e-05
0.00148381
-2.00512e-05
0.00148654
-1.07992e-05
0.00148792
-2.72216e-06
0.00148721
7.65152e-06
0.00148112
2.89305e-05
0.00144186
9.8874e-05
0.00127431
0.000298439
0.000983112
0.000502988
0.000620661
0.000604645
0.00133256
-0.00148168
0.00697008
-0.00235251
0.00285709
-0.00309461
0.00235747
-0.00364276
0.00181628
-0.00403899
0.00129076
-0.00426687
0.000709191
-0.00428076
2.54013e-05
-0.00403513
-0.000758832
-0.00355039
-0.00152077
-0.00290238
-0.00211217
-0.00218049
-0.00244963
-0.00146576
-0.00251425
-0.000820008
-0.00233989
-0.000305125
-0.00196164
4.39483e-05
-0.00143455
0.000271604
-0.000730926
0.000250637
0.00149254
-0.0011147
0.00170996
-0.000926818
0.00166989
-0.000803328
0.00166043
-0.000667009
0.00168208
-0.000487649
0.00169841
-0.000300274
0.00158244
0.00152871
0.0014967
0.00147681
0.00146617
0.00146362
0.00147143
0.00150052
0.00159956
0.00132429
0.000573717
0.000984307
0.000842984
0.000549784
0.00103918
0.0018983
-0.00104404
0.00832239
-0.00175002
0.00356308
-0.00225368
0.00286113
-0.00262747
0.00219007
-0.00291073
0.00157402
-0.00308133
0.000879797
-0.00305717
1.24067e-06
-0.00277183
-0.00104416
-0.00229021
-0.00200239
-0.00171215
-0.00269022
-0.00111869
-0.0030431
-0.000567201
-0.00306573
-8.49194e-05
-0.00282217
0.000318262
-0.00236482
0.000662128
-0.00177841
0.00105811
-0.0011269
0.00185846
-0.00054971
0.00237416
-0.000506944
0.00197537
-0.000715907
0.00186474
-0.000816181
0.0017718
-0.000710378
0.00169026
-0.000585459
0.00165108
-0.000448468
0.00164459
-0.000293771
0.00177974
-0.000135294
0.00187525
-9.56525e-05
0.00195694
-8.18352e-05
0.00202294
-6.61457e-05
0.00205752
-3.47253e-05
0.00203761
1.97699e-05
0.00193757
9.99027e-05
0.00172481
0.000212614
0.00134526
0.000379405
0.00118337
0.000735622
0.000861558
0.0011648
0.000369217
0.00153153
0.00228828
-0.000734023
0.00942374
-0.00128362
0.00411268
-0.00141665
0.00299418
-0.00153327
0.00230669
-0.00162909
0.00166985
-0.00167556
0.000926273
-0.00153788
-0.00013643
-0.00118129
-0.00140075
-0.000730397
-0.00245328
-0.000279856
-0.00314076
0.000118457
-0.00344142
0.000442545
-0.00338982
0.000691671
-0.00307129
0.00089617
-0.00256931
0.00108891
-0.00197114
0.00132465
-0.00136264
0.00164295
-0.000867997
0.00178976
-0.000653754
0.00172062
-0.000646755
0.00156156
-0.000657122
0.00143278
-0.000581592
0.00133164
-0.000484309
0.00126967
-0.000386487
0.00126171
-0.000285803
0.0013294
-0.000202972
0.00140338
-0.00016962
0.00148006
-0.00015851
0.00155438
-0.000140456
0.00161437
-9.4704e-05
0.00163882
-4.66077e-06
0.0016062
0.000132529
0.00150605
0.000312778
0.00134038
0.00054509
0.00118507
0.000890943
0.00100888
0.00134101
0.000630245
0.00191017
0.000489571
0.00242896
-0.00102767
0.00151705
-0.00148935
0.000461487
-0.00143995
-0.000638153
0.0104789
-0.00102806
0.00450259
-0.000651269
0.00261739
-0.000406313
0.00206174
-0.000250449
0.00151399
-5.62426e-05
0.000732074
0.000297422
-0.000490087
0.00070992
-0.00181324
0.00105771
-0.00280107
0.00129607
-0.00337913
0.00142167
-0.00356702
0.00145957
-0.00342771
0.00143658
-0.00304831
0.00138453
-0.00251726
0.00133723
-0.00192383
0.00132384
-0.00134924
0.0013446
-0.000888757
0.00131495
-0.00062409
0.00119731
-0.000529112
0.00102865
-0.000488453
0.000884384
-0.000437315
0.000781616
-0.000381532
0.000725277
-0.000330138
0.000722381
-0.000282896
0.000769095
-0.000249676
0.000840108
-0.000240622
0.000923284
-0.000241674
0.00101326
-0.000230425
0.00110369
-0.000185118
0.00118255
-8.35081e-05
0.00123067
8.44221e-05
0.00124395
0.000299506
0.00123298
0.000556081
0.00124461
0.00087932
0.00132611
0.00125952
0.00149195
0.00174435
0.00192273
0.00199819
0.00217328
0.00126651
0.00177971
0.000855069
0.000399143
-0.000754229
0.0116941
-0.000662538
0.0044109
0.000375508
0.00157936
0.000949942
0.00148731
0.00134726
0.00111669
0.00186353
0.000215803
0.00242569
-0.00105224
0.00279214
-0.00217969
0.00293819
-0.00294712
0.00288637
-0.00332731
0.00268016
-0.00336081
0.00237442
-0.00312197
0.002021
-0.00269488
0.0016639
-0.00216016
0.00134069
-0.00160061
0.00107143
-0.00107998
0.000864798
-0.000682117
0.000689939
-0.000449223
0.000516987
-0.000356151
0.000353946
-0.000325403
0.000225041
-0.0003084
0.000138979
-0.00029546
9.55729e-05
-0.00028672
9.45591e-05
-0.000281871
0.000129414
-0.000284519
0.000186059
-0.000297255
0.000255582
-0.000311185
0.000337491
-0.000312321
0.000436469
-0.000284084
0.000557444
-0.000204471
0.000686545
-4.46661e-05
0.000812254
0.000173809
0.000945839
0.000422509
0.00112854
0.000696636
0.00140807
0.000979995
0.00185157
0.00130087
0.00252132
0.00132845
0.00306254
0.000725313
0.00309134
0.000826272
0.00355505
0.00255095
0.0096578
0.00319166
0.0037702
0.00327579
0.00149523
0.0035813
0.0011818
0.00405167
0.000646321
0.00466425
-0.000396766
0.00505915
-0.00144714
0.00509605
-0.00221659
0.00481503
-0.0026661
0.00430045
-0.00281274
0.00364165
-0.00270202
0.00292227
-0.0024026
0.00220793
-0.00198054
0.00154251
-0.00149473
0.00096879
-0.00102689
0.000498166
-0.000609345
0.000156704
-0.000340645
-7.79312e-05
-0.000214578
-0.000247499
-0.000186573
-0.000376826
-0.000196065
-0.000473436
-0.000211779
-0.000540483
-0.000228402
-0.000581347
-0.000245845
-0.000598812
-0.000264393
-0.000598034
-0.000285285
-0.000587044
-0.000308233
-0.000570252
-0.000327964
-0.000545987
-0.000336573
-0.000505312
-0.000324746
-0.000428329
-0.00028144
-0.000282496
-0.000190486
-8.93408e-05
-1.93326e-05
0.000131533
0.000201649
0.000406136
0.000422046
0.000747159
0.000638984
0.00119884
0.000849194
0.00168841
0.000838891
0.0018838
0.000529941
0.00110676
0.00160332
0.00492586
0.0102222
0.0139852
0.0121423
0.00333814
0.0110261
0.00229792
0.0102392
0.00143329
0.00947365
0.000368763
0.00849158
-0.000465078
0.00734711
-0.00107213
0.00613519
-0.0014542
0.00491139
-0.00158895
0.0037218
-0.00151243
0.00261632
-0.00129712
0.00162974
-0.000993957
0.000766615
-0.000631588
6.71918e-05
-0.000327457
-0.000423566
-0.000118575
-0.000712347
-5.18535e-05
-0.000880387
-4.6527e-05
-0.00099728
-6.96681e-05
-0.00109214
-0.000101192
-0.00117276
-0.000131148
-0.00124257
-0.000158577
-0.0013044
-0.000184004
-0.0013613
-0.000207478
-0.00141798
-0.00022859
-0.00148097
-0.000245234
-0.0015567
-0.000252216
-0.00165194
-0.000241328
-0.00177539
-0.000201278
-0.00193868
-0.000118134
-0.00215019
2.10326e-05
-0.00239333
0.000223818
-0.00269599
0.000504328
-0.00315317
0.000879233
-0.00386006
0.00134589
-0.00488098
0.00187013
-0.00632997
0.00228789
-0.00807345
0.00227344
-0.0075625
0.00109238
-0.00234378
0.00518047
0.00474892
0.00436276
0.00311558
0.00496061
0.000835383
0.00511136
0.000217957
0.0047769
-0.000130662
0.00417123
-0.000466498
0.00339551
-0.000678487
0.00250549
-0.000698933
0.00157183
-0.000578761
0.00066424
-0.000389521
-0.000159149
-0.000170553
-0.000809185
1.8462e-05
-0.00122247
8.58459e-05
-0.00143503
9.39904e-05
-0.0015516
6.47287e-05
-0.0016283
3.01911e-05
-0.00169648
-1.48201e-06
-0.00176733
-3.0323e-05
-0.00184224
-5.62313e-05
-0.0019218
-7.89981e-05
-0.00200697
-9.88198e-05
-0.00209927
-0.000115167
-0.00220072
-0.000127123
-0.00231328
-0.000132669
-0.00243749
-0.000127989
-0.00257151
-0.0001073
-0.00270981
-6.29617e-05
-0.00284225
1.43153e-05
-0.00295614
0.00013494
-0.00305015
0.000317841
-0.00313471
0.000588893
-0.00321887
0.000963406
-0.00330261
0.00142965
-0.00334032
0.00190785
-0.00327275
0.00222033
-0.00292643
0.00192713
-0.00164369
-0.000190342
-0.00391043
-0.000489203
0.00529101
0.00095433
0.00167201
0.00117663
0.00061305
0.00116518
0.000229378
0.00101101
2.34983e-05
0.000647804
-0.000103287
9.69351e-05
-0.000127607
-0.000547693
-5.42819e-05
-0.0011628
3.63661e-05
-0.0016558
0.000103488
-0.00196809
0.000141753
-0.00210294
0.000153328
-0.00215207
0.000134985
-0.00216653
0.00010846
-0.00217998
7.81941e-05
-0.00220078
5.10096e-05
-0.00223015
2.78969e-05
-0.00226938
8.91762e-06
-0.00231859
-7.007e-06
-0.00237704
-2.05274e-05
-0.00244392
-3.19324e-05
-0.00251805
-4.10209e-05
-0.00259779
-4.73692e-05
-0.00268049
-4.99577e-05
-0.00276164
-4.68219e-05
-0.00283405
-3.48819e-05
-0.00288706
-9.94102e-06
-0.00290763
3.49062e-05
-0.0028818
0.000109118
-0.00278621
0.000222265
-0.00258754
0.000390239
-0.00225845
0.000634322
-0.00178622
0.000957431
-0.00115028
0.00127192
-0.000166713
0.00123677
0.00116574
0.000594687
0.00158464
-0.000609234
-0.00224116
-0.00809392
-0.0108803
-0.00554598
-0.00385004
-0.00322057
-0.00297925
-0.00294714
-0.00304426
-0.00316762
-0.00321916
-0.00318114
-0.0030768
-0.00293487
-0.00278192
-0.00264771
-0.00254034
-0.00246345
-0.00241389
-0.00238755
-0.00238027
-0.00238896
-0.00241121
-0.00244488
-0.00248766
-0.00253679
-0.00258851
-0.00263708
-0.0026737
-0.00268535
-0.00265211
-0.00254463
-0.00232397
-0.00193531
-0.00130256
-0.000346704
0.00092356
0.00215855
0.0027513
0.00213999
)
;

boundaryField
{
    floor
    {
        type            calculated;
        value           nonuniform List<scalar> 
29
(
0
0
0
0
0
0
0
0
0
0
0
0
0
0
0
0
0
0
0
0
-4.22466e-06
-1.0583e-05
-1.59409e-05
-2.07524e-05
-1.66854e-06
-3.13216e-06
-9.00844e-06
-9.6219e-06
-8.7488e-06
)
;
    }
    ceiling
    {
        type            calculated;
        value           nonuniform List<scalar> 
43
(
-4.59004e-05
-4.4614e-05
-4.33262e-05
-2.39153e-05
-1.64041e-05
-1.19206e-05
-8.5928e-06
-6.15165e-06
-4.2279e-06
-2.72451e-06
-1.65027e-06
-8.34637e-07
-1.6012e-07
3.82278e-07
7.94981e-07
1.09861e-06
1.31569e-06
1.46744e-06
1.57281e-06
1.64598e-06
1.69655e-06
1.73155e-06
1.75555e-06
1.76996e-06
1.77563e-06
1.77318e-06
1.76305e-06
1.74547e-06
1.72039e-06
1.68707e-06
1.65063e-06
1.617e-06
1.59076e-06
1.5782e-06
1.59062e-06
1.66832e-06
1.7974e-06
1.9409e-06
2.09482e-06
3.01227e-06
1.03502e-05
7.24572e-06
-5.29116e-05
)
;
    }
    sWall
    {
        type            calculated;
        value           uniform -0.000267136;
    }
    nWall
    {
        type            calculated;
        value           nonuniform List<scalar> 6(-4.95889e-05 -5.93778e-05 -6.45511e-05 -7.70235e-05 -8.46177e-05 -0.000104168);
    }
    sideWalls
    {
        type            empty;
        value           nonuniform 0();
    }
    glass1
    {
        type            calculated;
        value           nonuniform List<scalar> 9(-5.79815e-05 -0.000156057 -0.000238437 -0.000308266 -0.000367326 -0.000416987 -0.000461007 -0.000514626 -0.000574752);
    }
    glass2
    {
        type            calculated;
        value           nonuniform List<scalar> 2(-0.000264035 -0.000292858);
    }
    sun
    {
        type            calculated;
        value           uniform 0;
    }
    heatsource1
    {
        type            calculated;
        value           nonuniform List<scalar> 3(2.04297e-07 2.04235e-07 2.0425e-07);
    }
    heatsource2
    {
        type            calculated;
        value           nonuniform List<scalar> 4(5.11796e-08 5.12981e-08 0 0);
    }
    Table_master
    {
        type            calculated;
        value           nonuniform List<scalar> 9(-1.53215e-07 -1.53288e-07 -1.53316e-07 -1.53335e-07 -1.53349e-07 -1.53359e-07 -1.53363e-07 -1.53359e-07 -1.5333e-07);
    }
    Table_slave
    {
        type            calculated;
        value           nonuniform List<scalar> 9(1.53101e-07 1.53109e-07 1.53084e-07 1.53064e-07 1.53055e-07 1.5306e-07 1.53074e-07 1.53116e-07 1.53199e-07);
    }
    inlet
    {
        type            calculated;
        value           uniform -0.00659127;
    }
    outlet
    {
        type            calculated;
        value           nonuniform List<scalar> 2(0.00840696 0.00283101);
    }
}


// ************************************************************************* //
