/*--------------------------------*- C++ -*----------------------------------*\
  =========                 |
  \\      /  F ield         | OpenFOAM: The Open Source CFD Toolbox
   \\    /   O peration     | Website:  https://openfoam.org
    \\  /    A nd           | Version:  6
     \\/     M anipulation  |
\*---------------------------------------------------------------------------*/
FoamFile
{
    version     2.0;
    format      ascii;
    class       volScalarField;
    location    "900";
    object      nut;
}
// * * * * * * * * * * * * * * * * * * * * * * * * * * * * * * * * * * * * * //

dimensions      [0 2 -1 0 0 0 0];

internalField   nonuniform List<scalar> 
459
(
0.00112011
0.0012265
0.00125431
0.00131638
0.00137488
0.00143158
0.00149038
0.00153744
0.00156422
0.00156391
0.00153185
0.00146463
0.00135547
0.0011716
0.000911232
0.000492917
0.000583678
0.0006684
0.000696946
0.000687414
0.000663898
0.000622145
0.000578218
0.000538328
0.00050326
0.000472535
0.000445545
0.000421684
0.00040053
0.000381261
0.000362914
0.000344207
0.000330581
0.000301323
0.0015088
0.00370256
0.00355386
0.00412894
0.00470207
0.00525115
0.00566367
0.00603272
0.00635352
0.00659198
0.00671852
0.00670973
0.00653045
0.00607698
0.00488651
0.0011534
0.000817369
0.000496217
0.00116212
0.0017116
0.00215624
0.00243277
0.00242994
0.0018058
0.00151625
0.00132049
0.00117529
0.00106295
0.000973335
0.0008998
0.000831353
0.000763641
0.000701953
0.000649488
0.000759339
0.000383775
0.00182854
0.0050149
0.00436607
0.00530723
0.00574926
0.0060788
0.00633623
0.00661062
0.00691376
0.00722194
0.00749447
0.00769388
0.0077577
0.00758497
0.00694535
0.00507725
0.00119037
0.000846488
0.00138041
0.0019704
0.00258628
0.00304843
0.00297951
0.000873848
0.000763731
0.000675222
0.000604258
0.000546945
0.000500196
0.00046174
0.000430309
0.00040554
0.000444785
0.00052327
0.000874196
0.000442817
0.0021325
0.00632724
0.00436185
0.00550611
0.00577064
0.0058635
0.00598741
0.00619275
0.00648151
0.00683671
0.0072003
0.00751914
0.00770578
0.00773386
0.00753452
0.00674036
0.00402066
0.00137029
0.00166509
0.00224289
0.00296804
0.00366433
0.00414398
0.00389808
0.000993512
0.000901847
0.000835656
0.000784159
0.000739428
0.000698952
0.000659562
0.000618123
0.000570437
0.000529435
0.000547294
0.00102814
0.00048888
0.00244101
0.00802109
0.00471725
0.00535449
0.00566664
0.00564124
0.00568661
0.00585405
0.0061271
0.00650623
0.0069017
0.00722635
0.0074126
0.00744824
0.00735701
0.00708651
0.00633546
0.00558156
0.00540682
0.00552682
0.00574748
0.00593273
0.00598876
0.00575476
0.00474053
0.00423567
0.00393009
0.00369292
0.00345424
0.00312768
0.00272061
0.00225233
0.00175465
0.00128789
0.000959894
0.00101887
0.000664363
0.000600562
0.000722654
0.000813408
0.00276899
0.00989014
0.00637129
0.00540269
0.00576803
0.00571288
0.00571119
0.00579845
0.00602089
0.00638372
0.00679704
0.00713029
0.00728741
0.00726041
0.00713883
0.00704763
0.00703933
0.00714079
0.00732749
0.00747236
0.00750377
0.00741227
0.00720275
0.00685986
0.00633655
0.00586559
0.00546024
0.00508819
0.00472385
0.00433202
0.00387168
0.00333323
0.00272513
0.00209625
0.00157729
0.00120781
0.000934341
0.000806196
0.00114642
0.000854373
0.00307118
0.0112072
0.00889052
0.00684049
0.00658033
0.00625186
0.00596553
0.00589683
0.00608613
0.00647592
0.00692602
0.00726808
0.0073907
0.0073042
0.00716673
0.00722244
0.00759025
0.00806797
0.00838467
0.00845074
0.00829735
0.00798719
0.00756667
0.00706138
0.00649697
0.00595735
0.00546799
0.00502515
0.00462852
0.00428445
0.00399206
0.00362388
0.00315333
0.00260675
0.00210886
0.0016862
0.00139061
0.00133321
0.00138241
0.00100576
0.00313292
0.00997706
0.00877803
0.0079619
0.00716487
0.0063692
0.00592952
0.00591434
0.00625041
0.00678229
0.00730445
0.00762526
0.00766141
0.0074958
0.00740085
0.0076929
0.00828278
0.00866343
0.00872798
0.00853252
0.00813516
0.00759388
0.00695668
0.00627554
0.00561628
0.00503704
0.00455221
0.00415959
0.00385977
0.00365429
0.0035399
0.00347808
0.00328272
0.00296451
0.00271128
0.00262518
0.00281954
0.00331289
0.00397354
0.00152456
0.00305494
0.0036324
0.00407148
0.00413999
0.00422575
0.00451669
0.00506701
0.00584742
0.00672743
0.00751462
0.00801409
0.00810156
0.00785131
0.00760752
0.00775663
0.00806275
0.00827985
0.00827398
0.00802744
0.00757809
0.00697287
0.00625822
0.0054988
0.00477878
0.00416756
0.00368998
0.0033308
0.00306474
0.00286826
0.00271979
0.00260078
0.00250372
0.00243396
0.00238752
0.00237424
0.00238014
0.00234478
0.00222191
0.00205881
0.0014156
0.0017052
0.0031299
0.00497528
0.00645314
0.00759562
0.00843868
0.00889989
0.00896185
0.00865142
0.00806297
0.00747142
0.00719951
0.0072508
0.0072929
0.00716015
0.00683137
0.00632779
0.00569275
0.00499169
0.0043047
0.00370125
0.00321931
0.00286239
0.00261501
0.00244967
0.00234432
0.00228329
0.00225607
0.00225916
0.00228599
0.00232387
0.00236683
0.0024037
0.00240789
0.00234179
0.00220489
0.00198888
0.00116854
0.00207107
0.00482723
0.00696322
0.00797173
0.00855772
0.00853659
0.00807055
0.0073729
0.00665611
0.00608913
0.00570791
0.00549547
0.00533231
0.00510701
0.00479496
0.00439895
0.00394011
0.00346601
0.0030347
0.00268666
0.00243139
0.00225615
0.00214145
0.00206668
0.00202274
0.00201005
0.00202461
0.00206205
0.00212289
0.00220418
0.0023016
0.00240523
0.00249571
0.00256173
0.00253436
0.00255294
0.0025077
0.00118898
0.00179947
0.00189389
0.00196203
0.00204296
0.00188189
0.00177412
0.00170753
0.00161651
0.0014908
0.00134953
0.00120917
0.00108298
0.000981294
0.000905876
0.000849393
0.000803713
0.000763532
0.000726487
0.000692825
0.000664332
0.000642775
0.000628929
0.000622624
0.000623364
0.000630867
0.000645034
0.00066612
0.000693478
0.000727396
0.000768527
0.000816129
0.000870202
0.000931121
0.000999152
0.00107307
0.00116716
0.00118427
0.00114661
0.00107664
0.000996989
)
;

boundaryField
{
    floor
    {
        type            nutkWallFunction;
        Cmu             0.09;
        kappa           0.41;
        E               9.8;
        value           nonuniform List<scalar> 
29
(
0.000110221
5.88066e-05
7.03041e-05
8.08405e-05
8.43541e-05
8.31835e-05
8.02864e-05
7.5111e-05
6.96204e-05
6.45902e-05
6.01302e-05
5.61908e-05
5.27037e-05
4.95989e-05
4.68276e-05
4.4287e-05
4.18527e-05
3.93541e-05
3.75229e-05
3.3557e-05
3.3557e-05
4.46172e-05
5.23468e-05
5.82866e-05
0.000110221
5.88066e-05
5.92279e-05
0.000102486
0.000163479
)
;
    }
    ceiling
    {
        type            nutkWallFunction;
        Cmu             0.09;
        kappa           0.41;
        E               9.8;
        value           nonuniform List<scalar> 
43
(
0.000211317
0.000221679
0.000229124
0.00023803
0.000220492
0.000208655
0.000201296
0.000191182
0.000177106
0.000161127
0.000145066
0.000130447
0.000118525
0.000109592
0.000102846
9.73508e-05
9.24868e-05
8.79753e-05
8.38518e-05
8.03424e-05
7.76751e-05
7.59558e-05
7.51708e-05
7.52619e-05
7.61938e-05
7.79505e-05
8.0557e-05
8.3925e-05
8.80787e-05
9.30853e-05
9.88404e-05
0.00010533
0.000112586
0.000120625
0.000129288
0.000140219
0.000142195
0.000137841
0.000129706
0.000120371
0.000345842
0.000405504
0.000240856
)
;
    }
    sWall
    {
        type            nutkWallFunction;
        Cmu             0.09;
        kappa           0.41;
        E               9.8;
        value           uniform 0.000211376;
    }
    nWall
    {
        type            nutkWallFunction;
        Cmu             0.09;
        kappa           0.41;
        E               9.8;
        value           nonuniform List<scalar> 6(9.85132e-05 0.000103437 0.000121407 0.000140391 0.000142751 0.000120377);
    }
    sideWalls
    {
        type            empty;
    }
    glass1
    {
        type            nutkWallFunction;
        Cmu             0.09;
        kappa           0.41;
        E               9.8;
        value           nonuniform List<scalar> 9(0.000134884 0.000179361 0.000214976 0.000248206 0.000281416 0.00031624 0.000347945 0.000354393 0.000346277);
    }
    glass2
    {
        type            nutkWallFunction;
        Cmu             0.09;
        kappa           0.41;
        E               9.8;
        value           nonuniform List<scalar> 2(0.000180978 0.000168692);
    }
    sun
    {
        type            nutkWallFunction;
        Cmu             0.09;
        kappa           0.41;
        E               9.8;
        value           nonuniform List<scalar> 
14
(
0.000134768
0.000147057
0.00015025
0.000157349
0.000164006
0.000170427
0.000177057
0.000182342
0.00018534
0.000185305
0.000181712
0.000174153
0.000161796
0.00014072
)
;
    }
    heatsource1
    {
        type            nutkWallFunction;
        Cmu             0.09;
        kappa           0.41;
        E               9.8;
        value           nonuniform List<scalar> 3(7.24168e-05 8.74993e-05 9.85121e-05);
    }
    heatsource2
    {
        type            nutkWallFunction;
        Cmu             0.09;
        kappa           0.41;
        E               9.8;
        value           nonuniform List<scalar> 4(0.000138618 9.89932e-05 9.89932e-05 0.000142889);
    }
    Table_master
    {
        type            nutkWallFunction;
        Cmu             0.09;
        kappa           0.41;
        E               9.8;
        value           nonuniform List<scalar> 9(0.000105769 9.2507e-05 8.16834e-05 7.28827e-05 6.56836e-05 5.97428e-05 5.48045e-05 5.07301e-05 4.7493e-05);
    }
    Table_slave
    {
        type            nutkWallFunction;
        Cmu             0.09;
        kappa           0.41;
        E               9.8;
        value           nonuniform List<scalar> 9(0.000119963 0.000109109 0.000101193 9.49829e-05 8.95497e-05 8.45998e-05 7.97496e-05 7.46094e-05 6.86423e-05);
    }
    inlet
    {
        type            calculated;
        value           uniform 0.000100623;
    }
    outlet
    {
        type            calculated;
        value           nonuniform List<scalar> 2(0.00179947 0.00189389);
    }
}


// ************************************************************************* //
