// -*- C++ -*-
// File generated by PyFoam - sorry for the ugliness

FoamFile
{
 version 2.0;
 format ascii;
 class volScalarField;
 location "500";
 object T;
}

dimensions [ 0 0 0 1 0 0 0 ];

internalField nonuniform List<scalar> 459
(
  305.441
  305.186
  305.184
  305.192
  305.204
  305.218
  305.233
  305.249
  305.265
  305.282
  305.298
  305.313
  305.325
  305.333
  305.334
  303.939
  303.98
  304.006
  303.983
  303.969
  303.972
  303.981
  303.984
  303.983
  303.981
  303.98
  303.983
  303.982
  303.977
  303.972
  303.97
  303.961
  303.947
  303.939
  305.671
  305.366
  305.338
  305.344
  305.36
  305.377
  305.394
  305.411
  305.428
  305.445
  305.459
  305.47
  305.474
  305.469
  305.448
  305.411
  305.154
  304.277
  304.245
  304.22
  304.193
  304.166
  304.159
  304.202
  304.205
  304.205
  304.208
  304.215
  304.231
  304.271
  304.309
  304.342
  304.373
  304.333
  304.261
  304.229
  305.878
  305.541
  305.495
  305.489
  305.503
  305.523
  305.543
  305.563
  305.582
  305.6
  305.615
  305.624
  305.622
  305.604
  305.566
  305.507
  305.439
  304.697
  304.684
  304.664
  304.67
  304.672
  304.637
  304.446
  304.508
  304.571
  304.629
  304.685
  304.742
  304.806
  304.896
  305.017
  305.181
  305.218
  305.317
  305.4
  306.076
  305.743
  305.708
  305.678
  305.669
  305.681
  305.702
  305.725
  305.748
  305.769
  305.787
  305.798
  305.797
  305.776
  305.729
  305.651
  305.54
  305.429
  305.351
  305.434
  305.535
  305.642
  305.734
  305.804
  305.863
  305.886
  305.907
  305.928
  305.949
  305.969
  305.989
  306.006
  306.018
  306.017
  306.073
  306.14
  306.209
  306.272
  305.971
  305.981
  305.956
  305.906
  305.876
  305.881
  305.902
  305.927
  305.954
  305.978
  305.998
  306.01
  306.008
  305.99
  305.956
  305.909
  305.865
  305.838
  305.851
  305.89
  305.934
  305.973
  306.003
  306.026
  306.046
  306.067
  306.089
  306.113
  306.14
  306.17
  306.202
  306.236
  306.272
  306.316
  306.357
  306.389
  306.403
  306.389
  306.246
  306.47
  306.234
  306.345
  306.341
  306.257
  306.169
  306.119
  306.112
  306.133
  306.161
  306.19
  306.217
  306.238
  306.249
  306.246
  306.227
  306.196
  306.164
  306.141
  306.134
  306.139
  306.151
  306.165
  306.178
  306.19
  306.202
  306.215
  306.23
  306.247
  306.268
  306.293
  306.321
  306.353
  306.389
  306.426
  306.462
  306.497
  306.53
  306.56
  306.581
  306.668
  306.537
  306.874
  306.866
  306.741
  306.593
  306.476
  306.416
  306.405
  306.423
  306.453
  306.482
  306.507
  306.526
  306.532
  306.523
  306.502
  306.474
  306.447
  306.427
  306.414
  306.407
  306.403
  306.402
  306.401
  306.401
  306.402
  306.405
  306.411
  306.419
  306.431
  306.447
  306.468
  306.492
  306.519
  306.548
  306.578
  306.614
  306.657
  306.699
  306.886
  306.891
  307.443
  307.519
  307.346
  307.114
  306.941
  306.846
  306.809
  306.808
  306.825
  306.847
  306.868
  306.882
  306.887
  306.882
  306.865
  306.838
  306.808
  306.778
  306.752
  306.729
  306.71
  306.693
  306.678
  306.664
  306.65
  306.639
  306.629
  306.621
  306.617
  306.617
  306.621
  306.629
  306.641
  306.654
  306.668
  306.687
  306.717
  306.753
  307.155
  307.268
  308.546
  308.546
  308.107
  307.708
  307.479
  307.382
  307.356
  307.359
  307.369
  307.377
  307.381
  307.379
  307.371
  307.352
  307.324
  307.289
  307.25
  307.209
  307.168
  307.129
  307.092
  307.058
  307.025
  306.994
  306.964
  306.935
  306.907
  306.882
  306.86
  306.841
  306.827
  306.816
  306.809
  306.803
  306.797
  306.792
  306.79
  306.789
  313.955
  309.955
  308.818
  308.306
  308.141
  308.098
  308.099
  308.109
  308.112
  308.102
  308.078
  308.043
  308.001
  307.954
  307.901
  307.844
  307.783
  307.721
  307.658
  307.597
  307.538
  307.482
  307.429
  307.377
  307.327
  307.278
  307.231
  307.187
  307.145
  307.106
  307.07
  307.038
  307.009
  306.98
  306.951
  306.919
  306.881
  306.83
  312.923
  310.785
  310.068
  309.629
  309.411
  309.304
  309.226
  309.151
  309.072
  308.988
  308.898
  308.803
  308.707
  308.612
  308.518
  308.426
  308.336
  308.247
  308.161
  308.077
  307.996
  307.916
  307.839
  307.765
  307.694
  307.625
  307.558
  307.494
  307.432
  307.373
  307.316
  307.262
  307.209
  307.156
  307.101
  307.04
  306.966
  306.869
  311.619
  311.657
  312.365
  312.025
  311.664
  311.364
  311.131
  310.922
  310.727
  310.537
  310.346
  310.153
  309.962
  309.779
  309.607
  309.445
  309.294
  309.152
  309.018
  308.891
  308.771
  308.656
  308.546
  308.44
  308.338
  308.239
  308.143
  308.049
  307.958
  307.868
  307.781
  307.695
  307.61
  307.526
  307.441
  307.355
  307.264
  307.161
  307.034
  306.864
)
;

boundaryField
{
  floor
  {
    type wallHeatTransfer;
    Tinf uniform 305.2;
    alphaWall uniform 0.24;
    value nonuniform List<scalar> 29
(
  305.313
  304.272
  304.283
  304.297
  304.302
  304.317
  304.335
  304.351
  304.345
  304.328
  304.31
  304.295
  304.287
  304.284
  304.284
  304.288
  304.294
  304.299
  304.301
  304.311
  304.311
  304.483
  305.359
  306.061
  305.313
  304.272
  304.459
  304.774
  305.4
)
;
  }
  ceiling
  {
    type wallHeatTransfer;
    Tinf uniform 303.2;
    alphaWall uniform 0.24;
    value nonuniform List<scalar> 43
(
  310.832
  311.023
  312.081
  311.732
  311.346
  311.015
  310.749
  310.51
  310.29
  310.083
  309.884
  309.691
  309.509
  309.336
  309.175
  309.024
  308.882
  308.749
  308.623
  308.503
  308.389
  308.281
  308.176
  308.076
  307.979
  307.886
  307.794
  307.705
  307.618
  307.533
  307.449
  307.366
  307.285
  307.204
  307.122
  307.038
  306.948
  306.847
  306.721
  306.525
  306.979
  307.111
  312.723
)
;
  }
  sWall
  {
    type wallHeatTransfer;
    Tinf uniform 315.2;
    alphaWall uniform 0.36;
    value uniform 312.1;
  }
  nWall
  {
    type wallHeatTransfer;
    Tinf uniform 307.2;
    alphaWall uniform 0.36;
    value nonuniform List<scalar> 6
(
  306.44
  306.68
  306.77
  306.872
  306.904
  306.908
)
;
  }
  sideWalls
  {
    type empty;
  }
  glass1
  {
    type wallHeatTransfer;
    Tinf uniform 315.2;
    alphaWall uniform 4.3;
    value nonuniform List<scalar> 9
(
  312.708
  311.736
  311.171
  310.818
  310.61
  310.492
  310.44
  310.584
  310.842
)
;
  }
  glass2
  {
    type wallHeatTransfer;
    Tinf uniform 307.2;
    alphaWall uniform 4.3;
    value nonuniform List<scalar> 2
(
  307.041
  307.046
)
;
  }
  sun
  {
    type wallHeatTransfer;
    Tinf uniform 305.2;
    alphaWall uniform 0.24;
    value nonuniform List<scalar> 14
(
  305.408
  305.188
  305.187
  305.193
  305.203
  305.214
  305.227
  305.24
  305.254
  305.268
  305.282
  305.294
  305.305
  305.312
)
;
  }
  heatsource1
  {
    type fixedGradient;
    gradient uniform 0;
  }
  heatsource2
  {
    type fixedGradient;
    gradient uniform 0;
  }
  Table_master
  {
    type zeroGradient;
  }
  Table_slave
  {
    type zeroGradient;
  }
  inlet
  {
    type fixedValue;
    value uniform 293.15;
  }
  outlet
  {
    type zeroGradient;
  }
} 	// ************************************************************************* //

