/*--------------------------------*- C++ -*----------------------------------*\
  =========                 |
  \\      /  F ield         | OpenFOAM: The Open Source CFD Toolbox
   \\    /   O peration     | Website:  https://openfoam.org
    \\  /    A nd           | Version:  6
     \\/     M anipulation  |
\*---------------------------------------------------------------------------*/
FoamFile
{
    version     2.0;
    format      ascii;
    class       volScalarField;
    location    "700";
    object      nut;
}
// * * * * * * * * * * * * * * * * * * * * * * * * * * * * * * * * * * * * * //

dimensions      [0 2 -1 0 0 0 0];

internalField   nonuniform List<scalar> 
459
(
0.00111449
0.00121961
0.00124633
0.00130766
0.00136536
0.00142108
0.00147856
0.0015254
0.00155259
0.00155338
0.00152291
0.00145773
0.0013516
0.0011815
0.000930305
0.000488428
0.000578639
0.000660959
0.000686285
0.000675394
0.000651521
0.000610617
0.00056774
0.000528773
0.000494471
0.000464377
0.000437905
0.000414508
0.000393735
0.000374798
0.000356765
0.000338405
0.000325886
0.000297667
0.00150427
0.00368
0.00352594
0.00409532
0.00466142
0.00520692
0.0056249
0.00599177
0.00631231
0.00655332
0.00668458
0.00668269
0.00651493
0.00609003
0.00497176
0.00114324
0.000801087
0.000494249
0.00114021
0.00166897
0.0020957
0.00236103
0.00236101
0.00176818
0.00148886
0.00129906
0.0011578
0.00104817
0.000960493
0.000887771
0.000820279
0.000753977
0.000693936
0.000642815
0.000759011
0.000383655
0.00182517
0.0049858
0.00432908
0.0052779
0.00572122
0.00605103
0.00630973
0.00657945
0.00687778
0.00718248
0.00745232
0.00764944
0.00771877
0.00756306
0.00695323
0.00514717
0.00118774
0.000853924
0.00136977
0.00193156
0.00251732
0.00295885
0.00289658
0.000858997
0.000751605
0.00066532
0.00059612
0.000540198
0.000494546
0.000456969
0.000426193
0.000401843
0.000440309
0.000517465
0.000874107
0.000445027
0.0021304
0.00629993
0.00432058
0.00548105
0.00575393
0.00584582
0.00596648
0.00616491
0.00644566
0.00679441
0.00715155
0.00746427
0.00765507
0.00768543
0.00750022
0.00675527
0.00407112
0.00136812
0.00166128
0.00222246
0.00291627
0.00357864
0.00403597
0.00380017
0.000976918
0.000887755
0.000823755
0.000774262
0.000731354
0.00069206
0.000653849
0.000613567
0.000567029
0.000526966
0.000544497
0.00103338
0.00049215
0.00244005
0.00799567
0.00467189
0.00532184
0.00565163
0.00562681
0.00565976
0.00582239
0.00608536
0.00645714
0.00684641
0.00716911
0.00735637
0.00739205
0.00730051
0.00703817
0.00632903
0.00553333
0.00533223
0.00542604
0.00562215
0.00579018
0.00584006
0.00561565
0.00463949
0.00415743
0.00386754
0.00364235
0.00341422
0.00310166
0.00270424
0.00224291
0.00175088
0.00128877
0.000961094
0.00101843
0.000672214
0.000605156
0.000727104
0.000818549
0.00276889
0.00986432
0.00631748
0.00534415
0.00571762
0.00567967
0.00567423
0.00576242
0.00597672
0.00632757
0.00673318
0.00706623
0.0072279
0.00720241
0.00707171
0.00695987
0.00692849
0.00700009
0.0071624
0.00729035
0.00731281
0.00722057
0.00701772
0.00668828
0.00618579
0.00573405
0.00534463
0.0049868
0.00463742
0.00426717
0.00382729
0.00330665
0.00271296
0.00209417
0.00157901
0.00120362
0.000940613
0.000814475
0.00115846
0.000860403
0.00307238
0.0111846
0.00883833
0.00676048
0.00649253
0.00620876
0.00593617
0.00586316
0.00603755
0.00641069
0.00685154
0.00719504
0.00732474
0.00723829
0.00707855
0.00708352
0.00739471
0.00784146
0.008149
0.00821462
0.00806542
0.0077633
0.00735332
0.00686013
0.00631054
0.00578796
0.00531706
0.00489407
0.00451869
0.0041965
0.00392538
0.00358267
0.00313076
0.00259651
0.002105
0.00168423
0.0013962
0.0013458
0.00139998
0.00101521
0.00313462
0.00997796
0.0087636
0.00792828
0.00715847
0.00637193
0.00591974
0.00588092
0.00619036
0.00670127
0.0072163
0.00754292
0.00758734
0.00741124
0.00726553
0.00747131
0.00801084
0.00839545
0.00846405
0.0082725
0.00788125
0.00734818
0.00672176
0.00605623
0.00541967
0.00486869
0.00441462
0.0040527
0.00378102
0.00359894
0.00350229
0.00345472
0.0032771
0.00296814
0.00272157
0.00264467
0.00285616
0.00336566
0.0040271
0.00153454
0.00305666
0.0036356
0.00407856
0.00415687
0.0042325
0.00450326
0.00502507
0.00577473
0.00663075
0.0074084
0.00791832
0.00802423
0.00777687
0.00746487
0.00754031
0.00780291
0.0080085
0.00800351
0.00775853
0.00731222
0.00671288
0.00600816
0.00526779
0.00457848
0.00400711
0.00357123
0.00324991
0.00301518
0.00284284
0.00271204
0.00260552
0.002516
0.0024511
0.00240808
0.00239711
0.00240369
0.00236641
0.00223917
0.00207261
0.00142253
0.00172317
0.00315006
0.0049463
0.00638107
0.00749497
0.00832998
0.00879971
0.00888
0.00859051
0.00800276
0.00735975
0.00700735
0.0070074
0.00704034
0.00690932
0.00658214
0.00608062
0.00545113
0.00476192
0.00409645
0.00352344
0.00307743
0.00275921
0.00254675
0.00241043
0.00232761
0.00228293
0.00226674
0.00227626
0.00230784
0.00234864
0.00239307
0.00243008
0.00243281
0.00236325
0.00222114
0.00199933
0.00117141
0.00207993
0.00480533
0.00690899
0.00786879
0.00846774
0.00847657
0.00802812
0.00732936
0.00659103
0.00598756
0.0055656
0.00532479
0.0051553
0.00492848
0.00460984
0.00420532
0.00374068
0.00326723
0.00284516
0.00251436
0.0022812
0.00212991
0.00203698
0.0019826
0.00196179
0.00197151
0.00200549
0.00205677
0.00212924
0.00221969
0.00232395
0.00243219
0.00252518
0.00259299
0.00256541
0.00258017
0.00251553
0.00119114
0.00196085
0.0019394
0.00197243
0.00205255
0.00188103
0.00176426
0.00169848
0.00160828
0.00148371
0.00134176
0.00119907
0.00106881
0.000961579
0.000881102
0.000820856
0.000772553
0.000730753
0.00069312
0.000659949
0.000633021
0.000613969
0.000603324
0.000600666
0.000605331
0.000616863
0.000635119
0.000659424
0.000689326
0.000725339
0.000768662
0.000818231
0.000874002
0.000936403
0.00100575
0.00108088
0.00117735
0.00119421
0.001156
0.00108473
0.00100338
)
;

boundaryField
{
    floor
    {
        type            nutkWallFunction;
        Cmu             0.09;
        kappa           0.41;
        E               9.8;
        value           nonuniform List<scalar> 
29
(
0.000112471
5.82319e-05
6.96722e-05
7.9922e-05
8.30445e-05
8.17044e-05
7.87568e-05
7.36752e-05
6.83039e-05
6.33792e-05
5.9007e-05
5.51401e-05
5.17126e-05
4.86614e-05
4.59341e-05
4.34318e-05
4.10339e-05
3.85764e-05
3.68905e-05
3.30589e-05
3.30588e-05
4.46021e-05
5.26341e-05
5.8706e-05
0.000112471
5.82319e-05
5.89764e-05
0.000103378
0.000163233
)
;
    }
    ceiling
    {
        type            nutkWallFunction;
        Cmu             0.09;
        kappa           0.41;
        E               9.8;
        value           nonuniform List<scalar> 
43
(
0.000229085
0.000226658
0.000230257
0.000239068
0.000220395
0.000207565
0.000200291
0.000190263
0.000176306
0.000160242
0.000143901
0.000128792
0.000116197
0.000106639
9.94169e-05
9.35814e-05
8.84966e-05
8.38886e-05
7.98019e-05
7.64657e-05
7.40947e-05
7.27656e-05
7.24324e-05
7.3014e-05
7.44511e-05
7.67204e-05
7.97298e-05
8.34144e-05
8.78271e-05
9.31014e-05
9.90934e-05
0.000105785
0.000113213
0.000121401
0.000130199
0.000141397
0.000143343
0.000138928
0.000130649
0.000121123
0.00034602
0.000405831
0.000241818
)
;
    }
    sWall
    {
        type            nutkWallFunction;
        Cmu             0.09;
        kappa           0.41;
        E               9.8;
        value           uniform 0.000229145;
    }
    nWall
    {
        type            nutkWallFunction;
        Cmu             0.09;
        kappa           0.41;
        E               9.8;
        value           nonuniform List<scalar> 6(9.91329e-05 0.00010416 0.000122518 0.000140722 0.000143 0.000121129);
    }
    sideWalls
    {
        type            empty;
    }
    glass1
    {
        type            nutkWallFunction;
        Cmu             0.09;
        kappa           0.41;
        E               9.8;
        value           nonuniform List<scalar> 9(0.000134229 0.00017885 0.000214604 0.000247977 0.000281313 0.000316229 0.000348071 0.000354569 0.000346456);
    }
    glass2
    {
        type            nutkWallFunction;
        Cmu             0.09;
        kappa           0.41;
        E               9.8;
        value           nonuniform List<scalar> 2(0.000182098 0.000169477);
    }
    sun
    {
        type            nutkWallFunction;
        Cmu             0.09;
        kappa           0.41;
        E               9.8;
        value           nonuniform List<scalar> 
14
(
0.000134115
0.000146265
0.000149335
0.000156354
0.000162925
0.000169241
0.000175726
0.000180991
0.000184039
0.000184127
0.00018071
0.000173375
0.000161357
0.000141866
)
;
    }
    heatsource1
    {
        type            nutkWallFunction;
        Cmu             0.09;
        kappa           0.41;
        E               9.8;
        value           nonuniform List<scalar> 3(7.29911e-05 8.80432e-05 9.91316e-05);
    }
    heatsource2
    {
        type            nutkWallFunction;
        Cmu             0.09;
        kappa           0.41;
        E               9.8;
        value           nonuniform List<scalar> 4(0.000137445 9.70318e-05 9.70318e-05 0.000142585);
    }
    Table_master
    {
        type            nutkWallFunction;
        Cmu             0.09;
        kappa           0.41;
        E               9.8;
        value           nonuniform List<scalar> 9(0.000103993 9.10336e-05 8.04627e-05 7.18661e-05 6.48306e-05 5.90209e-05 5.41889e-05 5.01945e-05 4.70084e-05);
    }
    Table_slave
    {
        type            nutkWallFunction;
        Cmu             0.09;
        kappa           0.41;
        E               9.8;
        value           nonuniform List<scalar> 9(0.000118007 0.00010743 9.97619e-05 9.37841e-05 8.85651e-05 8.37538e-05 7.90437e-05 7.40421e-05 6.82141e-05);
    }
    inlet
    {
        type            calculated;
        value           uniform 0.000100623;
    }
    outlet
    {
        type            calculated;
        value           nonuniform List<scalar> 2(0.00196085 0.0019394);
    }
}


// ************************************************************************* //
