/*--------------------------------*- C++ -*----------------------------------*\
  =========                 |
  \\      /  F ield         | OpenFOAM: The Open Source CFD Toolbox
   \\    /   O peration     | Website:  https://openfoam.org
    \\  /    A nd           | Version:  6
     \\/     M anipulation  |
\*---------------------------------------------------------------------------*/
FoamFile
{
    version     2.0;
    format      ascii;
    class       surfaceScalarField;
    location    "700";
    object      phi;
}
// * * * * * * * * * * * * * * * * * * * * * * * * * * * * * * * * * * * * * //

dimensions      [1 0 -1 0 0 0 0];

internalField   nonuniform List<scalar> 
852
(
-0.0030013
0.00305873
-0.00409374
0.00109246
-0.00490347
0.000809751
-0.0054997
0.000596254
-0.00584331
0.000343632
-0.00590119
5.79022e-05
-0.00564381
-0.000257361
-0.00506845
-0.000575332
-0.00422943
-0.000838999
-0.00322896
-0.00100045
-0.00218891
-0.00104003
-0.00123095
-0.000957932
-0.000475634
-0.000755301
-5.42523e-05
-0.000421363
-5.2223e-05
-0.000841858
0.000844909
-0.000635896
-0.000205955
-5.86956e-05
-0.000577193
0.000475794
-0.000534483
0.000869851
-0.000394052
0.00113846
-0.000268608
0.00128996
-0.000151491
0.00136124
-7.12806e-05
0.00139988
-3.86379e-05
0.00142381
-2.39267e-05
0.00143779
-1.39775e-05
0.00144382
-6.02673e-06
0.00144087
2.94591e-06
0.00142158
1.92977e-05
0.00136481
5.67629e-05
0.00123471
0.000130102
0.00101933
0.000215376
0.000743483
0.000275845
0.000747478
-0.00215523
0.00536881
-0.0032153
0.00215256
-0.00405372
0.00164819
-0.00465276
0.00119532
-0.00500273
0.000693625
-0.00507573
0.000130924
-0.00484219
-0.000490871
-0.00431257
-0.00110493
-0.00355837
-0.00159317
-0.0026876
-0.0018712
-0.00181
-0.0019176
-0.00101881
-0.0017491
-0.000381021
-0.00139307
6.51805e-05
-0.000867548
0.000365956
-0.000352983
0.000326819
3.91006e-05
0.000326782
0.000111214
0.000742752
0.000500318
-0.000595051
0.000813607
-0.000890473
0.00106848
-0.000789346
0.00127557
-0.000601141
0.00141653
-0.000409564
0.00144515
-0.000180108
0.00145147
-7.76003e-05
0.0014589
-4.60624e-05
0.00146508
-3.01087e-05
0.00146911
-1.80042e-05
0.00147135
-8.26609e-06
0.0014713
2.99602e-06
0.00146583
2.47651e-05
0.00142755
9.50508e-05
0.00126075
0.000296897
0.000976274
0.000499848
0.000626491
0.000625623
0.00138431
-0.00151584
0.00712187
-0.00242732
0.00306406
-0.00318056
0.00240146
-0.00370631
0.00172109
-0.0040198
0.00100714
-0.00408022
0.000191373
-0.00383387
-0.000737197
-0.00331148
-0.0016273
-0.00261475
-0.00228987
-0.00185778
-0.00262815
-0.00112973
-0.00264562
-0.000490141
-0.00238867
3.36489e-05
-0.00191684
0.000448168
-0.00128205
0.000720718
-0.000625519
0.000726509
3.33246e-05
0.00105331
0.00146391
-0.000710686
0.00168285
-0.000813983
0.00163438
-0.000841994
0.00162433
-0.000779285
0.00165665
-0.000633462
0.00172498
-0.000477889
0.00154503
0.00146758
0.00142168
0.00139172
0.00137387
0.00136576
0.00136891
0.00139383
0.00148903
0.00121095
0.000574977
0.00088747
0.00082332
0.000506333
0.00100676
0.00190635
-0.00105774
0.00848731
-0.00177377
0.00378012
-0.00228652
0.00291423
-0.00264541
0.00208001
-0.00285753
0.00121927
-0.00283864
0.00017251
-0.0025163
-0.00105951
-0.00198267
-0.0021609
-0.00136511
-0.00290739
-0.000760768
-0.00323246
-0.000221514
-0.00318484
0.0002322
-0.00284236
0.000603172
-0.0022878
0.000934734
-0.0016136
0.00123249
-0.000923263
0.00156209
-0.000296259
0.00245281
0.000162593
0.00257311
-0.00011141
0.00227721
-0.000414774
0.0021133
-0.000650063
0.00194815
-0.000676832
0.00180103
-0.000632169
0.00169957
-0.000532
0.00160078
-0.000379093
0.00176162
-0.000160999
0.00184967
-8.82118e-05
0.00191426
-6.47442e-05
0.00196025
-4.61533e-05
0.00197378
-1.3693e-05
0.00193368
3.9944e-05
0.00181474
0.00011877
0.00158344
0.000231136
0.00118375
0.000399528
0.00102062
0.0007381
0.000714564
0.00112937
0.000273837
0.00144748
0.00220071
-0.000733536
0.00958867
-0.00126475
0.00431136
-0.00139386
0.00304336
-0.00148228
0.00216845
-0.00151622
0.00125323
-0.00129523
-4.84591e-05
-0.000834436
-0.00152028
-0.000317782
-0.00267752
0.000150897
-0.00337602
0.000528515
-0.00361004
0.000808807
-0.0034651
0.00101378
-0.00304731
0.00117723
-0.00245122
0.00133287
-0.00176923
0.00150723
-0.00109762
0.00174147
-0.000530489
0.00206922
-0.000165139
0.00212144
-0.000163628
0.00203009
-0.000323414
0.00183574
-0.000455702
0.00164573
-0.000486818
0.00147452
-0.000460959
0.00133884
-0.000396328
0.00125606
-0.000296314
0.00127841
-0.00018336
0.00131613
-0.000125943
0.00135885
-0.000107474
0.00140468
-9.19972e-05
0.00144344
-5.24681e-05
0.00145481
2.85525e-05
0.00141724
0.000156332
0.00131774
0.000330615
0.00115995
0.000557309
0.00101458
0.000883456
0.000856745
0.00128719
0.000505356
0.00179886
0.000418827
0.00228723
-0.000988824
0.00140743
-0.00143987
0.000450827
-0.00139153
-0.000627572
0.0106349
-0.000972999
0.00465681
-0.000561351
0.00263174
-0.000207352
0.00181447
0.000144879
0.000901019
0.000669063
-0.000572624
0.00119789
-0.00204907
0.00158922
-0.00306881
0.00180812
-0.00359487
0.00188436
-0.00368624
0.00185615
-0.00343686
0.00176209
-0.00295323
0.00164744
-0.00233656
0.00155071
-0.00167249
0.00149912
-0.00104602
0.00150889
-0.000540251
0.00156508
-0.000221332
0.0015404
-0.000138939
0.00141509
-0.000198099
0.00122955
-0.000270167
0.00104608
-0.000303351
0.000885882
-0.000300767
0.000761482
-0.000271938
0.000688664
-0.000223507
0.000679054
-0.000173764
0.000707811
-0.000154714
0.000759298
-0.000158978
0.000827614
-0.000160331
0.000907108
-0.000131981
0.000983641
-4.79994e-05
0.00103771
0.000102246
0.00106495
0.000303349
0.00107366
0.000548583
0.00110569
0.000851413
0.00120719
0.00118568
0.0013926
0.00161344
0.00185672
0.0018231
0.00214108
0.00112305
0.0017758
0.000816097
0.000442201
-0.000682549
0.011782
-0.000532527
0.00450681
0.000610165
0.00148906
0.00140503
0.00101963
0.00219116
0.000114901
0.0029686
-0.00135004
0.00344267
-0.0025231
0.00359578
-0.00322187
0.00348172
-0.00348077
0.00317709
-0.00338157
0.00275879
-0.00301852
0.00229617
-0.00249059
0.00185083
-0.00189121
0.00146428
-0.00128594
0.00116414
-0.000745892
0.000964502
-0.000340616
0.000845773
-0.000102608
0.000741282
-3.44528e-05
0.000609025
-6.58482e-05
0.000457438
-0.000118588
0.000309381
-0.000155305
0.000180288
-0.000171687
8.15962e-05
-0.000173261
2.52551e-05
-0.000167183
1.68899e-05
-0.000165418
4.42536e-05
-0.000182099
9.56809e-05
-0.000210427
0.00016818
-0.000232853
0.000265211
-0.000229034
0.000391926
-0.000174737
0.000534823
-4.06731e-05
0.000680422
0.000157728
0.000839481
0.000389502
0.00104593
0.000644948
0.00134343
0.000888161
0.00179997
0.00115688
0.00248466
0.00113841
0.00304211
0.000565584
0.0030637
0.000794499
0.00356688
0.00269718
0.00960424
0.0034311
0.00377292
0.00372249
0.00119769
0.00450935
0.000232789
0.00545463
-0.000830368
0.0059558
-0.00185117
0.00596798
-0.00253523
0.00557969
-0.00283352
0.00490996
-0.00281099
0.00407897
-0.00255053
0.00318879
-0.00212831
0.00232252
-0.00162431
0.00155105
-0.00111975
0.000908104
-0.000642998
0.000423741
-0.000261543
0.000109096
-2.59849e-05
-6.6679e-05
7.31528e-05
-0.000172539
7.13938e-05
-0.000266833
2.84317e-05
-0.000367753
-1.76839e-05
-0.000469068
-5.40074e-05
-0.000559915
-8.08583e-05
-0.00063124
-0.000101958
-0.000675782
-0.000122663
-0.000692189
-0.000149035
-0.000689499
-0.000184814
-0.000675557
-0.000224394
-0.000651174
-0.000257261
-0.000608707
-0.000271526
-0.000529361
-0.000254108
-0.00038246
-0.000187597
-0.000178932
-4.58224e-05
6.15224e-05
0.000149026
0.000349791
0.000356658
0.000684292
0.000553641
0.00109775
0.000743403
0.00151317
0.000722971
0.00164362
0.000435112
0.000917143
0.00152096
0.00474245
0.0101757
0.0139422
0.0123977
0.00274219
0.0115692
0.00106132
0.0107443
-5.35643e-06
0.00962408
-0.000730893
0.0082576
-0.00116867
0.00677431
-0.00135017
0.00527656
-0.0013132
0.00384709
-0.00112105
0.00254055
-0.000821771
0.0013925
-0.000476277
0.000441217
-0.000168481
-0.000265754
6.39432e-05
-0.000692743
0.000165422
-0.000897703
0.000178955
-0.000987552
0.000162984
-0.00104396
0.000127784
-0.00109926
8.37118e-05
-0.00115977
4.27966e-05
-0.00122422
1.04249e-05
-0.00128945
-1.56512e-05
-0.00135083
-4.06083e-05
-0.00140551
-6.80108e-05
-0.00145595
-9.86224e-05
-0.00151133
-0.000129452
-0.0015814
-0.000154359
-0.00167485
-0.000163831
-0.00180122
-0.000145182
-0.0019713
-8.40516e-05
-0.00219149
3.25703e-05
-0.00245281
0.00021547
-0.00278326
0.000479458
-0.00326495
0.000838328
-0.00399329
0.00128196
-0.00502159
0.00177168
-0.00645591
0.00215727
-0.00815901
0.00213819
-0.00756844
0.000930372
-0.00254008
0.00501582
0.00440002
0.00372533
0.00235193
0.00389013
-0.000170076
0.00382854
-0.000669283
0.00328557
-0.000625711
0.00247995
-0.000544582
0.00155727
-0.000390549
0.000602333
-0.000166149
-0.000291827
7.23357e-05
-0.00098986
0.000221722
-0.00142211
0.000263741
-0.00163094
0.000272749
-0.00171858
0.000253031
-0.00175901
0.000219366
-0.00178018
0.000184126
-0.00180164
0.000149224
-0.00183301
0.00011505
-0.00187421
8.39696e-05
-0.00192119
5.73848e-05
-0.00197113
3.42604e-05
-0.00202471
1.29406e-05
-0.0020844
-8.3472e-06
-0.00215298
-3.00804e-05
-0.00223396
-4.84982e-05
-0.00232921
-5.91345e-05
-0.00243763
-5.54296e-05
-0.00255499
-2.78471e-05
-0.00267351
3.4439e-05
-0.00278251
0.000141545
-0.00287908
0.000312018
-0.00296995
0.000570311
-0.00306163
0.000929987
-0.00314968
0.00136999
-0.0031746
0.00179658
-0.00305455
0.00203721
-0.00256836
0.00165198
-0.00131147
-0.000326533
-0.0037779
-0.000374517
0.00483563
0.000755479
0.00122201
0.00034625
0.000239165
-0.000277752
-4.53408e-05
-0.000896476
-7.04232e-06
-0.00149824
5.71228e-05
-0.00201353
0.0001247
-0.00237088
0.000191159
-0.00254075
0.000242168
-0.00258083
0.000261766
-0.00256371
0.000246588
-0.00250958
0.000218599
-0.00244588
0.000189303
-0.00239087
0.00016432
-0.0023513
0.000144535
-0.00232974
0.000127628
-0.00232596
0.000111245
-0.00233644
9.4414e-05
-0.00235611
7.70273e-05
-0.0023811
5.92183e-05
-0.00240936
4.11649e-05
-0.00244114
2.3412e-05
-0.00247813
6.87734e-06
-0.00251962
-7.0433e-06
-0.00256348
-1.53022e-05
-0.0026043
-1.46283e-05
-0.00263145
-7.29032e-07
-0.00263307
3.60367e-05
-0.00259521
0.000103659
-0.00249355
0.000210336
-0.00229541
0.000372144
-0.00197598
0.000610538
-0.00152509
0.000919083
-0.00091504
0.0011865
3.01962e-05
0.00109195
0.0012164
0.000465745
0.00152537
-0.000635526
-0.00217169
0.000428063
-0.0108348
-0.00595472
-0.00471125
-0.00446049
-0.00449906
-0.00450204
-0.00444268
-0.00431717
-0.00412635
-0.0038855
-0.00362593
-0.00338229
-0.00316727
-0.00298207
-0.00282231
-0.00268272
-0.00256037
-0.00245469
-0.00236605
-0.00229494
-0.00224167
-0.00220644
-0.00218887
-0.0021877
-0.00220026
-0.00222088
-0.00224059
-0.00224615
-0.00221469
-0.00211535
-0.00190908
-0.00154077
-0.000933856
-1.8227e-05
0.00116491
0.00225341
0.00271547
0.00207596
)
;

boundaryField
{
    floor
    {
        type            calculated;
        value           nonuniform List<scalar> 
29
(
0
0
0
0
0
0
0
0
0
0
0
0
0
0
0
0
0
0
0
0
-3.99999e-06
-1.03476e-05
-1.57068e-05
-2.05331e-05
-2.01453e-06
-3.04435e-06
-9.0512e-06
-1.04643e-05
-8.86611e-06
)
;
    }
    ceiling
    {
        type            calculated;
        value           nonuniform List<scalar> 
43
(
-2.24588e-05
-4.37354e-05
-4.45128e-05
-2.15194e-05
-1.16511e-05
-6.81203e-06
-4.11198e-06
-2.27121e-06
-8.51951e-07
3.0409e-07
1.29024e-06
2.15758e-06
2.9144e-06
3.54868e-06
4.07489e-06
4.52088e-06
4.90863e-06
5.24726e-06
5.53082e-06
5.74429e-06
5.87554e-06
5.92374e-06
5.89806e-06
5.81083e-06
5.67292e-06
5.49272e-06
5.28293e-06
5.05413e-06
4.80979e-06
4.55006e-06
4.29104e-06
4.04155e-06
3.80823e-06
3.5995e-06
3.43138e-06
3.34029e-06
3.43194e-06
3.65657e-06
3.96064e-06
5.06986e-06
9.31783e-06
6.43167e-06
-6.10421e-05
)
;
    }
    sWall
    {
        type            calculated;
        value           uniform -0.000229543;
    }
    nWall
    {
        type            calculated;
        value           nonuniform List<scalar> 6(-4.85632e-05 -5.79454e-05 -6.09904e-05 -7.36753e-05 -8.08614e-05 -0.000100818);
    }
    sideWalls
    {
        type            empty;
        value           nonuniform 0();
    }
    glass1
    {
        type            calculated;
        value           nonuniform List<scalar> 9(-5.74116e-05 -0.000154828 -0.000237198 -0.000307675 -0.000367805 -0.000418662 -0.00046446 -0.000519445 -0.000580762);
    }
    glass2
    {
        type            calculated;
        value           nonuniform List<scalar> 2(-0.00025845 -0.000285923);
    }
    sun
    {
        type            calculated;
        value           uniform 0;
    }
    heatsource1
    {
        type            calculated;
        value           nonuniform List<scalar> 3(2.04292e-07 2.04189e-07 2.04211e-07);
    }
    heatsource2
    {
        type            calculated;
        value           nonuniform List<scalar> 4(5.1227e-08 5.12995e-08 0 0);
    }
    Table_master
    {
        type            calculated;
        value           nonuniform List<scalar> 9(-1.53212e-07 -1.53325e-07 -1.53364e-07 -1.5339e-07 -1.53408e-07 -1.5342e-07 -1.53427e-07 -1.53423e-07 -1.53394e-07);
    }
    Table_slave
    {
        type            calculated;
        value           nonuniform List<scalar> 9(1.53057e-07 1.53081e-07 1.53057e-07 1.53039e-07 1.53032e-07 1.53032e-07 1.53049e-07 1.53094e-07 1.53181e-07);
    }
    inlet
    {
        type            calculated;
        value           uniform -0.00667359;
    }
    outlet
    {
        type            calculated;
        value           nonuniform List<scalar> 2(-0.000176101 0.0113066);
    }
}


// ************************************************************************* //
