/*--------------------------------*- C++ -*----------------------------------*\
  =========                 |
  \\      /  F ield         | OpenFOAM: The Open Source CFD Toolbox
   \\    /   O peration     | Website:  https://openfoam.org
    \\  /    A nd           | Version:  6
     \\/     M anipulation  |
\*---------------------------------------------------------------------------*/
FoamFile
{
    version     2.0;
    format      ascii;
    class       surfaceScalarField;
    location    "1200";
    object      phi;
}
// * * * * * * * * * * * * * * * * * * * * * * * * * * * * * * * * * * * * * //

dimensions      [1 0 -1 0 0 0 0];

internalField   nonuniform List<scalar> 
852
(
-0.00295832
0.0030156
-0.00399915
0.00104083
-0.00479989
0.000800733
-0.0054236
0.000623714
-0.00583695
0.000413349
-0.00601197
0.00017502
-0.00592057
-9.13983e-05
-0.00554075
-0.000379824
-0.00488815
-0.000652598
-0.00402754
-0.000860616
-0.00305865
-0.000968888
-0.00209315
-0.000965502
-0.00123327
-0.000859882
-0.000541284
-0.000691986
-0.00053963
-0.000777165
0.000780122
-0.000521883
-0.000255282
7.35596e-05
-0.000595443
0.000576436
-0.000502877
0.000926573
-0.000350137
0.00115557
-0.000228995
0.00128347
-0.000127906
0.00134547
-6.19945e-05
0.00137988
-3.44109e-05
0.00140116
-2.12779e-05
0.00141333
-1.21749e-05
0.00141795
-4.61448e-06
0.00141366
4.28772e-06
0.00139292
2.07347e-05
0.00133456
5.83628e-05
0.00120293
0.000131632
0.000985403
0.000217525
0.000716588
0.000268815
0.000720539
-0.00211911
0.00528907
-0.00313934
0.00206107
-0.00396835
0.00162974
-0.00458804
0.0012434
-0.00499961
0.000824924
-0.00518405
0.000359452
-0.00510997
-0.00016548
-0.00475955
-0.000730245
-0.00416091
-0.00125123
-0.00338948
-0.00163205
-0.00254331
-0.00181505
-0.0017172
-0.00179162
-0.000991878
-0.0015852
-0.000441546
-0.00124232
-0.000172603
-0.000808574
0.000118558
-0.000291213
0.000118506
0.000252075
0.000536664
0.000659047
-0.000662253
0.000928024
-0.000864421
0.00115385
-0.000728706
0.00133371
-0.000529993
0.00145017
-0.000345456
0.00147106
-0.000148796
0.00147617
-6.71024e-05
0.00148235
-4.05933e-05
0.00148755
-2.64739e-05
0.00149099
-1.56196e-05
0.00149285
-6.47432e-06
0.00149249
4.64816e-06
0.00148668
2.65438e-05
0.00144772
9.73261e-05
0.00128086
0.000298492
0.00099052
0.000507863
0.000625734
0.000633602
0.00135635
-0.00148919
0.00701445
-0.00237143
0.00294331
-0.00311175
0.00237006
-0.00364749
0.00177914
-0.00401284
0.00119028
-0.00418369
0.000530296
-0.00410594
-0.000243227
-0.00375359
-0.0010826
-0.00318035
-0.00182448
-0.00247948
-0.00233293
-0.00174602
-0.00254851
-0.00105277
-0.00248487
-0.000451947
-0.00218603
2.16375e-05
-0.0017159
0.000333425
-0.00112036
0.000473551
-0.000431339
0.000592056
0.0014945
-0.000948404
0.00171498
-0.000882732
0.00167497
-0.000824413
0.00166512
-0.00071886
0.00169067
-0.000555541
0.00173376
-0.00038855
0.00158512
0.00151817
0.00147773
0.00145141
0.00143595
0.00142962
0.00143443
0.00146112
0.0015586
0.00128845
0.000568649
0.000956977
0.000839332
0.000537821
0.00105276
0.00190943
-0.00104263
0.00836293
-0.00174393
0.00364461
-0.00224132
0.00286745
-0.00260001
0.00213782
-0.00285157
0.00144185
-0.0029594
0.000638119
-0.00282716
-0.000375463
-0.0024376
-0.00147216
-0.00189149
-0.00237058
-0.00129123
-0.00293319
-0.000712567
-0.00312718
-0.000195322
-0.00300212
0.000244502
-0.00262585
0.000607434
-0.00207884
0.000930898
-0.00144383
0.00129632
-0.00079676
0.00214645
-0.000258074
0.00250436
-0.00034959
0.00215359
-0.000597632
0.00201766
-0.000746801
0.00188799
-0.000694742
0.00177168
-0.000602551
0.00169751
-0.000481374
0.00163732
-0.000328353
0.00177877
-0.000141604
0.00186499
-8.6373e-05
0.00193387
-6.90403e-05
0.00198754
-5.38156e-05
0.00201204
-2.46596e-05
0.00198587
2.60264e-05
0.00188361
0.000102104
0.00167184
0.000211621
0.00129544
0.000376245
0.00113729
0.000726802
0.000827784
0.00114883
0.000364256
0.00151629
0.0022936
-0.000728458
0.00945639
-0.00126126
0.00417741
-0.00138302
0.00298921
-0.00147614
0.00223094
-0.00153826
0.00150397
-0.00149986
0.000599719
-0.001227
-0.000648328
-0.000787096
-0.00191206
-0.000311514
-0.00284617
0.000120619
-0.00336533
0.000474682
-0.00348124
0.000745838
-0.00327327
0.000955759
-0.00283577
0.00113412
-0.0022572
0.00131526
-0.00162496
0.00154724
-0.00102875
0.00187373
-0.000584563
0.00198064
-0.000456494
0.00189805
-0.000515045
0.00172128
-0.000570034
0.00156199
-0.000535454
0.00142549
-0.000466052
0.00132533
-0.000381207
0.00127748
-0.000280505
0.00131973
-0.000183853
0.00137318
-0.000139825
0.00143092
-0.000126777
0.00148974
-0.000112636
0.00153927
-7.41863e-05
0.0015593
5.99067e-06
0.00152841
0.000132999
0.00143446
0.000305566
0.0012782
0.000532512
0.0011331
0.000871896
0.000970489
0.00131145
0.000619526
0.00186725
0.000525098
0.00238803
-0.000984614
0.00150951
-0.00144952
0.000464698
-0.00140121
-0.000630716
0.0105019
-0.000996519
0.00454321
-0.000602344
0.00259503
-0.000309021
0.00193761
-9.45832e-05
0.00128953
0.000228356
0.00027678
0.000708184
-0.00112816
0.00114628
-0.00235016
0.00145977
-0.00315965
0.00163428
-0.00353985
0.00169533
-0.00354229
0.00167516
-0.00325311
0.00160639
-0.002767
0.00152662
-0.00217744
0.00146932
-0.00156766
0.00145959
-0.00101901
0.00149057
-0.000615539
0.0014585
-0.000424427
0.00133315
-0.000389694
0.00115385
-0.000390735
0.000989111
-0.000370715
0.000857818
-0.000334759
0.00076819
-0.000291579
0.000731039
-0.000243354
0.000749993
-0.000202806
0.000799895
-0.000189726
0.000866477
-0.000193358
0.000943878
-0.000190036
0.00102621
-0.000156517
0.00110201
-6.98126e-05
0.001153
8.20111e-05
0.00117361
0.00028496
0.00117258
0.000533544
0.00119438
0.000850094
0.00128534
0.00122049
0.00146176
0.00169083
0.00190158
0.00194821
0.00216158
0.00124951
0.00177112
0.000855155
0.000427962
-0.000716644
0.011678
-0.000602517
0.00442908
0.000473094
0.00151942
0.0011502
0.00126051
0.00172287
0.000716857
0.00236735
-0.000367702
0.00292247
-0.00168328
0.00322968
-0.00265737
0.00328276
-0.00321274
0.00312734
-0.00338444
0.00282744
-0.00324239
0.00244717
-0.00287284
0.00204152
-0.00236135
0.00165891
-0.00179483
0.00133233
-0.00124108
0.00108195
-0.000768633
0.000904727
-0.00043832
0.000753663
-0.000273363
0.000593392
-0.000229422
0.000431816
-0.000229159
0.000292351
-0.000231249
0.000186471
-0.000228878
0.000118738
-0.000223846
9.36801e-05
-0.000218295
0.000109795
-0.000218919
0.00015335
-0.000233281
0.000213621
-0.000253628
0.000288573
-0.000264988
0.000382103
-0.000250046
0.000499179
-0.000186888
0.000628398
-4.72068e-05
0.000758189
0.000155171
0.000898198
0.000393536
0.00108627
0.000662026
0.0013689
0.000937852
0.00181171
0.00124803
0.00248069
0.00127922
0.00302415
0.000706057
0.00304298
0.000836326
0.00353344
0.00260192
0.00958938
0.00327934
0.00375165
0.00344393
0.00135484
0.00389584
0.000808597
0.00458552
2.71743e-05
0.00527796
-0.00106015
0.0055617
-0.00196702
0.00543902
-0.0025347
0.00499708
-0.00277079
0.00434027
-0.00272764
0.00357089
-0.00247301
0.00277549
-0.00207744
0.00201465
-0.00160051
0.00134344
-0.00112362
0.000789154
-0.000686793
0.000374224
-0.000353703
9.75444e-05
-0.00016164
-8.6852e-05
-8.89662e-05
-0.000228477
-8.77962e-05
-0.000348156
-0.00010948
-0.000446898
-0.000132506
-0.000522342
-0.000153434
-0.000573387
-0.0001728
-0.000599474
-0.000192207
-0.000603609
-0.000214784
-0.000594649
-0.00024224
-0.000578747
-0.000269529
-0.000555501
-0.000288233
-0.000516907
-0.000288639
-0.00044438
-0.000259414
-0.000307821
-0.000183765
-0.000121038
-3.16114e-05
9.84254e-05
0.000174073
0.000370945
0.000389507
0.000707201
0.000601597
0.00114796
0.000807273
0.00162564
0.000801538
0.0018208
0.000510895
0.00107349
0.00158364
0.00486477
0.0101527
0.0138971
0.0122264
0.00302549
0.0113261
0.00170894
0.0105924
0.000760844
0.00970329
-0.000171015
0.00855742
-0.000821147
0.00726155
-0.00123883
0.0059097
-0.00141896
0.00457086
-0.00138879
0.00330815
-0.0012103
0.00217194
-0.000941227
0.00117351
-0.000602082
0.000354938
-0.000305049
-0.000248682
-8.31714e-05
-0.000624746
2.23617e-05
-0.000828908
4.25222e-05
-0.000945674
2.78007e-05
-0.00103257
-8.99983e-07
-0.00111023
-3.18206e-05
-0.00118125
-6.14842e-05
-0.0012452
-8.9483e-05
-0.00130237
-0.00011563
-0.00135422
-0.000140351
-0.00140474
-0.000164269
-0.0014612
-0.00018578
-0.00153112
-0.000199608
-0.00162193
-0.000197418
-0.00174274
-0.000167823
-0.00190512
-9.70332e-05
-0.00211644
2.75492e-05
-0.00236353
0.000215489
-0.0026713
0.000481842
-0.00312517
0.000843376
-0.00382037
0.0012968
-0.00482204
0.00180894
-0.00624464
0.00222414
-0.00795928
0.00222553
-0.00745661
0.00108098
-0.00230618
0.00509973
0.00455426
0.00409576
0.0027129
0.00449772
0.00035887
0.0045389
-0.0002122
0.00413178
-0.000414033
0.003448
-0.000555047
0.00260049
-0.000571442
0.00168161
-0.000469913
0.000765238
-0.000293929
-9.45666e-05
-8.14206e-05
-0.000793607
9.69597e-05
-0.00125232
0.000153669
-0.00150123
0.000165741
-0.00162385
0.00014498
-0.00169189
0.000110564
-0.00174018
7.60931e-05
-0.00178539
4.43059e-05
-0.00183413
1.69228e-05
-0.00188986
-5.75811e-06
-0.00195267
-2.66706e-05
-0.00202205
-4.62467e-05
-0.00209912
-6.3284e-05
-0.00218535
-7.8036e-05
-0.00228281
-8.83141e-05
-0.00239264
-8.97741e-05
-0.00251375
-7.63141e-05
-0.00264163
-3.99354e-05
-0.00276778
2.91132e-05
-0.00288019
0.000139961
-0.00297652
0.000311819
-0.00306501
0.000570334
-0.00315237
0.000930739
-0.00323615
0.00138057
-0.0032703
0.00184309
-0.00319688
0.00215073
-0.00283697
0.00186562
-0.00156523
-0.000190761
-0.00379666
-0.000436215
0.00504708
0.000859646
0.00141703
0.000824242
0.000394269
0.000551764
6.02756e-05
0.00017431
-3.65779e-05
-0.000347469
-3.32636e-05
-0.000935891
1.69837e-05
-0.00148583
8.00321e-05
-0.00191741
0.000137653
-0.00218039
0.000181562
-0.00228511
0.000201679
-0.00232011
0.000188664
-0.00231753
0.000163165
-0.0023068
0.000134253
-0.00230407
0.000107837
-0.00231332
8.53401e-05
-0.00233435
6.53413e-05
-0.00236455
4.71171e-05
-0.00240103
3.07223e-05
-0.00244396
1.62638e-05
-0.00249295
2.74149e-06
-0.00254737
-8.85386e-06
-0.00260701
-1.83982e-05
-0.00267032
-2.50037e-05
-0.00273347
-2.66198e-05
-0.00278971
-2.00796e-05
-0.00282836
-1.27934e-06
-0.00283782
3.85756e-05
-0.00280572
0.00010786
-0.00270894
0.000215038
-0.00251474
0.000376132
-0.00219571
0.000611717
-0.00173626
0.00092112
-0.00111242
0.00121925
-0.000145126
0.00118343
0.00115833
0.000562165
0.00157423
-0.000606663
-0.00214041
-0.00792837
-0.0107802
-0.00568898
-0.00424911
-0.00384081
-0.00377138
-0.00380192
-0.00383144
-0.00381244
-0.0037317
-0.00359445
-0.00341423
-0.00321473
-0.00302894
-0.00286923
-0.00273889
-0.00263533
-0.00255456
-0.00249399
-0.0024518
-0.00242609
-0.00241487
-0.00241716
-0.00243101
-0.00245434
-0.00248419
-0.00251555
-0.00254025
-0.00254601
-0.00251177
-0.00240808
-0.00219706
-0.00182478
-0.00121679
-0.000299281
0.000916413
0.0020962
0.00265453
0.00204376
)
;

boundaryField
{
    floor
    {
        type            calculated;
        value           nonuniform List<scalar> 
29
(
0
0
0
0
0
0
0
0
0
0
0
0
0
0
0
0
0
0
0
0
-3.95104e-06
-1.00746e-05
-1.52643e-05
-1.99093e-05
-1.65486e-06
-2.95751e-06
-8.61766e-06
-9.43263e-06
-8.32774e-06
)
;
    }
    ceiling
    {
        type            calculated;
        value           nonuniform List<scalar> 
43
(
-4.66407e-05
-4.53675e-05
-4.40978e-05
-2.28348e-05
-1.40322e-05
-9.14821e-06
-6.03918e-06
-3.7419e-06
-2.01502e-06
-7.01264e-07
3.97113e-07
1.34736e-06
2.17629e-06
2.88254e-06
3.45744e-06
3.91451e-06
4.27795e-06
4.56404e-06
4.77874e-06
4.9252e-06
5.01038e-06
5.04475e-06
5.03829e-06
4.99716e-06
4.93144e-06
4.84561e-06
4.7419e-06
4.62175e-06
4.48569e-06
4.33239e-06
4.17307e-06
4.01428e-06
3.86165e-06
3.72303e-06
3.61285e-06
3.55999e-06
3.64808e-06
3.83802e-06
4.10524e-06
5.16838e-06
1.03136e-05
7.26298e-06
-5.66039e-05
)
;
    }
    sWall
    {
        type            calculated;
        value           uniform -0.000271792;
    }
    nWall
    {
        type            calculated;
        value           nonuniform List<scalar> 6(-4.85122e-05 -5.8046e-05 -6.25031e-05 -7.47419e-05 -8.20223e-05 -0.000101816);
    }
    sideWalls
    {
        type            empty;
        value           nonuniform 0();
    }
    glass1
    {
        type            calculated;
        value           nonuniform List<scalar> 9(-5.72845e-05 -0.000154369 -0.000236189 -0.000305853 -0.000364997 -0.000414843 -0.0004594 -0.000513312 -0.000573649);
    }
    glass2
    {
        type            calculated;
        value           nonuniform List<scalar> 2(-0.000257842 -0.00028566);
    }
    sun
    {
        type            calculated;
        value           uniform 0;
    }
    heatsource1
    {
        type            calculated;
        value           nonuniform List<scalar> 3(2.04176e-07 2.0412e-07 2.04137e-07);
    }
    heatsource2
    {
        type            calculated;
        value           nonuniform List<scalar> 4(5.11896e-08 5.12741e-08 0 0);
    }
    Table_master
    {
        type            calculated;
        value           nonuniform List<scalar> 9(-1.53129e-07 -1.5322e-07 -1.53253e-07 -1.53274e-07 -1.5329e-07 -1.533e-07 -1.53305e-07 -1.533e-07 -1.5327e-07);
    }
    Table_slave
    {
        type            calculated;
        value           nonuniform List<scalar> 9(1.53007e-07 1.53027e-07 1.53005e-07 1.52988e-07 1.52981e-07 1.52984e-07 1.52999e-07 1.53041e-07 1.53122e-07);
    }
    inlet
    {
        type            calculated;
        value           uniform -0.0066285;
    }
    outlet
    {
        type            calculated;
        value           nonuniform List<scalar> 2(0.0082468 0.00289716);
    }
}


// ************************************************************************* //
