/*--------------------------------*- C++ -*----------------------------------*\
  =========                 |
  \\      /  F ield         | OpenFOAM: The Open Source CFD Toolbox
   \\    /   O peration     | Website:  https://openfoam.org
    \\  /    A nd           | Version:  6
     \\/     M anipulation  |
\*---------------------------------------------------------------------------*/
FoamFile
{
    version     2.0;
    format      ascii;
    class       volScalarField;
    location    "600";
    object      alphat;
}
// * * * * * * * * * * * * * * * * * * * * * * * * * * * * * * * * * * * * * //

dimensions      [1 -1 -1 0 0 0 0];

internalField   nonuniform List<scalar> 
459
(
0.000911948
0.000963252
0.0009634
0.000995172
0.00102158
0.00104362
0.00106252
0.00107941
0.00109548
0.00110981
0.00111901
0.0011214
0.00111661
0.00110754
0.00109815
0.000546076
0.000612625
0.000590689
0.000566763
0.000544525
0.000523824
0.000504126
0.00048601
0.000469524
0.000454571
0.000440921
0.000428329
0.000416557
0.000405312
0.00039417
0.000382491
0.000369139
0.000359334
0.00033346
0.00131814
0.00222924
0.00193615
0.00219895
0.0023725
0.00255826
0.00274316
0.00290924
0.00303009
0.00310476
0.00314243
0.00310841
0.00295238
0.00260155
0.00195437
0.00112553
0.000987709
0.000792645
0.000982364
0.00108792
0.00116241
0.0012015
0.00120376
0.00110629
0.00103792
0.000983418
0.000933835
0.000887369
0.000842906
0.000798414
0.000750457
0.000696601
0.000648333
0.000606478
0.000728492
0.000423464
0.0016828
0.00313051
0.00214907
0.00292888
0.00312713
0.00326812
0.00336968
0.00344446
0.00350219
0.00355178
0.00359619
0.00360856
0.00356083
0.0034348
0.00320932
0.00271472
0.00122079
0.000910911
0.00125057
0.0014225
0.00155752
0.00165819
0.00162103
0.000604292
0.00055544
0.000515047
0.000481649
0.000453896
0.0004307
0.000411315
0.000395417
0.000383356
0.000426002
0.00049788
0.000827631
0.000491675
0.00206111
0.00450127
0.00201159
0.00317775
0.00340454
0.00345547
0.00344986
0.00343172
0.0034334
0.00346497
0.00351408
0.00354708
0.00353366
0.00346915
0.00339657
0.00340614
0.00343161
0.00108201
0.00147158
0.00172843
0.00191242
0.00208194
0.00223431
0.00215525
0.000672689
0.000650599
0.000639958
0.000632475
0.000622063
0.000605224
0.000587281
0.000565929
0.000537607
0.000504742
0.000513825
0.000973917
0.000546905
0.0024576
0.00643235
0.00223362
0.00301587
0.00345565
0.00346107
0.00338421
0.00330663
0.00328677
0.00333279
0.0034197
0.00348917
0.00348974
0.00339
0.00321513
0.00315201
0.00339154
0.00318228
0.00280476
0.00262687
0.00258754
0.0026546
0.00276258
0.00283684
0.0026931
0.00268595
0.00269914
0.00269047
0.00263932
0.00252527
0.00228815
0.00196947
0.00159885
0.0011993
0.000880167
0.000946603
0.000676798
0.000728889
0.000869716
0.00096447
0.00287457
0.00860002
0.00358328
0.00257655
0.0032678
0.00339123
0.00332522
0.00320624
0.00315007
0.00322671
0.00337618
0.0034934
0.0035213
0.00340252
0.00312936
0.00294907
0.00317893
0.00320778
0.00297907
0.00284682
0.00280086
0.0028233
0.00290463
0.00301719
0.0031183
0.00320819
0.0032666
0.00328391
0.00325707
0.00318465
0.00301343
0.00272736
0.00232685
0.00183591
0.00137684
0.00102905
0.000848504
0.000797645
0.00121331
0.0010019
0.0033145
0.0104038
0.00660435
0.00322125
0.00256159
0.00271312
0.00296548
0.00313821
0.00308599
0.00323435
0.00341092
0.00353851
0.00357289
0.0034378
0.00309751
0.00283002
0.00307794
0.00321031
0.00301555
0.0028751
0.00277969
0.00278518
0.00286871
0.00298694
0.00310974
0.00321498
0.00328465
0.00331975
0.0033248
0.00330673
0.00326307
0.00305017
0.00268411
0.00221819
0.00178361
0.00137896
0.00114376
0.00110549
0.00120001
0.00108352
0.0034395
0.0105458
0.00840246
0.00622084
0.00445317
0.00344713
0.00311898
0.00323348
0.00335778
0.00345289
0.00355203
0.00363293
0.00363667
0.00345539
0.00302666
0.00268534
0.00303059
0.00326308
0.00302817
0.00279556
0.00268505
0.00269347
0.00275935
0.00284416
0.00292848
0.00300052
0.0030541
0.00309457
0.0031327
0.00318235
0.0032527
0.00327439
0.00297956
0.00259614
0.0022793
0.00215077
0.00230946
0.00296652
0.00407938
0.00177096
0.00339038
0.00416669
0.00469645
0.00480902
0.00457643
0.00418305
0.00386247
0.00371643
0.00364403
0.00364849
0.0036947
0.00373136
0.00367619
0.00339599
0.00283254
0.00243508
0.00299532
0.00331755
0.00296529
0.0026812
0.00256258
0.00254601
0.00256723
0.0025977
0.00262422
0.00263903
0.00263801
0.00262011
0.00258506
0.00253214
0.00246092
0.00237395
0.00229407
0.00225384
0.00228259
0.00236833
0.00243191
0.00239058
0.00225187
0.00164342
0.00258477
0.00406799
0.00442598
0.00438554
0.00426143
0.00416262
0.00408789
0.0040165
0.00393513
0.00381083
0.00357634
0.00310899
0.00240476
0.00201534
0.00297564
0.00335353
0.0028965
0.00257416
0.00243284
0.00237478
0.00234668
0.00233014
0.00231706
0.00230257
0.00228424
0.0022624
0.00224028
0.00222421
0.0022231
0.00224513
0.00227916
0.00233017
0.00239336
0.00243764
0.00241001
0.00228337
0.00206211
0.00134261
0.00271432
0.00469848
0.00494045
0.00478003
0.00460685
0.00441844
0.00421966
0.00396904
0.00364154
0.00326912
0.00284557
0.00231403
0.00169554
0.00140473
0.00247887
0.00260632
0.00229153
0.00205907
0.0019399
0.00187493
0.00184045
0.0018305
0.0018429
0.00187577
0.0019267
0.00199214
0.00206683
0.00214297
0.00221978
0.00230938
0.00241109
0.00252189
0.00262979
0.00271946
0.00274211
0.00281767
0.00262045
0.00135805
0.00237942
0.00249712
0.00259884
0.0027476
0.00258308
0.00233339
0.00215949
0.0019941
0.0018344
0.00168872
0.00156255
0.00144338
0.00132347
0.00119224
0.000921056
0.000689958
0.000695183
0.000692996
0.000683652
0.00068519
0.000694742
0.000709551
0.000728439
0.000750872
0.00077654
0.00080528
0.000837109
0.000872294
0.0009115
0.00095607
0.00100704
0.00106371
0.0011268
0.00119726
0.00127607
0.00137944
0.00141615
0.00138828
0.00129976
0.00120441
)
;

boundaryField
{
    floor
    {
        type            compressible::alphatWallFunction;
        Prt             0.85;
        value           nonuniform List<scalar> 
29
(
0.000156015
7.62802e-05
8.62375e-05
8.29583e-05
7.93624e-05
7.60028e-05
7.28598e-05
6.98543e-05
6.70772e-05
6.45384e-05
6.22259e-05
6.01065e-05
5.81438e-05
5.63022e-05
5.4537e-05
5.27814e-05
5.09345e-05
4.88139e-05
4.72503e-05
4.30977e-05
4.30971e-05
5.73806e-05
6.79437e-05
7.63613e-05
0.000156013
7.62792e-05
0.000112693
0.000129661
0.000153767
)
;
    }
    ceiling
    {
        type            compressible::alphatWallFunction;
        Prt             0.85;
        value           nonuniform List<scalar> 
43
(
0.000325983
0.00034099
0.000353902
0.000372784
0.000352033
0.000320239
0.000297872
0.000276416
0.000255513
0.000236269
0.000219455
0.000203434
0.000187165
0.000169168
0.000131245
9.78222e-05
9.85891e-05
9.8272e-05
9.68962e-05
9.71222e-05
9.85279e-05
0.000100703
0.000103469
0.000106743
0.000110475
0.000114637
0.000119225
0.000124273
0.000129869
0.000136197
0.000143392
0.000151341
0.000160134
0.000169888
0.00018072
0.000194813
0.00019979
0.000196015
0.000183963
0.000170878
0.000453065
0.000547672
0.000368424
)
;
    }
    sWall
    {
        type            compressible::alphatWallFunction;
        Prt             0.85;
        value           uniform 0.000324755;
    }
    nWall
    {
        type            compressible::alphatWallFunction;
        Prt             0.85;
        value           nonuniform List<scalar> 6(0.000137046 0.000142323 0.000153756 0.000189463 0.000191562 0.000170535);
    }
    sideWalls
    {
        type            empty;
    }
    glass1
    {
        type            compressible::alphatWallFunction;
        Prt             0.85;
        value           nonuniform List<scalar> 9(0.000126187 0.000181806 0.000230228 0.00027936 0.000329906 0.000382203 0.000436567 0.00045201 0.000446212);
    }
    glass2
    {
        type            compressible::alphatWallFunction;
        Prt             0.85;
        value           nonuniform List<scalar> 2(0.000245203 0.000228448);
    }
    sun
    {
        type            compressible::alphatWallFunction;
        Prt             0.85;
        value           nonuniform List<scalar> 
14
(
0.000129822
0.000137084
0.000137105
0.00014159
0.000145304
0.000148397
0.000151042
0.000153401
0.000155643
0.000157636
0.000158916
0.000159248
0.000158582
0.000157321
)
;
    }
    heatsource1
    {
        type            compressible::alphatWallFunction;
        Prt             0.85;
        value           nonuniform List<scalar> 3(0.000103553 0.000123923 0.000137406);
    }
    heatsource2
    {
        type            compressible::alphatWallFunction;
        Prt             0.85;
        value           nonuniform List<scalar> 4(0.000159977 0.000140698 0.000140697 0.000173154);
    }
    Table_master
    {
        type            compressible::alphatWallFunction;
        Prt             0.85;
        value           nonuniform List<scalar> 9(8.51288e-05 7.77817e-05 7.16463e-05 6.65279e-05 6.22404e-05 5.86316e-05 5.55966e-05 5.30937e-05 5.11864e-05);
    }
    Table_slave
    {
        type            compressible::alphatWallFunction;
        Prt             0.85;
        value           nonuniform List<scalar> 9(9.52944e-05 9.20259e-05 9.04467e-05 8.93343e-05 8.77838e-05 8.52691e-05 8.25801e-05 7.9367e-05 7.50816e-05);
    }
    inlet
    {
        type            fixedValue;
        value           uniform 1.94e-05;
    }
    outlet
    {
        type            zeroGradient;
    }
}


// ************************************************************************* //
