/*--------------------------------*- C++ -*----------------------------------*\
  =========                 |
  \\      /  F ield         | OpenFOAM: The Open Source CFD Toolbox
   \\    /   O peration     | Website:  https://openfoam.org
    \\  /    A nd           | Version:  6
     \\/     M anipulation  |
\*---------------------------------------------------------------------------*/
FoamFile
{
    version     2.0;
    format      ascii;
    class       surfaceScalarField;
    location    "1100";
    object      phi;
}
// * * * * * * * * * * * * * * * * * * * * * * * * * * * * * * * * * * * * * //

dimensions      [1 0 -1 0 0 0 0];

internalField   nonuniform List<scalar> 
852
(
-0.00295772
0.00301522
-0.00399307
0.00103535
-0.00479163
0.000798568
-0.00541506
0.00062343
-0.00582966
0.0004146
-0.00600727
0.000177614
-0.00591965
-8.76094e-05
-0.00554449
-0.000375161
-0.00489682
-0.000647665
-0.00404075
-0.000856058
-0.00307536
-0.000965393
-0.00211189
-0.000963458
-0.00125172
-0.000860172
-0.000554986
-0.000696728
-0.000553294
-0.000778525
0.00078156
-0.000522452
-0.000256069
7.14227e-05
-0.000593871
0.000570184
-0.000498757
0.000915745
-0.000345558
0.00114063
-0.000224884
0.00126573
-0.000125091
0.00132608
-6.03499e-05
0.0013593
-3.322e-05
0.00137958
-2.02768e-05
0.0013909
-1.13168e-05
0.00139481
-3.89958e-06
0.00139002
4.79505e-06
0.00136913
2.08906e-05
0.00131129
5.78396e-05
0.00118158
0.000129715
0.000968976
0.00021261
0.000712128
0.000256852
0.000716194
-0.00211936
0.00528948
-0.0031378
0.0020538
-0.00396649
0.00162726
-0.00458669
0.00124363
-0.00499982
0.000827738
-0.00518686
0.000364661
-0.00511632
-0.000158146
-0.00476996
-0.000721523
-0.00417522
-0.0012424
-0.00340705
-0.00162422
-0.00256291
-0.00180953
-0.00173757
-0.00178879
-0.00101153
-0.00158622
-0.000460093
-0.00124816
-0.000195867
-0.000817516
0.000104973
-0.000300887
0.000104926
0.000258257
0.000532138
0.000658712
-0.00065652
0.000922743
-0.000857899
0.00114529
-0.000721298
0.00132236
-0.000522629
0.00143659
-0.000339111
0.00145678
-0.000145273
0.00146177
-6.53371e-05
0.00146785
-3.92966e-05
0.00147297
-2.53977e-05
0.00147638
-1.47213e-05
0.00147822
-5.7324e-06
0.00147786
5.15013e-06
0.00147217
2.65872e-05
0.00143358
9.64388e-05
0.0012677
0.000295589
0.000979979
0.000500339
0.000621519
0.000615315
0.00134803
-0.00149022
0.00701667
-0.00237298
0.00293656
-0.0031144
0.00236869
-0.00365153
0.00178077
-0.00401902
0.00119523
-0.00419289
0.000538539
-0.00411903
-0.000232005
-0.00377056
-0.00106999
-0.00320034
-0.00181261
-0.00250154
-0.00232302
-0.00176865
-0.00254242
-0.00107513
-0.00248231
-0.00047313
-0.00218822
1.47282e-06
-0.00172276
0.000315041
-0.00113108
0.000460623
-0.000446465
0.000565552
0.0014915
-0.000949706
0.0017102
-0.000875213
0.0016662
-0.000813893
0.00165427
-0.000709369
0.00167899
-0.00054735
0.00172016
-0.000380274
0.00157504
0.00150986
0.00147072
0.00144548
0.00143092
0.00142534
0.00143065
0.00145739
0.00155399
0.00128218
0.000567401
0.000950234
0.000832286
0.00053385
0.0010317
0.00189748
-0.00104418
0.00836766
-0.00174771
0.00364009
-0.00224708
0.00286807
-0.00260803
0.00214172
-0.00286247
0.00144968
-0.0029747
0.000650768
-0.00284754
-0.000359153
-0.00246175
-0.00145578
-0.00191746
-0.00235689
-0.00131779
-0.00292268
-0.000738142
-0.00312206
-0.000219618
-0.00300083
0.000221652
-0.00262948
0.00058512
-0.00208622
0.000908777
-0.00145473
0.00127333
-0.000811013
0.00211276
-0.000273873
0.00247619
-0.000354908
0.00212255
-0.000596064
0.00199079
-0.000743452
0.00186641
-0.000689507
0.0017546
-0.000597555
0.00168479
-0.000477533
0.00163068
-0.000326164
0.00177351
-0.000142984
0.00186306
-8.96987e-05
0.0019359
-7.29912e-05
0.00199347
-5.77154e-05
0.00202121
-2.78924e-05
0.00199685
2.42086e-05
0.00189452
0.000102174
0.00168061
0.000213761
0.00130002
0.000380441
0.00113708
0.000730344
0.000821404
0.00114796
0.000348461
0.00150465
0.00226626
-0.000729982
0.00946372
-0.00126595
0.00417606
-0.00139012
0.00299224
-0.00148631
0.00223792
-0.00155156
0.00151493
-0.0015208
0.000620009
-0.00125447
-0.000625476
-0.000817665
-0.00189258
-0.000342575
-0.00283198
9.12681e-05
-0.00335652
0.000447896
-0.00347868
0.000721641
-0.00327457
0.000932868
-0.0028407
0.00111168
-0.00226503
0.00129214
-0.00163518
0.00152163
-0.00104051
0.00184349
-0.000595728
0.00195076
-0.00046217
0.00187103
-0.000516336
0.00169741
-0.000569833
0.00154244
-0.000534531
0.00141032
-0.000465427
0.0013145
-0.000381718
0.00127116
-0.000282815
0.00131697
-0.00018879
0.00137397
-0.000146705
0.0014355
-0.000134511
0.001498
-0.000120217
0.00155067
-8.05656e-05
0.00157257
2.31143e-06
0.00154163
0.000133121
0.0014459
0.000309487
0.00128684
0.00053951
0.00113762
0.000879563
0.000969412
0.00131617
0.000606431
0.00186763
0.000494929
0.00237776
-0.000997696
0.00149242
-0.00145951
0.000461612
-0.0014108
-0.000632237
0.010512
-0.00100147
0.00454529
-0.000609543
0.00260032
-0.000321194
0.00194958
-0.000112196
0.00130594
0.000201868
0.000305949
0.000675353
-0.00109896
0.00111251
-0.00232973
0.00142804
-0.0031475
0.00160605
-0.00353453
0.00167008
-0.00354271
0.00165311
-0.00325759
0.00158663
-0.00277423
0.00150807
-0.00218646
0.00145075
-0.00157786
0.00143968
-0.00102943
0.00146865
-0.000624693
0.00143674
-0.00043026
0.0013133
-0.000392894
0.00113626
-0.000392785
0.000974222
-0.00037249
0.00084579
-0.000336992
0.000759118
-0.000295044
0.000725054
-0.00024875
0.000746883
-0.000210616
0.000799632
-0.000199452
0.000869191
-0.000204068
0.000949615
-0.00020064
0.00103473
-0.000165679
0.00111295
-7.59092e-05
0.00116527
8.08035e-05
0.00118567
0.00028909
0.00118353
0.000541648
0.00120352
0.000859577
0.00129204
0.00122766
0.00146505
0.00169462
0.00190358
0.00193924
0.00216387
0.00123213
0.00177649
0.000848998
0.000424194
-0.000720781
0.0116934
-0.000608982
0.0044335
0.000463888
0.00152745
0.00113252
0.00128095
0.00169123
0.000747241
0.00232968
-0.000332501
0.00288678
-0.00165605
0.00319717
-0.00264012
0.0032545
-0.00320482
0.00310392
-0.00338394
0.00280856
-0.00324734
0.00243243
-0.00288146
0.00202989
-0.00237167
0.0016491
-0.00180567
0.00132317
-0.00125193
0.00107213
-0.000778389
0.000893572
-0.000446133
0.000741827
-0.000278511
0.000581658
-0.000232723
0.000420555
-0.00023168
0.000281863
-0.000233795
0.000177058
-0.000232186
0.000110678
-0.000228661
8.71645e-05
-0.000225235
0.000104772
-0.000228223
0.00014982
-0.000244499
0.000211717
-0.000265963
0.000288551
-0.000277473
0.000384337
-0.000261464
0.000504075
-0.000195646
0.000636143
-5.12637e-05
0.000768212
0.000157022
0.000909674
0.000400187
0.00109904
0.000670207
0.00138276
0.000943941
0.00182746
0.00124993
0.00249754
0.00126917
0.00304217
0.000687498
0.00306344
0.000827732
0.00355053
0.00260133
0.00960678
0.00327631
0.00375853
0.0034333
0.00137047
0.00387482
0.000839428
0.0045539
6.81663e-05
0.00524527
-0.00102387
0.00553238
-0.00194315
0.00541557
-0.00252331
0.00498004
-0.00276928
0.0043293
-0.0027332
0.0035652
-0.00248323
0.00277441
-0.00209067
0.0020166
-0.00161387
0.00134686
-0.00113593
0.000792912
-0.000697981
0.000376236
-0.00036171
9.68039e-05
-0.000166699
-9.0058e-05
-9.16473e-05
-0.000233381
-8.93981e-05
-0.000354101
-0.000110959
-0.000453354
-0.000134541
-0.00052892
-0.000156617
-0.000579909
-0.000177671
-0.000605988
-0.000199154
-0.000610353
-0.000223857
-0.000601795
-0.000253056
-0.000586291
-0.000281466
-0.000563253
-0.00030051
-0.000524434
-0.000300282
-0.00045083
-0.000269249
-0.000311309
-0.000190783
-0.000119806
-3.44796e-05
0.00010438
0.000176002
0.000380543
0.000394045
0.000718425
0.00060606
0.00115785
0.000810505
0.00162695
0.000800069
0.00181039
0.000504058
0.00105767
0.00158046
0.00486855
0.0101718
0.0139233
0.0122309
0.00306279
0.0113122
0.00175817
0.0105746
0.000805737
0.00969232
-0.000141536
0.00855254
-0.000803362
0.0072624
-0.00123317
0.00591625
-0.00142312
0.00458226
-0.00139921
0.00332295
-0.00122392
0.00218997
-0.00095769
0.00119246
-0.000616348
0.000373045
-0.000316516
-0.000233755
-9.11797e-05
-0.000614498
1.9035e-05
-0.000822489
4.12938e-05
-0.000941858
2.77233e-05
-0.00103071
-5.47193e-07
-0.00110989
-3.1772e-05
-0.00118204
-6.23895e-05
-0.00124694
-9.17226e-05
-0.00130515
-0.00011946
-0.00135834
-0.000145957
-0.0014106
-0.000171593
-0.00146921
-0.000194444
-0.00154161
-0.00020907
-0.00163515
-0.000206968
-0.00175884
-0.000176594
-0.00192415
-0.000103932
-0.00213881
2.38769e-05
-0.00238936
0.000216067
-0.00270084
0.000487488
-0.00316107
0.000854278
-0.00386669
0.00131168
-0.00488087
0.00182469
-0.00631634
0.00223554
-0.00803939
0.00222711
-0.00751674
0.00105781
-0.00235961
0.00511094
0.00457758
0.00411527
0.00275384
0.00452275
0.000398271
0.00456473
-0.000183509
0.00416008
-0.000398702
0.00348092
-0.000554
0.00263642
-0.000578623
0.00171844
-0.000481217
0.000801708
-0.000307186
-6.12206e-05
-9.47624e-05
-0.000767124
8.95557e-05
-0.00123306
0.00014942
-0.0014871
0.000162867
-0.00161153
0.000143463
-0.00168004
0.000109799
-0.00172837
7.60625e-05
-0.0017736
4.46785e-05
-0.00182259
1.72236e-05
-0.00187888
-6.10164e-06
-0.00194255
-2.80492e-05
-0.00201321
-4.87989e-05
-0.00209191
-6.72559e-05
-0.00218008
-8.34245e-05
-0.00227989
-9.46325e-05
-0.00239242
-9.65344e-05
-0.00251641
-8.29811e-05
-0.00264703
-4.59739e-05
-0.0027752
2.42386e-05
-0.00288881
0.000137487
-0.00298554
0.000312807
-0.00307406
0.000576004
-0.00316177
0.000941994
-0.00324678
0.00139669
-0.00328119
0.0018591
-0.00320305
0.0021574
-0.00282866
0.00185272
-0.00155595
-0.000214902
-0.00384008
-0.000456019
0.00508977
0.000848735
0.0014491
0.000834091
0.000412922
0.000578746
7.18391e-05
0.000215976
-3.59318e-05
-0.000298967
-3.90615e-05
-0.000889476
1.18846e-05
-0.00144697
7.62752e-05
-0.00188824
0.000134082
-0.00216135
0.000178348
-0.00227144
0.00019965
-0.00230905
0.000187029
-0.00230786
0.000161683
-0.00229716
0.000132756
-0.00229345
0.000106097
-0.00230065
8.32594e-05
-0.00231878
6.28113e-05
-0.00234562
4.40635e-05
-0.00237879
2.70666e-05
-0.00241878
1.19417e-05
-0.00246559
-1.98439e-06
-0.00251903
-1.38102e-05
-0.00257891
-2.35496e-05
-0.00264346
-3.00806e-05
-0.00270871
-3.12826e-05
-0.00276773
-2.39558e-05
-0.00280981
-3.89777e-06
-0.00282257
3.69981e-05
-0.00279271
0.000107633
-0.00269665
0.000216752
-0.0025012
0.000380549
-0.00217928
0.000620083
-0.00171737
0.00093478
-0.00109235
0.00123408
-0.000122503
0.00118756
0.00117152
0.000558691
0.00156841
-0.000611787
-0.0021888
-0.00797897
-0.0108317
-0.00569784
-0.00422561
-0.00379822
-0.00371674
-0.00374614
-0.00378093
-0.00376648
-0.0036889
-0.00355456
-0.00337683
-0.00317855
-0.00299353
-0.00283438
-0.00270456
-0.00260173
-0.00252197
-0.00246283
-0.00242255
-0.00239933
-0.00239124
-0.00239706
-0.00241467
-0.00244195
-0.0024757
-0.00251056
-0.00253799
-0.00254526
-0.00251152
-0.00240701
-0.00219327
-0.00181562
-0.00119834
-0.000266291
0.00096506
0.00214979
0.00270547
0.00209046
)
;

boundaryField
{
    floor
    {
        type            calculated;
        value           nonuniform List<scalar> 
29
(
0
0
0
0
0
0
0
0
0
0
0
0
0
0
0
0
0
0
0
0
-4.06176e-06
-1.03158e-05
-1.55929e-05
-2.03178e-05
-1.68827e-06
-3.03207e-06
-8.83136e-06
-9.65333e-06
-8.5178e-06
)
;
    }
    ceiling
    {
        type            calculated;
        value           nonuniform List<scalar> 
43
(
-4.66411e-05
-4.53631e-05
-4.40919e-05
-2.31327e-05
-1.44681e-05
-9.64183e-06
-6.54021e-06
-4.26957e-06
-2.56639e-06
-1.29988e-06
-2.61447e-07
6.18631e-07
1.37448e-06
2.01299e-06
2.53112e-06
2.94005e-06
3.25913e-06
3.50193e-06
3.67518e-06
3.78513e-06
3.84171e-06
3.85651e-06
3.83921e-06
3.79656e-06
3.73729e-06
3.66403e-06
3.57852e-06
3.48183e-06
3.37426e-06
3.25458e-06
3.13143e-06
3.01121e-06
2.89907e-06
2.80218e-06
2.73378e-06
2.72911e-06
2.83173e-06
3.00607e-06
3.23213e-06
4.23969e-06
1.0119e-05
7.08902e-06
-5.61668e-05
)
;
    }
    sWall
    {
        type            calculated;
        value           uniform -0.000271077;
    }
    nWall
    {
        type            calculated;
        value           nonuniform List<scalar> 6(-4.89149e-05 -5.8497e-05 -6.28975e-05 -7.54768e-05 -8.28673e-05 -0.000102584);
    }
    sideWalls
    {
        type            empty;
        value           nonuniform 0();
    }
    glass1
    {
        type            calculated;
        value           nonuniform List<scalar> 9(-5.74943e-05 -0.000154903 -0.000236961 -0.000306798 -0.000366074 -0.000416027 -0.000460653 -0.00051468 -0.000575159);
    }
    glass2
    {
        type            calculated;
        value           nonuniform List<scalar> 2(-0.000260343 -0.000288575);
    }
    sun
    {
        type            calculated;
        value           uniform 0;
    }
    heatsource1
    {
        type            calculated;
        value           nonuniform List<scalar> 3(2.04248e-07 2.04182e-07 2.04199e-07);
    }
    heatsource2
    {
        type            calculated;
        value           nonuniform List<scalar> 4(5.12022e-08 5.12902e-08 0 0);
    }
    Table_master
    {
        type            calculated;
        value           nonuniform List<scalar> 9(-1.53179e-07 -1.53268e-07 -1.533e-07 -1.53322e-07 -1.53338e-07 -1.53349e-07 -1.53354e-07 -1.5335e-07 -1.5332e-07);
    }
    Table_slave
    {
        type            calculated;
        value           nonuniform List<scalar> 9(1.53055e-07 1.53071e-07 1.53049e-07 1.5303e-07 1.53022e-07 1.53025e-07 1.53039e-07 1.53081e-07 1.53163e-07);
    }
    inlet
    {
        type            calculated;
        value           uniform -0.00662572;
    }
    outlet
    {
        type            calculated;
        value           nonuniform List<scalar> 2(0.00829669 0.0028981);
    }
}


// ************************************************************************* //
