/*--------------------------------*- C++ -*----------------------------------*\
  =========                 |
  \\      /  F ield         | OpenFOAM: The Open Source CFD Toolbox
   \\    /   O peration     | Website:  https://openfoam.org
    \\  /    A nd           | Version:  6
     \\/     M anipulation  |
\*---------------------------------------------------------------------------*/
FoamFile
{
    version     2.0;
    format      ascii;
    class       surfaceScalarField;
    location    "200";
    object      phi;
}
// * * * * * * * * * * * * * * * * * * * * * * * * * * * * * * * * * * * * * //

dimensions      [1 0 -1 0 0 0 0];

internalField   nonuniform List<scalar> 
852
(
-0.00243184
0.00249984
-0.00246793
3.62882e-05
-0.00252802
6.02826e-05
-0.00267814
0.00015031
-0.00285041
0.000172467
-0.00300526
0.000155039
-0.00311832
0.00011325
-0.00317046
5.2321e-05
-0.00314403
-2.6235e-05
-0.00302068
-0.000123164
-0.00278366
-0.000236843
-0.00241953
-0.000363947
-0.0018995
-0.000519841
-0.0011288
-0.000770518
-0.00112562
-0.000902873
0.000910344
-0.000927525
2.47697e-05
-0.000722479
-0.000204923
-0.000616423
-0.000105923
-0.000612237
-4.04591e-06
-0.000555701
-5.63941e-05
-0.000321818
-0.000233742
2.33377e-05
-0.000345014
0.000249177
-0.000225695
0.000401686
-0.000152363
0.000518372
-0.000116541
0.000611058
-9.25412e-05
0.000680315
-6.911e-05
0.000724541
-4.40781e-05
0.00078357
-5.88817e-05
0.000881366
-9.76487e-05
0.000995769
-0.000114251
0.000925138
7.07868e-05
0.000931945
-0.00174518
0.00441684
-0.00220949
0.000500792
-0.00245219
0.000303178
-0.00265139
0.000349706
-0.00283864
0.000359912
-0.00299982
0.000316406
-0.00311925
0.00023287
-0.00318245
0.000115712
-0.00317594
-3.25532e-05
-0.00308784
-0.000211079
-0.00290473
-0.00041977
-0.00261101
-0.000657474
-0.00219704
-0.000933625
-0.00171453
-0.00125285
-0.00130129
-0.00153867
0.000177506
-0.00147867
0.000177641
0.00105799
-0.000129663
0.000884259
0.000198608
0.00039545
0.000283993
0.000104025
0.000185613
-3.10883e-05
0.000131187
-0.00029829
0.000210933
-0.000237683
-0.000294208
-0.000164724
-0.000417825
-0.000148346
-0.000241919
-0.000146695
-0.000153857
-0.000158562
-0.000104514
-0.000183859
-6.70816e-05
-0.000229956
-2.28454e-05
-0.000297865
2.40063e-05
-0.00034154
-1.50282e-05
-0.000209304
-0.000229701
0.000112283
-0.000435648
0.000233444
-5.01954e-05
0.00118245
-0.00127518
0.00594339
-0.00191327
0.00113907
-0.00225803
0.000648138
-0.00249954
0.000591413
-0.00270339
0.000563952
-0.00287375
0.000486961
-0.00300506
0.000364373
-0.00308913
0.000199975
-0.00311765
-3.84743e-06
-0.0030851
-0.00024343
-0.00299076
-0.000513925
-0.00283675
-0.000811296
-0.00263718
-0.00113301
-0.00243082
-0.00145903
-0.00225326
-0.00171604
-0.00193264
-0.0017991
-0.00175482
-0.000595383
0.000483734
-0.000743703
0.000347058
-0.000685708
0.000226124
-0.000585989
8.60197e-05
-0.0004103
-4.43743e-05
6.2169e-05
-0.000261396
-0.00023175
-0.000649258
-0.000890846
-0.00104436
-0.00114853
-0.00121525
-0.00123774
-0.00121337
-0.00122804
-0.00119454
-0.000263003
-0.00164408
1.40893e-05
-0.0016832
-1.0865e-05
-0.000479029
-0.00093579
0.00719512
-0.00163912
0.0018426
-0.00201203
0.00102124
-0.00227346
0.000853047
-0.00247572
0.000766408
-0.00263491
0.00064634
-0.00275654
0.000486198
-0.00284063
0.000284266
-0.00288535
4.10648e-05
-0.00289218
-0.00023641
-0.00287509
-0.000530819
-0.00285623
-0.000829963
-0.00286578
-0.00112327
-0.00293936
-0.00138526
-0.00308843
-0.00156678
-0.00329292
-0.00159442
-0.00380714
-0.00124042
-0.00313089
-0.000661163
-0.00248654
-0.000160446
-0.00219952
6.02086e-05
-0.00202169
4.8472e-05
-0.00191526
-2.02281e-05
-0.00183119
-0.000128249
-0.00186691
-0.00022549
-0.0016421
-0.000224774
-0.0013973
-0.000244755
-0.00113659
-0.000260675
-0.00087425
-0.000262298
-0.00062572
-0.000248491
-0.000403313
-0.000222368
-0.000210469
-0.000192805
-3.84606e-05
-0.00017197
0.000128581
-0.000166999
0.000142599
-0.000276824
0.000389848
-0.000232952
0.000499885
-0.000120677
3.91414e-05
-0.000687892
0.00825423
-0.00142107
0.00257598
-0.00174038
0.00134076
-0.00199179
0.00110466
-0.00217097
0.000945789
-0.00228877
0.000764328
-0.00236169
0.000559316
-0.00240064
0.000323415
-0.00241022
5.08486e-05
-0.00239948
-0.000246953
-0.00239308
-0.000537027
-0.0024189
-0.000803944
-0.00249846
-0.00104351
-0.00264124
-0.00124228
-0.00284082
-0.001367
-0.00308249
-0.00135255
-0.00321363
-0.00110908
-0.00312862
-0.000745977
-0.00286289
-0.000425986
-0.00256762
-0.000234863
-0.00233859
-0.000180363
-0.00215873
-0.000199895
-0.00202243
-0.000264353
-0.0019168
-0.000330927
-0.00176762
-0.000373762
-0.001603
-0.000409173
-0.00143329
-0.000430193
-0.00126602
-0.000429366
-0.00111004
-0.000404274
-0.00097042
-0.000361788
-0.000843817
-0.000319206
-0.000713137
-0.000302448
-0.000536127
-0.000343803
-0.000329754
-0.000482988
0.000115493
-0.000677984
0.000897825
-0.000902785
0.00201287
-0.00107566
0.00281873
-0.000805834
0.0023079
0.000510865
0.00235436
-0.000653756
0.00932809
-0.00135439
0.00327681
-0.00141571
0.00140229
-0.00159314
0.00128229
-0.00176369
0.00111654
-0.0018287
0.000829535
-0.00182059
0.000551407
-0.00177503
0.000278059
-0.0017059
-1.80837e-05
-0.00163599
-0.000316654
-0.0016025
-0.000570314
-0.00162984
-0.000776409
-0.00172816
-0.000944985
-0.00189288
-0.00107735
-0.00210595
-0.00115372
-0.00232665
-0.00113165
-0.0024554
-0.000980131
-0.00245224
-0.000748941
-0.00234105
-0.000536976
-0.00218286
-0.000392851
-0.00203475
-0.000328273
-0.00191188
-0.000322566
-0.0018206
-0.000355427
-0.00175033
-0.000401006
-0.00168184
-0.00044205
-0.00161614
-0.000474671
-0.00155774
-0.000488399
-0.0015132
-0.000473699
-0.0014897
-0.000427579
-0.00149137
-0.000359912
-0.00151559
-0.000294782
-0.00155191
-0.000265923
-0.00157725
-0.000318257
-0.00156838
-0.00049164
-0.0014411
-0.000805049
-0.00106053
-0.00128315
-0.000242313
-0.00189366
0.00110679
-0.00215472
0.0016934
-7.55284e-05
0.00410247
-0.000910029
0.0107033
-0.00106777
0.00343475
-0.000594024
0.000928757
-0.000684234
0.00137272
-0.000989429
0.00142195
-0.00107184
0.000912156
-0.000988151
0.000467924
-0.000843134
0.000133249
-0.000696149
-0.000164861
-0.000585263
-0.000427333
-0.00053859
-0.00061678
-0.000571624
-0.000743166
-0.000685061
-0.000831338
-0.000866609
-0.000895591
-0.00108967
-0.000930455
-0.00130928
-0.000911821
-0.00146816
-0.000821046
-0.00153506
-0.000681826
-0.00152673
-0.000545094
-0.00147665
-0.000442728
-0.00141878
-0.00038593
-0.00137217
-0.000368974
-0.0013466
-0.000380795
-0.00134137
-0.000406027
-0.00135207
-0.000431146
-0.00138062
-0.000445928
-0.00143297
-0.000435849
-0.0015196
-0.000386866
-0.0016545
-0.000292471
-0.00185071
-0.000163501
-0.00211022
-3.50656e-05
-0.00242108
4.51407e-05
-0.00276538
2.62502e-05
-0.00311752
-0.000139295
-0.00343486
-0.000487503
-0.00366334
-0.00105446
-0.00370139
-0.00185541
-0.00325184
-0.00260405
-0.00126588
-0.00206128
0.00290196
0.00179752
0.00942734
0.00241798
0.00281448
0.00227149
0.00107546
0.00160094
0.00204349
0.00101251
0.0020106
0.00074473
0.00118016
0.000674618
0.000538256
0.000711549
9.65346e-05
0.000785998
-0.000239097
0.00082028
-0.000461401
0.000792074
-0.00058836
0.000703439
-0.000654318
0.000557062
-0.000684746
0.00035726
-0.000695572
0.000119376
-0.000692355
-0.000120851
-0.000671376
-0.000318942
-0.000622738
-0.000450867
-0.000549684
-0.000524292
-0.000471453
-0.00055975
-0.000407054
-0.000579519
-0.000365946
-0.000600165
-0.000348115
-0.000632252
-0.000348495
-0.000679777
-0.000358292
-0.000743269
-0.000367446
-0.000824302
-0.000364688
-0.000926481
-0.000333465
-0.00105699
-0.000256153
-0.00122836
-0.000120905
-0.00146534
7.36857e-05
-0.00181418
0.000313975
-0.0023231
0.00055426
-0.00301074
0.000714095
-0.00384608
0.000696246
-0.00475225
0.000418861
-0.00569479
-0.000111714
-0.0068527
-0.000697291
-0.00817975
-0.00127679
-0.00761682
-0.002624
-0.004417
0.0100093
0.0128208
0.00998428
0.00391218
0.00685485
0.00517312
0.00536547
0.0035002
0.00445088
0.00209496
0.00382418
0.00116518
0.00335748
0.000563459
0.00296433
0.000154268
0.00263081
-0.000127663
0.00235184
-0.000309159
0.00210782
-0.000410078
0.0018778
-0.000454501
0.00164565
-0.000463204
0.00140502
-0.000451501
0.00116335
-0.000429478
0.000941273
-0.000400439
0.00075767
-0.000365856
0.000616917
-0.000330476
0.000510676
-0.000300588
0.000425334
-0.000280379
0.000348065
-0.000270624
0.000269256
-0.000269464
0.000183829
-0.000272646
9.06791e-05
-0.000274078
-8.22188e-06
-0.000265572
-0.000106373
-0.000235102
-0.000194335
-0.000167983
-0.000263756
-5.12782e-05
-0.000316505
0.000126639
-0.000360525
0.000358197
-0.000402998
0.000596934
-0.000445853
0.00075715
-0.000496018
0.000746611
-0.000605495
0.000528537
-0.000871102
0.000154093
-0.00129796
-0.000270231
-0.00180586
-0.000768693
-0.00192761
-0.00250205
-0.00601775
-0.000535159
0.00352855
0.00185646
0.00278176
0.00323647
0.00212041
0.00370196
0.0016297
0.00382375
0.00104361
0.00381858
0.000568858
0.00373124
0.000241834
0.00358166
2.21488e-05
0.00339496
-0.000122227
0.00319198
-0.000206867
0.00298444
-0.000246729
0.00277675
-0.000255279
0.00256969
-0.000244209
0.00236388
-0.000223435
0.00216399
-0.000200313
0.00197786
-0.00017949
0.0018113
-0.000163687
0.00166489
-0.000153933
0.00153458
-0.000149836
0.00141438
-0.000150193
0.00129862
-0.000153468
0.0011838
-0.000157595
0.00106961
-0.000159668
0.000959651
-0.000155385
0.000862693
-0.000137923
0.000792726
-9.7798e-05
0.000766419
-2.4757e-05
0.000802746
9.05225e-05
0.000913797
0.000247354
0.00109476
0.000416177
0.00131725
0.000534866
0.00153101
0.000533053
0.00168438
0.000375365
0.00176357
7.51109e-05
0.00183442
-0.000340883
0.00199852
-0.000932584
0.00167223
-0.00217555
-0.00427249
-0.000911396
0.00443236
0.00112469
0.000745937
0.00234999
0.000895365
0.00317308
0.000806864
0.00368667
0.000530272
0.00395574
0.000300031
0.0040593
0.000138516
0.00405511
2.65856e-05
0.00397724
-4.41199e-05
0.00385567
-8.50426e-05
0.00371225
-0.000103067
0.00356177
-0.000104555
0.00341308
-9.52666e-05
0.00326987
-7.99814e-05
0.00313249
-6.2681e-05
0.00299986
-4.66179e-05
0.00287067
-3.42511e-05
0.00274391
-2.69298e-05
0.00261905
-2.47364e-05
0.00249588
-2.67773e-05
0.00237432
-3.16696e-05
0.00225479
-3.78256e-05
0.00213888
-4.35165e-05
0.0020304
-4.66749e-05
0.00193702
-4.43111e-05
0.00187202
-3.2572e-05
0.00185412
-6.63508e-06
0.00190748
3.73884e-05
0.00205234
0.00010271
0.00228798
0.000180748
0.00258073
0.000242337
0.00286615
0.000247843
0.00306925
0.000172469
0.00312908
1.55e-05
0.00302177
-0.000233362
0.00266612
-0.000576723
0.00164872
-0.00115793
-0.00253486
-0.00286279
-0.00345183
0.000970596
0.00170888
0.00259723
0.00339738
0.003921
0.00421431
0.00434599
0.00436558
0.00431436
0.00422216
0.00411193
0.00400025
0.00389797
0.00381113
0.00374183
0.00368891
0.00364875
0.00361639
0.0035868
0.00355583
0.0035207
0.00348023
0.00343493
0.0033874
0.00334323
0.00331182
0.00330742
0.00334815
0.0034553
0.0036415
0.00389014
0.004145
0.00432507
0.00434873
0.00412408
0.00355665
0.00240844
)
;

boundaryField
{
    floor
    {
        type            calculated;
        value           nonuniform List<scalar> 
29
(
0
0
0
0
0
0
0
0
0
0
0
0
0
0
0
0
0
0
0
0
-6.64994e-06
-1.6897e-05
-2.15274e-05
-1.80585e-05
-2.99705e-06
-7.35556e-06
-1.78641e-05
-1.78833e-05
-1.49117e-05
)
;
    }
    ceiling
    {
        type            calculated;
        value           nonuniform List<scalar> 
43
(
1.57884e-05
1.27974e-05
1.02412e-05
7.9655e-06
7.317e-06
7.00065e-06
6.93546e-06
6.9961e-06
7.11648e-06
7.26145e-06
7.36978e-06
7.42636e-06
7.43237e-06
7.38558e-06
7.2817e-06
7.11496e-06
6.87838e-06
6.56448e-06
6.16651e-06
5.68018e-06
5.10507e-06
4.44493e-06
3.70647e-06
2.89739e-06
2.02437e-06
1.09212e-06
1.04539e-07
-9.31202e-07
-1.99937e-06
-3.10764e-06
-4.20733e-06
-5.2181e-06
-6.0788e-06
-6.78384e-06
-7.37876e-06
-7.93112e-06
-8.48236e-06
-9.07084e-06
-9.48995e-06
-9.56976e-06
5.11722e-06
3.17895e-06
7.8877e-06
)
;
    }
    sWall
    {
        type            calculated;
        value           uniform -0.000129011;
    }
    nWall
    {
        type            calculated;
        value           nonuniform List<scalar> 6(-4.64357e-05 -5.44838e-05 -6.51412e-05 -7.28153e-05 -8.87041e-05 -0.000116627);
    }
    sideWalls
    {
        type            empty;
        value           nonuniform 0();
    }
    glass1
    {
        type            calculated;
        value           nonuniform List<scalar> 9(-6.78025e-05 -0.000171631 -0.000251186 -0.000315757 -0.000371044 -0.000419923 -0.000465008 -0.00052138 -0.000586928);
    }
    glass2
    {
        type            calculated;
        value           nonuniform List<scalar> 2(-0.000297662 -0.000326649);
    }
    sun
    {
        type            calculated;
        value           uniform 0;
    }
    heatsource1
    {
        type            calculated;
        value           nonuniform List<scalar> 3(2.04397e-07 2.04509e-07 2.04804e-07);
    }
    heatsource2
    {
        type            calculated;
        value           nonuniform List<scalar> 4(5.14493e-08 5.16729e-08 0 0);
    }
    Table_master
    {
        type            calculated;
        value           nonuniform List<scalar> 9(-1.55903e-07 -1.55898e-07 -1.55742e-07 -1.55613e-07 -1.55501e-07 -1.55399e-07 -1.55306e-07 -1.55214e-07 -1.55093e-07);
    }
    Table_slave
    {
        type            calculated;
        value           nonuniform List<scalar> 9(1.5403e-07 1.54107e-07 1.54185e-07 1.54268e-07 1.54352e-07 1.5443e-07 1.54498e-07 1.54555e-07 1.54554e-07);
    }
    inlet
    {
        type            calculated;
        value           uniform 0.000919112;
    }
    outlet
    {
        type            calculated;
        value           nonuniform List<scalar> 2(0.00297632 0.000576549);
    }
}


// ************************************************************************* //
