// -*- C++ -*-
// File generated by PyFoam - sorry for the ugliness

FoamFile
{
 version 2.0;
 format ascii;
 class volVectorField;
 location "1500";
 object U;
}

dimensions [ 0 1 -1 0 0 0 0 ];

internalField nonuniform List<vector> 459
(
  (0.0341916 0.0858908 0)
  (-0.167091 0.0254891 0)
  (-0.191855 0.017853 0)
  (-0.222875 0.012151 0)
  (-0.245326 0.00586196 0)
  (-0.258115 -0.000828787 0)
  (-0.25955 -0.007991 0)
  (-0.248359 -0.0156505 0)
  (-0.22513 -0.0231114 0)
  (-0.191761 -0.0290416 0)
  (-0.151983 -0.0323377 0)
  (-0.110203 -0.0324594 0)
  (-0.07067 -0.0295626 0)
  (-0.0385578 -0.0247873 0)
  (-0.0277673 -0.0199782 0)
  (-0.00645604 0.00893468 0)
  (-0.0292038 -0.0166679 0)
  (-0.00754339 -0.0265837 0)
  (0.0161479 -0.0205819 0)
  (0.0317598 -0.0141772 0)
  (0.0446259 -0.0092303 0)
  (0.0527712 -0.00537896 0)
  (0.0570236 -0.00335311 0)
  (0.0589461 -0.00254189 0)
  (0.0598997 -0.0021926 0)
  (0.0604947 -0.0019748 0)
  (0.0608332 -0.00179755 0)
  (0.0608557 -0.0015835 0)
  (0.0603754 -0.00116543 0)
  (0.0588657 -0.000176873 0)
  (0.0551936 0.00189113 0)
  (0.0481196 0.00409402 0)
  (0.0416317 0.00589074 0)
  (-0.0130129 0.0203998 0)
  (0.208759 0.175984 0)
  (-0.156279 0.0674394 0)
  (-0.154746 0.0530602 0)
  (-0.186915 0.0412281 0)
  (-0.209221 0.0277962 0)
  (-0.222316 0.0126456 0)
  (-0.224465 -0.00454576 0)
  (-0.214232 -0.023187 0)
  (-0.192806 -0.040675 0)
  (-0.162504 -0.0539056 0)
  (-0.127189 -0.0607511 0)
  (-0.0909433 -0.0605751 0)
  (-0.0573341 -0.0539809 0)
  (-0.029788 -0.0425948 0)
  (-0.0122812 -0.0289104 0)
  (0.00159617 -0.010892 0)
  (0.000273397 0.015676 0)
  (0.0608619 0.0364819 0)
  (0.0246256 -0.0180888 0)
  (0.0332845 -0.0314657 0)
  (0.0444835 -0.0281048 0)
  (0.0535101 -0.0203281 0)
  (0.0601861 -0.0128107 0)
  (0.0631086 -0.00547486 0)
  (0.0636833 -0.00125504 0)
  (0.0636371 0.000500754 0)
  (0.0637479 0.00127279 0)
  (0.0639562 0.00174501 0)
  (0.0641089 0.00213446 0)
  (0.0641632 0.00260896 0)
  (0.0640746 0.00348162 0)
  (0.063338 0.00561842 0)
  (0.0596413 0.0115514 0)
  (0.0502627 0.0165216 0)
  (0.0457276 0.0198748 0)
  (-0.049209 0.0442551 0)
  (0.368977 0.263379 0)
  (-0.173194 0.107448 0)
  (-0.116219 0.0858888 0)
  (-0.14761 0.0647762 0)
  (-0.167519 0.042647 0)
  (-0.179773 0.0180304 0)
  (-0.181631 -0.00992997 0)
  (-0.170752 -0.0397836 0)
  (-0.149595 -0.0668847 0)
  (-0.121388 -0.0861766 0)
  (-0.0902016 -0.0949616 0)
  (-0.0595439 -0.0931494 0)
  (-0.031699 -0.082164 0)
  (-0.00875298 -0.0642658 0)
  (0.00833936 -0.0407589 0)
  (0.0195308 -0.0143117 0)
  (0.0237605 0.0229626 0)
  (0.110217 -0.0267399 0)
  (0.0744982 -0.0376898 0)
  (0.0690912 -0.0384291 0)
  (0.0706356 -0.0330816 0)
  (0.0720402 -0.0251744 0)
  (0.0734196 -0.0182291 0)
  (0.0722076 -0.0145587 0)
  (0.0675097 -0.0102645 0)
  (0.0640806 -0.00791658 0)
  (0.0625295 -0.0065703 0)
  (0.0618667 -0.00570363 0)
  (0.0615271 -0.00510192 0)
  (0.0614971 -0.0045727 0)
  (0.0622174 -0.00374528 0)
  (0.0648031 -0.000669633 0)
  (0.0628018 0.0161489 0)
  (0.0497872 0.02786 0)
  (0.051989 0.0357969 0)
  (-0.0811568 0.0690775 0)
  (0.513623 0.333692 0)
  (-0.208009 0.142934 0)
  (-0.0752916 0.113869 0)
  (-0.105385 0.0848764 0)
  (-0.119867 0.0565081 0)
  (-0.128954 0.0242091 0)
  (-0.12788 -0.0143693 0)
  (-0.113953 -0.0560311 0)
  (-0.0924105 -0.0919993 0)
  (-0.0672609 -0.115697 0)
  (-0.0420041 -0.124899 0)
  (-0.0190219 -0.120872 0)
  (0.00145108 -0.10575 0)
  (0.0183135 -0.0830208 0)
  (0.0326213 -0.0561956 0)
  (0.0479203 -0.0271246 0)
  (0.0695307 0.00473814 0)
  (0.100314 0.0161749 0)
  (0.105476 -0.0228102 0)
  (0.0918415 -0.0335384 0)
  (0.0828765 -0.0328682 0)
  (0.0777968 -0.0287808 0)
  (0.0739876 -0.022738 0)
  (0.0714177 -0.0150478 0)
  (0.0726461 -0.0091152 0)
  (0.077621 -0.00682144 0)
  (0.0818532 -0.00555117 0)
  (0.0846552 -0.00465184 0)
  (0.0863688 -0.00364787 0)
  (0.0865546 -0.00224302 0)
  (0.0840923 -0.00017993 0)
  (0.077724 0.00284787 0)
  (0.0649347 0.00737205 0)
  (0.0526852 0.0266943 0)
  (0.0405847 0.0430167 0)
  (0.0560502 0.0559567 0)
  (-0.114476 0.0913329 0)
  (0.638866 0.38816 0)
  (-0.250618 0.171917 0)
  (-0.0345308 0.130044 0)
  (-0.0611733 0.0964071 0)
  (-0.0676324 0.0645845 0)
  (-0.0707341 0.0272007 0)
  (-0.0609337 -0.0210544 0)
  (-0.0417803 -0.0736133 0)
  (-0.0212219 -0.114863 0)
  (-0.00195062 -0.139167 0)
  (0.0143282 -0.145785 0)
  (0.0267701 -0.13811 0)
  (0.0365333 -0.120323 0)
  (0.0444101 -0.0959716 0)
  (0.051703 -0.0685662 0)
  (0.060393 -0.0418963 0)
  (0.0732173 -0.022255 0)
  (0.0839375 -0.0213297 0)
  (0.0850792 -0.0290624 0)
  (0.0787034 -0.0298901 0)
  (0.0704913 -0.0269864 0)
  (0.0637189 -0.0231137 0)
  (0.0585932 -0.0185288 0)
  (0.0554696 -0.0131323 0)
  (0.0552336 -0.00734095 0)
  (0.0575692 -0.00452671 0)
  (0.0602856 -0.00351184 0)
  (0.0628745 -0.0027278 0)
  (0.0652435 -0.00114046 0)
  (0.067047 0.0018538 0)
  (0.0670575 0.00636597 0)
  (0.0646656 0.0125571 0)
  (0.059273 0.0210664 0)
  (0.0524045 0.0362541 0)
  (0.0423183 0.0542752 0)
  (0.0644222 0.074404 0)
  (-0.0214324 0.103513 0)
  (0.0463184 0.0323247 0)
  (-0.0620851 -0.0345126 0)
  (-0.272461 -0.0571631 0)
  (0.729975 0.43358 0)
  (-0.292216 0.191436 0)
  (-0.0033089 0.126626 0)
  (-0.0160448 0.0976765 0)
  (-0.0119488 0.0670247 0)
  (-0.00640634 0.0242529 0)
  (0.0221082 -0.0381405 0)
  (0.043954 -0.0939482 0)
  (0.0595103 -0.132248 0)
  (0.0689496 -0.151739 0)
  (0.0729297 -0.154358 0)
  (0.072848 -0.143671 0)
  (0.0702098 -0.123705 0)
  (0.0665174 -0.0984492 0)
  (0.0632604 -0.0715731 0)
  (0.061853 -0.0467452 0)
  (0.0631531 -0.0282448 0)
  (0.0640164 -0.0209048 0)
  (0.060759 -0.0205232 0)
  (0.0537693 -0.020619 0)
  (0.045856 -0.019185 0)
  (0.0392256 -0.0169224 0)
  (0.0344151 -0.0141869 0)
  (0.0317158 -0.0110394 0)
  (0.0313867 -0.0080961 0)
  (0.0330686 -0.00695194 0)
  (0.0357061 -0.00681453 0)
  (0.0388414 -0.00644005 0)
  (0.0422869 -0.00481484 0)
  (0.0457806 -0.00105194 0)
  (0.0489561 0.00518224 0)
  (0.0506187 0.0135349 0)
  (0.0510326 0.024162 0)
  (0.0515566 0.0385848 0)
  (0.0503934 0.0563289 0)
  (0.0728816 0.0790981 0)
  (0.0525206 0.0970396 0)
  (0.093235 0.0678894 0)
  (0.116156 0.0446309 0)
  (-0.129084 -0.00712603 0)
  (0.781952 0.474863 0)
  (-0.313163 0.176906 0)
  (0.0235041 0.0771657 0)
  (0.0425593 0.0739673 0)
  (0.057659 0.0525246 0)
  (0.0840443 0.0015713 0)
  (0.118271 -0.0625492 0)
  (0.137621 -0.111444 0)
  (0.144088 -0.141054 0)
  (0.140364 -0.152784 0)
  (0.129184 -0.149585 0)
  (0.113465 -0.135196 0)
  (0.0957758 -0.113479 0)
  (0.0783577 -0.0883392 0)
  (0.0628974 -0.0629947 0)
  (0.0506435 -0.0405579 0)
  (0.0420404 -0.0241473 0)
  (0.035555 -0.0158808 0)
  (0.0290175 -0.0135414 0)
  (0.021936 -0.0131823 0)
  (0.0152411 -0.0126414 0)
  (0.00985753 -0.0118016 0)
  (0.0060978 -0.0108055 0)
  (0.00413386 -0.00972401 0)
  (0.00404406 -0.00897326 0)
  (0.00546399 -0.00917899 0)
  (0.00774751 -0.00983523 0)
  (0.0106168 -0.0100775 0)
  (0.0141021 -0.00902808 0)
  (0.0183261 -0.0056714 0)
  (0.0242062 0.00101431 0)
  (0.0301985 0.0101881 0)
  (0.0358381 0.020956 0)
  (0.0429687 0.0338187 0)
  (0.0507333 0.0484758 0)
  (0.072806 0.0668982 0)
  (0.0860298 0.0746018 0)
  (0.118349 0.0520107 0)
  (0.158044 0.044001 0)
  (-0.0352064 0.094003 0)
  (0.886607 0.477563 0)
  (-0.0707132 0.156548 0)
  (0.106018 0.0039003 0)
  (0.169116 -0.0163412 0)
  (0.182045 -0.0350096 0)
  (0.217515 -0.0690924 0)
  (0.239395 -0.101891 0)
  (0.242001 -0.125363 0)
  (0.2281 -0.136984 0)
  (0.202627 -0.136961 0)
  (0.17044 -0.127048 0)
  (0.135765 -0.109873 0)
  (0.101642 -0.0881091 0)
  (0.0705605 -0.0650209 0)
  (0.0439849 -0.0430401 0)
  (0.0232829 -0.024755 0)
  (0.00891516 -0.0126995 0)
  (-0.000453225 -0.00733708 0)
  (-0.0070796 -0.00641173 0)
  (-0.012627 -0.00694471 0)
  (-0.0173726 -0.00755575 0)
  (-0.021145 -0.00805918 0)
  (-0.0238663 -0.00851071 0)
  (-0.0254877 -0.00900411 0)
  (-0.0260558 -0.00974592 0)
  (-0.0258756 -0.0108817 0)
  (-0.0253292 -0.0121401 0)
  (-0.0245472 -0.0130743 0)
  (-0.023385 -0.0131866 0)
  (-0.0214593 -0.0118898 0)
  (-0.0178124 -0.00843265 0)
  (-0.00905971 -0.00206505 0)
  (-0.000249321 0.00632492 0)
  (0.0103766 0.0146953 0)
  (0.0220779 0.0218201 0)
  (0.0418574 0.0291578 0)
  (0.0604391 0.0221945 0)
  (0.0799449 -0.00526869 0)
  (0.138982 0.0403157 0)
  (-0.413764 0.206828 0)
  (1.03167 0.429987 0)
  (0.496792 0.285104 0)
  (0.503037 0.191515 0)
  (0.511445 0.120145 0)
  (0.486622 0.0687127 0)
  (0.443964 0.0154074 0)
  (0.394073 -0.0328766 0)
  (0.340668 -0.0671304 0)
  (0.283467 -0.0848212 0)
  (0.224875 -0.0879597 0)
  (0.168182 -0.0805726 0)
  (0.116167 -0.0666774 0)
  (0.0698352 -0.0489985 0)
  (0.0310907 -0.0309679 0)
  (-0.000491211 -0.0148057 0)
  (-0.0213433 -0.00477676 0)
  (-0.0324805 -0.00102134 0)
  (-0.0386484 -0.000525797 0)
  (-0.0426737 -0.00150381 0)
  (-0.0461853 -0.00285505 0)
  (-0.0493923 -0.00417721 0)
  (-0.0523064 -0.0054126 0)
  (-0.0549082 -0.00659507 0)
  (-0.0572211 -0.0077763 0)
  (-0.0593675 -0.00901965 0)
  (-0.061619 -0.0103028 0)
  (-0.0643091 -0.0114081 0)
  (-0.0677404 -0.0119614 0)
  (-0.0722419 -0.0114359 0)
  (-0.0782754 -0.00913399 0)
  (-0.0864447 -0.0042322 0)
  (-0.0968004 0.00388667 0)
  (-0.107337 0.0147324 0)
  (-0.122625 0.0284775 0)
  (-0.146719 0.0451738 0)
  (-0.182144 0.063619 0)
  (-0.232188 0.0797472 0)
  (-0.289175 0.0909434 0)
  (-0.357823 0.0972056 0)
  (-0.620035 0.099217 0)
  (-0.148375 0.0829369 0)
  (0.134864 0.0620506 0)
  (0.218261 0.00644876 0)
  (0.20176 -0.0285277 0)
  (0.186072 -0.0429981 0)
  (0.163612 -0.0477857 0)
  (0.131174 -0.0462244 0)
  (0.0926315 -0.0398608 0)
  (0.052742 -0.0301317 0)
  (0.01479 -0.0179116 0)
  (-0.0226044 -0.0040761 0)
  (-0.0464458 0.00364915 0)
  (-0.0610178 0.00709711 0)
  (-0.0681344 0.00752702 0)
  (-0.0715942 0.00672322 0)
  (-0.0738698 0.00570446 0)
  (-0.0758216 0.00469668 0)
  (-0.0777711 0.00375699 0)
  (-0.0800266 0.00282431 0)
  (-0.0826164 0.00178396 0)
  (-0.0854701 0.000680838 0)
  (-0.0886156 -0.000422616 0)
  (-0.0921254 -0.001443 0)
  (-0.0960924 -0.00222198 0)
  (-0.100593 -0.00251245 0)
  (-0.105631 -0.00200073 0)
  (-0.111115 -0.000332153 0)
  (-0.116829 0.00285287 0)
  (-0.122172 0.00799119 0)
  (-0.126358 0.015832 0)
  (-0.129827 0.0274969 0)
  (-0.132832 0.0433705 0)
  (-0.136176 0.0625609 0)
  (-0.140367 0.0814019 0)
  (-0.142217 0.0899982 0)
  (-0.124903 0.0675128 0)
  (-0.0811948 -0.0256707 0)
  (-0.278813 -0.203522 0)
  (-0.0207953 0.232601 0)
  (0.0637903 0.100235 0)
  (0.0381409 0.019592 0)
  (0.0258108 -0.0041695 0)
  (0.0165704 -0.00974598 0)
  (-0.00195168 -0.0112831 0)
  (-0.026913 -0.00883839 0)
  (-0.0527037 -0.0042238 0)
  (-0.0746041 0.000308486 0)
  (-0.0897411 0.00334451 0)
  (-0.0970946 0.00363624 0)
  (-0.0996964 0.00140013 0)
  (-0.1001 -0.00159148 0)
  (-0.0995359 -0.004981 0)
  (-0.0991008 -0.00844048 0)
  (-0.0992025 -0.0117155 0)
  (-0.0998676 -0.0146757 0)
  (-0.100997 -0.0171137 0)
  (-0.102448 -0.018874 0)
  (-0.104146 -0.0199408 0)
  (-0.106125 -0.0204082 0)
  (-0.108353 -0.0202901 0)
  (-0.110829 -0.0198399 0)
  (-0.113527 -0.0190889 0)
  (-0.116338 -0.017926 0)
  (-0.119033 -0.0161188 0)
  (-0.12125 -0.013289 0)
  (-0.122481 -0.00886101 0)
  (-0.122193 -0.00262427 0)
  (-0.119413 0.00594995 0)
  (-0.112699 0.0177284 0)
  (-0.100766 0.0334666 0)
  (-0.0833257 0.0527262 0)
  (-0.0612646 0.0714072 0)
  (-0.0374446 0.0823631 0)
  (0.00260744 0.0666952 0)
  (0.143356 -0.00451975 0)
  (-0.207365 -0.114231 0)
  (0.940317 -0.000417688 0)
  (-0.529405 -0.460799 0)
  (-0.31733 0.0895979 0)
  (-0.227632 -0.0196523 0)
  (-0.179933 -0.0413911 0)
  (-0.165264 -0.029394 0)
  (-0.162791 -0.0163965 0)
  (-0.164132 -0.00601932 0)
  (-0.164771 0.00266823 0)
  (-0.162555 0.0102441 0)
  (-0.157899 0.0171901 0)
  (-0.150903 0.0235122 0)
  (-0.142497 0.0289445 0)
  (-0.134117 0.0334853 0)
  (-0.126631 0.037705 0)
  (-0.120371 0.041821 0)
  (-0.115352 0.0459174 0)
  (-0.111405 0.0498015 0)
  (-0.108384 0.0531062 0)
  (-0.106192 0.0554859 0)
  (-0.104745 0.0567354 0)
  (-0.103969 0.0568347 0)
  (-0.103806 0.0559014 0)
  (-0.104195 0.054053 0)
  (-0.105056 0.051754 0)
  (-0.106291 0.0492054 0)
  (-0.107737 0.0465279 0)
  (-0.109129 0.0438182 0)
  (-0.110045 0.0411482 0)
  (-0.109806 0.0385842 0)
  (-0.107164 0.0369726 0)
  (-0.100239 0.0370022 0)
  (-0.0865639 0.0394362 0)
  (-0.0642786 0.0451733 0)
  (-0.0339802 0.0547198 0)
  (0.014384 0.067726 0)
  (0.0590812 0.0689962 0)
  (0.10166 0.0543028 0)
  (0.163845 0.0252464 0)
  (-0.219193 -0.0296155 0)
)
;

boundaryField
{
  floor
  {
    type noSlip;
  }
  ceiling
  {
    type noSlip;
  }
  sWall
  {
    type noSlip;
  }
  nWall
  {
    type noSlip;
  }
  sideWalls
  {
    type empty;
  }
  glass1
  {
    type noSlip;
  }
  glass2
  {
    type noSlip;
  }
  sun
  {
    type noSlip;
  }
  heatsource1
  {
    type noSlip;
  }
  heatsource2
  {
    type noSlip;
  }
  Table_master
  {
    type noSlip;
  }
  Table_slave
  {
    type noSlip;
  }
  inlet
  {
    type fixedValue;
    value uniform (0.3 0 0);
  }
  outlet
  {
    type zeroGradient;
  }
} 	// ************************************************************************* //

