/*--------------------------------*- C++ -*----------------------------------*\
  =========                 |
  \\      /  F ield         | OpenFOAM: The Open Source CFD Toolbox
   \\    /   O peration     | Website:  https://openfoam.org
    \\  /    A nd           | Version:  6
     \\/     M anipulation  |
\*---------------------------------------------------------------------------*/
FoamFile
{
    version     2.0;
    format      ascii;
    class       volScalarField;
    location    "200";
    object      epsilon;
}
// * * * * * * * * * * * * * * * * * * * * * * * * * * * * * * * * * * * * * //

dimensions      [0 2 -3 0 0 0 0];

internalField   nonuniform List<scalar> 
459
(
0.000140863
0.000146631
9.02101e-05
9.74944e-05
0.000108834
0.000121067
0.000133926
0.000147591
0.000162612
0.000178843
0.000193587
0.000205574
0.000213789
0.000217469
0.000212957
1.87257e-05
2.45455e-05
2.63685e-05
1.42781e-05
6.57412e-06
4.79858e-06
4.43811e-06
4.38127e-06
4.9858e-06
6.3877e-06
8.66399e-06
1.16893e-05
1.5355e-05
1.96128e-05
2.65785e-05
3.63432e-05
4.2727e-05
4.04037e-05
2.83636e-05
0.000837418
0.00197258
0.000166545
7.65399e-05
7.74655e-05
8.38867e-05
9.13726e-05
0.000100182
0.00011105
0.00012444
0.000139654
0.000156374
0.000173496
0.000188614
0.000204788
0.000273394
8.84712e-05
4.49636e-05
8.24319e-05
6.34029e-05
3.79724e-05
2.0791e-05
1.03513e-05
7.26912e-06
6.35483e-06
8.62665e-06
1.32967e-05
2.05876e-05
2.99465e-05
4.18299e-05
5.78136e-05
7.54806e-05
8.25822e-05
9.01142e-05
0.000114467
5.71329e-05
0.00225719
0.00678168
0.000525097
0.000102783
8.24859e-05
8.75919e-05
9.62546e-05
0.00010688
0.000119555
0.000134508
0.000150938
0.000168472
0.000186814
0.000205654
0.000227115
0.000263246
0.000347376
0.000245006
0.000221295
9.98922e-05
6.98365e-05
5.7771e-05
5.45169e-05
1.62595e-05
1.08981e-05
1.62518e-05
2.32283e-05
3.2296e-05
4.45203e-05
6.18069e-05
8.80337e-05
0.000131463
9.97244e-05
0.000114328
0.000135478
0.000127453
0.00448529
0.0146217
0.00137059
0.00016697
9.63543e-05
9.83913e-05
0.000108817
0.000121942
0.000137004
0.000153793
0.000170712
0.000186894
0.000202846
0.000219954
0.000241988
0.000280274
0.00036275
0.000524146
0.000246658
0.000122181
9.11869e-05
8.40738e-05
8.85848e-05
0.000103253
0.000140654
0.000142151
0.000144287
0.000146183
0.000148419
0.000152382
0.000160566
0.000177749
0.000230778
0.000186964
0.000243779
0.000352641
0.000430823
0.00742923
0.0242031
0.00293474
0.00031027
0.00012514
0.000118446
0.000131517
0.000149888
0.000171149
0.000193976
0.000213353
0.000228501
0.000240829
0.000250316
0.000254096
0.000248155
0.000230659
0.000195857
0.00013551
0.000103372
8.86537e-05
8.40252e-05
8.50104e-05
8.9509e-05
9.64733e-05
0.000103621
0.000112758
0.000124666
0.000140596
0.000162852
0.000195032
0.000241915
0.000308529
0.0003834
0.000503098
0.000649119
0.000726924
0.00108403
0.000757601
0.000502199
0.0110413
0.0320568
0.00550855
0.000748601
0.000234694
0.000181885
0.000191065
0.000215279
0.000246458
0.000277415
0.000293905
0.000301619
0.000307516
0.00031394
0.000316935
0.000308042
0.000279679
0.000233746
0.000184646
0.000147624
0.000124401
0.000112609
0.000108643
0.00011014
0.000115722
0.000125098
0.000139092
0.000158751
0.000186103
0.000225061
0.000281885
0.000364414
0.000479611
0.000630241
0.000817618
0.00102521
0.00114082
0.00107306
0.000627949
0.000565481
0.0150647
0.0347985
0.0103418
0.00281918
0.000985066
0.00053815
0.000441841
0.000433075
0.000464102
0.000469301
0.00044775
0.000418557
0.000395979
0.000384962
0.000381103
0.000372487
0.000347115
0.00030424
0.000254797
0.000210767
0.000177995
0.000157062
0.000146116
0.000143276
0.000147416
0.000158742
0.000178346
0.000207529
0.000248049
0.000302903
0.000377089
0.000477262
0.000606552
0.000766048
0.000942466
0.00109725
0.00116251
0.0011044
0.000944403
0.000531181
0.0156522
0.0404138
0.0208611
0.0123103
0.00605662
0.00294072
0.00174293
0.00127529
0.001068
0.000892146
0.000737254
0.000613316
0.000522923
0.000464512
0.000432812
0.00041514
0.000393224
0.00035864
0.000315343
0.000271942
0.000235085
0.00020773
0.000190264
0.000182186
0.00018335
0.000195009
0.000219806
0.000261052
0.000322638
0.000408077
0.000518098
0.000647772
0.000788636
0.000928245
0.00106318
0.0012021
0.0013634
0.00155405
0.0017311
0.00107365
0.0138634
0.022053
0.035542
0.0262895
0.0159496
0.00931942
0.00558893
0.00354342
0.00234321
0.00161548
0.00116494
0.000876015
0.000685571
0.000559471
0.000478756
0.000430044
0.000398519
0.000370628
0.000339846
0.000306706
0.000274957
0.000248019
0.000227892
0.000215545
0.000211787
0.00021846
0.000239302
0.000277615
0.000338688
0.000426142
0.000542086
0.000690197
0.000872982
0.00110118
0.00139085
0.00169356
0.0018308
0.00218162
0.00372441
0.00145608
0.0812776
0.0949596
0.0284849
0.0132109
0.0072636
0.00440124
0.00286372
0.00196519
0.00140486
0.00104082
0.000796237
0.000627878
0.000510892
0.000430499
0.000376431
0.000339861
0.0003132
0.000291248
0.000271681
0.000254314
0.000240006
0.000229932
0.000225386
0.000228082
0.000240551
0.000265881
0.000308226
0.000371323
0.000457732
0.000563188
0.000677453
0.00078841
0.000879689
0.000921968
0.000901268
0.000851913
0.00149692
0.00134066
0.0651692
0.0579332
0.0210837
0.0106638
0.00626671
0.00400501
0.00272016
0.00193646
0.00143127
0.00109006
0.000850854
0.000678281
0.000551338
0.000457188
0.00038762
0.000336907
0.000300603
0.000275012
0.0002571
0.000244576
0.000235953
0.000230516
0.000228278
0.000230025
0.000237493
0.000253441
0.000281594
0.000326022
0.000389085
0.000465743
0.000542205
0.00060111
0.000627458
0.000610398
0.000564753
0.00053814
0.00107453
0.000909197
0.00695068
0.0136696
0.0300374
0.0233694
0.0130734
0.00809035
0.00539123
0.00377998
0.00274868
0.00205393
0.00157585
0.00123561
0.000985408
0.000797283
0.000653794
0.000543453
0.000458359
0.000392862
0.000342754
0.000304767
0.000276277
0.000255162
0.00023975
0.000228834
0.000221708
0.000218244
0.000219002
0.000225329
0.000239444
0.00026882
0.000319375
0.000391271
0.000473551
0.000544626
0.000582342
0.000573163
0.000545881
0.000504154
0.000500812
0.000424028
)
;

boundaryField
{
    floor
    {
        Cmu             0.09;
        kappa           0.41;
        E               9.8;
        type            epsilonWallFunction;
        value           nonuniform List<scalar> 
29
(
0.000212957
1.87257e-05
2.45455e-05
2.63685e-05
1.42781e-05
6.57412e-06
4.79858e-06
4.43811e-06
4.38127e-06
4.9858e-06
6.3877e-06
8.66399e-06
1.16893e-05
1.5355e-05
1.96128e-05
2.65785e-05
3.63432e-05
4.2727e-05
4.04037e-05
2.83636e-05
2.83636e-05
5.71329e-05
0.000127453
0.000430823
0.000212957
1.87257e-05
4.49636e-05
0.000245006
0.000524146
)
;
    }
    ceiling
    {
        Cmu             0.09;
        kappa           0.41;
        E               9.8;
        type            epsilonWallFunction;
        value           nonuniform List<scalar> 
43
(
0.00695068
0.0136696
0.0300374
0.0233694
0.0130734
0.00809035
0.00539123
0.00377998
0.00274868
0.00205393
0.00157585
0.00123561
0.000985408
0.000797283
0.000653794
0.000543453
0.000458359
0.000392862
0.000342754
0.000304767
0.000276277
0.000255162
0.00023975
0.000228834
0.000221708
0.000218244
0.000219002
0.000225329
0.000239444
0.00026882
0.000319375
0.000391271
0.000473551
0.000544626
0.000582342
0.000573163
0.000545881
0.000504154
0.000500812
0.000424028
0.0138634
0.022053
0.0651692
)
;
    }
    sWall
    {
        Cmu             0.09;
        kappa           0.41;
        E               9.8;
        type            epsilonWallFunction;
        value           uniform 0.00695068;
    }
    nWall
    {
        Cmu             0.09;
        kappa           0.41;
        E               9.8;
        type            epsilonWallFunction;
        value           nonuniform List<scalar> 6(0.000502199 0.000565481 0.000531181 0.00134066 0.000909197 0.000424028);
    }
    sideWalls
    {
        type            empty;
    }
    glass1
    {
        Cmu             0.09;
        kappa           0.41;
        E               9.8;
        type            epsilonWallFunction;
        value           nonuniform List<scalar> 9(0.000140863 0.000837418 0.00225719 0.00448529 0.00742923 0.0110413 0.0150647 0.0156522 0.0138634);
    }
    glass2
    {
        Cmu             0.09;
        kappa           0.41;
        E               9.8;
        type            epsilonWallFunction;
        value           nonuniform List<scalar> 2(0.00107365 0.00145608);
    }
    sun
    {
        Cmu             0.09;
        kappa           0.41;
        E               9.8;
        type            epsilonWallFunction;
        value           nonuniform List<scalar> 
14
(
0.000140863
0.000146631
9.02101e-05
9.74944e-05
0.000108834
0.000121067
0.000133926
0.000147591
0.000162612
0.000178843
0.000193587
0.000205574
0.000213789
0.000217469
)
;
    }
    heatsource1
    {
        Cmu             0.09;
        kappa           0.41;
        E               9.8;
        type            epsilonWallFunction;
        value           nonuniform List<scalar> 3(0.00108403 0.000757601 0.000502199);
    }
    heatsource2
    {
        Cmu             0.09;
        kappa           0.41;
        E               9.8;
        type            epsilonWallFunction;
        value           nonuniform List<scalar> 4(0.000273394 8.84712e-05 8.84712e-05 0.000347376);
    }
    Table_master
    {
        Cmu             0.09;
        kappa           0.41;
        E               9.8;
        type            epsilonWallFunction;
        value           nonuniform List<scalar> 9(1.62595e-05 1.08981e-05 1.62518e-05 2.32283e-05 3.2296e-05 4.45203e-05 6.18069e-05 8.80337e-05 0.000131463);
    }
    Table_slave
    {
        Cmu             0.09;
        kappa           0.41;
        E               9.8;
        type            epsilonWallFunction;
        value           nonuniform List<scalar> 9(0.000140654 0.000142151 0.000144287 0.000146183 0.000148419 0.000152382 0.000160566 0.000177749 0.000230778);
    }
    inlet
    {
        type            turbulentMixingLengthDissipationRateInlet;
        mixingLength    0.01;
        phi             phi;
        k               k;
        value           uniform 0.0812776;
    }
    outlet
    {
        type            zeroGradient;
    }
}


// ************************************************************************* //
