/*--------------------------------*- C++ -*----------------------------------*\
  =========                 |
  \\      /  F ield         | OpenFOAM: The Open Source CFD Toolbox
   \\    /   O peration     | Website:  https://openfoam.org
    \\  /    A nd           | Version:  6
     \\/     M anipulation  |
\*---------------------------------------------------------------------------*/
FoamFile
{
    version     2.0;
    format      ascii;
    class       volScalarField;
    location    "1700";
    object      nut;
}
// * * * * * * * * * * * * * * * * * * * * * * * * * * * * * * * * * * * * * //

dimensions      [0 2 -1 0 0 0 0];

internalField   nonuniform List<scalar> 
459
(
0.00106531
0.00116155
0.0011836
0.00124013
0.00129253
0.00134198
0.00139114
0.00143801
0.00147089
0.00148347
0.00146974
0.00142546
0.00134859
0.00124127
0.00111531
0.000464495
0.000554424
0.000626743
0.000633327
0.000615566
0.000589688
0.000553453
0.000516465
0.000482811
0.000453016
0.000426712
0.000403415
0.000382724
0.00036423
0.00034726
0.000330966
0.000314189
0.000303739
0.000278044
0.00145076
0.00344316
0.00325947
0.00378135
0.00429295
0.00480573
0.0052508
0.00559752
0.00591932
0.0061865
0.00636243
0.00640955
0.00628282
0.00587564
0.00473807
0.00113568
0.000707571
0.000484107
0.0010209
0.00143276
0.00174584
0.00193224
0.00194312
0.00153445
0.00131773
0.00116408
0.0010468
0.000954193
0.000879243
0.000815808
0.000756796
0.000699528
0.000648564
0.000603672
0.000717342
0.000369647
0.00177159
0.00467081
0.00397685
0.00495403
0.0054034
0.00573017
0.00598535
0.00621035
0.00647115
0.00675355
0.00702413
0.00723236
0.00733262
0.00724859
0.00675948
0.00518446
0.00117122
0.000909182
0.00132737
0.00173343
0.00212896
0.0024244
0.00239697
0.000786986
0.000696
0.000622088
0.000562089
0.000513051
0.000472616
0.000439033
0.000411172
0.000388538
0.000419732
0.000484548
0.000811724
0.000431803
0.00208009
0.00597461
0.00392645
0.00517481
0.00551469
0.00559717
0.00566597
0.00579337
0.00601219
0.00630659
0.00664458
0.00695422
0.00718582
0.00727324
0.00716859
0.00660634
0.00442292
0.00137037
0.00164378
0.00210066
0.00260371
0.0030543
0.00336694
0.00320957
0.00089113
0.000815378
0.000761417
0.000720374
0.000685286
0.000652425
0.000620752
0.000587309
0.000548317
0.000514586
0.000520139
0.00094409
0.000481067
0.00239484
0.00767589
0.00424404
0.00493534
0.00540317
0.00535603
0.00530969
0.00540559
0.00561046
0.00591182
0.00628583
0.00662708
0.00686451
0.00695423
0.00689848
0.00667383
0.00610766
0.00517803
0.00486505
0.00481994
0.00487397
0.00493646
0.004948
0.00479522
0.00407717
0.00372838
0.00352565
0.00336809
0.00320099
0.00296217
0.00263194
0.00222666
0.00177456
0.0013248
0.000978516
0.000966692
0.000655796
0.000594008
0.000716182
0.000804409
0.00272925
0.00954282
0.00583596
0.00477115
0.00522362
0.00537143
0.00522656
0.00531627
0.00548627
0.00576585
0.00613052
0.00648681
0.00672321
0.00677363
0.00665452
0.00645293
0.00626529
0.00615057
0.00616878
0.0062058
0.00618769
0.00610379
0.00595655
0.00573429
0.00539793
0.00509519
0.00482752
0.00457242
0.00431502
0.00404054
0.00369295
0.00325585
0.00272822
0.00214237
0.00161642
0.00119125
0.000911954
0.000777616
0.00110553
0.000841451
0.00304318
0.0108913
0.00836485
0.00605626
0.0056596
0.00568957
0.00554729
0.005467
0.00554972
0.0058164
0.00620128
0.00657573
0.00680103
0.00680162
0.00661425
0.0063954
0.00634977
0.00653791
0.00676794
0.00684819
0.00674991
0.00652114
0.00620576
0.00583646
0.00544768
0.00509404
0.00477908
0.00449203
0.00422968
0.00399649
0.00379158
0.00351171
0.00310846
0.00260882
0.00212043
0.00166876
0.00134833
0.00125451
0.00128314
0.000964884
0.00311105
0.00988112
0.00857471
0.00760113
0.00700831
0.00634436
0.00578936
0.00555789
0.00566494
0.00602529
0.00648997
0.00688344
0.00705314
0.00694955
0.00667003
0.00646072
0.00655786
0.00686503
0.00699691
0.0068606
0.0065302
0.00608074
0.00557979
0.00509295
0.00467119
0.00432972
0.00405221
0.00382466
0.00364498
0.00351845
0.00345218
0.00342414
0.00323163
0.00291684
0.00263444
0.00249324
0.0026055
0.00301215
0.00367693
0.00149649
0.0030361
0.00362529
0.00409492
0.00424243
0.00425462
0.00435509
0.00464297
0.00514559
0.00581774
0.00652658
0.00710475
0.00740689
0.00733784
0.00696664
0.00657566
0.00651243
0.00658768
0.0065926
0.00638903
0.00597938
0.00544102
0.00486219
0.0043268
0.00388827
0.00355526
0.00330463
0.00310794
0.00294614
0.00280757
0.00268311
0.00256457
0.00245128
0.00236063
0.00229349
0.00226782
0.00227579
0.00225719
0.00215899
0.00201286
0.00139971
0.00182673
0.00325913
0.00451741
0.00556866
0.00642535
0.00719579
0.00779496
0.00809596
0.00805702
0.00769689
0.00706992
0.00637164
0.00595314
0.00580333
0.00563338
0.00531411
0.00485334
0.00432109
0.00378968
0.00332527
0.00296777
0.00271186
0.00253248
0.00240449
0.00231091
0.00224241
0.00219438
0.00216501
0.00215695
0.00217182
0.00219616
0.00222659
0.00225505
0.00225629
0.00219027
0.00204531
0.00183491
0.00114872
0.00212444
0.00457434
0.00626454
0.00706448
0.00760567
0.00798217
0.00794737
0.00744304
0.00667512
0.00585611
0.00517156
0.00468052
0.00435242
0.00405359
0.00369139
0.00328407
0.00288421
0.00254084
0.0022793
0.00209739
0.00197356
0.00189123
0.00184354
0.00182331
0.00182514
0.00184565
0.00188185
0.00192958
0.00199482
0.00207461
0.00216623
0.00226299
0.00234925
0.00240678
0.0023876
0.00240187
0.00237258
0.00116801
0.0019701
0.00196488
0.00200127
0.00207432
0.00187983
0.00172646
0.0016539
0.00157951
0.00147122
0.00133736
0.00118531
0.001035
0.000902518
0.000797819
0.000722188
0.000668772
0.000630279
0.000602634
0.000584279
0.000574506
0.000572387
0.000576743
0.000586527
0.000601232
0.000619847
0.000642094
0.000668078
0.000698111
0.000732796
0.000773254
0.000818787
0.000869598
0.000926305
0.000989472
0.00105888
0.00114261
0.00116868
0.00113868
0.00106664
0.000989866
)
;

boundaryField
{
    floor
    {
        type            nutkWallFunction;
        Cmu             0.09;
        kappa           0.41;
        E               9.8;
        value           nonuniform List<scalar> 
29
(
0.000134205
5.51514e-05
6.66217e-05
7.5679e-05
7.64971e-05
7.42879e-05
7.10551e-05
6.64992e-05
6.18106e-05
5.75084e-05
5.36684e-05
5.02518e-05
4.72035e-05
4.44775e-05
4.20249e-05
3.97602e-05
3.75722e-05
3.53047e-05
3.38842e-05
3.03634e-05
3.03633e-05
4.27442e-05
5.09145e-05
5.72838e-05
0.000134205
5.51513e-05
5.76746e-05
0.00010998
0.000163493
)
;
    }
    ceiling
    {
        type            nutkWallFunction;
        Cmu             0.09;
        kappa           0.41;
        E               9.8;
        value           nonuniform List<scalar> 
43
(
0.000230091
0.000229438
0.000233398
0.000241424
0.000220255
0.000203376
0.000195335
0.000187046
0.000174897
0.00015974
0.000142313
0.000124834
0.000109187
9.66317e-05
8.74425e-05
8.08837e-05
7.61185e-05
7.26746e-05
7.03774e-05
6.91508e-05
6.88845e-05
6.94317e-05
7.06592e-05
7.24994e-05
7.4821e-05
7.75846e-05
8.0798e-05
8.44934e-05
8.87379e-05
9.36588e-05
9.91608e-05
0.000105259
0.000112015
0.000119485
0.000127632
0.000137377
0.000140395
0.000136922
0.000128538
0.000119532
0.000343888
0.000404791
0.000246653
)
;
    }
    sWall
    {
        type            nutkWallFunction;
        Cmu             0.09;
        kappa           0.41;
        E               9.8;
        value           uniform 0.000230151;
    }
    nWall
    {
        type            nutkWallFunction;
        Cmu             0.09;
        kappa           0.41;
        E               9.8;
        value           nonuniform List<scalar> 6(9.74281e-05 0.000101888 0.000116588 0.000138095 0.000140328 0.000119538);
    }
    sideWalls
    {
        type            empty;
    }
    glass1
    {
        type            nutkWallFunction;
        Cmu             0.09;
        kappa           0.41;
        E               9.8;
        value           nonuniform List<scalar> 9(0.000128481 0.00017281 0.000208688 0.000242518 0.00027648 0.00031205 0.000345029 0.000352121 0.000344315);
    }
    glass2
    {
        type            nutkWallFunction;
        Cmu             0.09;
        kappa           0.41;
        E               9.8;
        value           nonuniform List<scalar> 2(0.000177822 0.000166892);
    }
    sun
    {
        type            nutkWallFunction;
        Cmu             0.09;
        kappa           0.41;
        E               9.8;
        value           nonuniform List<scalar> 
14
(
0.000128384
0.000139568
0.000142115
0.000148623
0.000154626
0.000160266
0.00016585
0.000171154
0.000174862
0.000176279
0.000174732
0.000169735
0.000161017
0.000148753
)
;
    }
    heatsource1
    {
        type            nutkWallFunction;
        Cmu             0.09;
        kappa           0.41;
        E               9.8;
        value           nonuniform List<scalar> 3(7.15977e-05 8.67084e-05 9.74273e-05);
    }
    heatsource2
    {
        type            nutkWallFunction;
        Cmu             0.09;
        kappa           0.41;
        E               9.8;
        value           nonuniform List<scalar> 4(0.000136567 8.5655e-05 8.5655e-05 0.000140681);
    }
    Table_master
    {
        type            nutkWallFunction;
        Cmu             0.09;
        kappa           0.41;
        E               9.8;
        value           nonuniform List<scalar> 9(9.5322e-05 8.42356e-05 7.51024e-05 6.75918e-05 6.13806e-05 5.62038e-05 5.18624e-05 4.8229e-05 4.52543e-05);
    }
    Table_slave
    {
        type            nutkWallFunction;
        Cmu             0.09;
        kappa           0.41;
        E               9.8;
        value           nonuniform List<scalar> 9(0.000107828 9.87497e-05 9.22226e-05 8.72214e-05 8.29189e-05 7.88656e-05 7.49356e-05 7.07594e-05 6.58536e-05);
    }
    inlet
    {
        type            calculated;
        value           uniform 0.000100623;
    }
    outlet
    {
        type            calculated;
        value           nonuniform List<scalar> 2(0.0019701 0.00196488);
    }
}


// ************************************************************************* //
