/*--------------------------------*- C++ -*----------------------------------*\
  =========                 |
  \\      /  F ield         | OpenFOAM: The Open Source CFD Toolbox
   \\    /   O peration     | Website:  https://openfoam.org
    \\  /    A nd           | Version:  6
     \\/     M anipulation  |
\*---------------------------------------------------------------------------*/
FoamFile
{
    version     2.0;
    format      ascii;
    class       volScalarField;
    location    "200";
    object      epsilon;
}
// * * * * * * * * * * * * * * * * * * * * * * * * * * * * * * * * * * * * * //

dimensions      [0 2 -3 0 0 0 0];

internalField   nonuniform List<scalar> 
459
(
0.000652272
0.000876496
0.000960595
0.00112567
0.00130823
0.00152313
0.0017163
0.00183975
0.00185382
0.00173547
0.00139836
0.00104073
0.000735196
0.000490687
0.000311036
5.40825e-05
8.65108e-05
0.000139028
0.000178774
0.000184921
0.000171961
0.000141958
0.000113906
9.20281e-05
7.5423e-05
6.27331e-05
5.29137e-05
4.51756e-05
3.89877e-05
3.38866e-05
2.94611e-05
2.5321e-05
2.16754e-05
1.61844e-05
0.00149266
0.00197669
0.000811852
0.000814106
0.000902574
0.00105684
0.00122786
0.00134534
0.00135976
0.00126384
0.00104831
0.000807446
0.000613276
0.000461784
0.00034151
0.000529145
0.000282864
5.13859e-05
7.91064e-05
0.000127923
0.000145857
0.000145976
0.000139464
0.000142955
0.000116263
9.0966e-05
7.11312e-05
5.61504e-05
4.49142e-05
3.64108e-05
2.99173e-05
2.49846e-05
2.18701e-05
2.03874e-05
3.14498e-05
2.53596e-05
0.00255866
0.00435287
0.000958754
0.00081462
0.000939544
0.00116282
0.00138161
0.00150151
0.00150048
0.00138742
0.00116933
0.000933705
0.000725251
0.000552749
0.000414599
0.000381105
0.000479176
0.000106943
0.000148829
0.000166429
0.000171205
0.000165191
0.000164669
0.000359556
0.000236333
0.000160453
0.000113055
8.2568e-05
6.23182e-05
4.84629e-05
3.89417e-05
3.27332e-05
2.45757e-05
2.06208e-05
4.74903e-05
3.35005e-05
0.00394093
0.00857441
0.00141453
0.000896745
0.00105935
0.00141046
0.00166245
0.00175019
0.00171559
0.00156474
0.0013316
0.00106474
0.000819346
0.000626142
0.000478703
0.000397338
0.000396569
0.000666298
0.000444425
0.00032382
0.000264168
0.000230534
0.000205843
0.000201166
0.000531613
0.000395613
0.000308053
0.000246967
0.000200529
0.0001624
0.000129508
0.000100244
7.31001e-05
3.89123e-05
2.48157e-05
7.29301e-05
4.07945e-05
0.00576208
0.0149183
0.0025987
0.00116133
0.00138802
0.00194131
0.0021392
0.00214033
0.0020396
0.00183714
0.00154115
0.00119759
0.000883326
0.000645372
0.000484167
0.000391719
0.000372591
0.000417515
0.00037711
0.00033803
0.00030798
0.000277941
0.00024467
0.000214521
0.000211004
0.000194541
0.000176396
0.000157304
0.000136914
0.000115732
9.47831e-05
7.51669e-05
5.7336e-05
3.85982e-05
2.68408e-05
5.52467e-05
4.09344e-05
6.82398e-05
0.000119282
0.000169311
0.00820996
0.0220665
0.00559421
0.00216296
0.00261855
0.00292492
0.00287231
0.00271807
0.00250971
0.00220978
0.00180427
0.00134418
0.000933117
0.000636128
0.000457036
0.00037395
0.000364021
0.000386885
0.000393647
0.000384088
0.000357653
0.000317772
0.000271233
0.00022695
0.000195475
0.000174443
0.000157188
0.00013943
0.000120221
0.000100372
8.13162e-05
6.4309e-05
5.00487e-05
3.77883e-05
3.13343e-05
4.25251e-05
4.41613e-05
5.39583e-05
0.000224307
0.00019407
0.0108343
0.026427
0.0112468
0.00595127
0.00520752
0.00450612
0.00393985
0.00350976
0.00312558
0.00267537
0.00211268
0.00149105
0.00096035
0.00060462
0.000422419
0.000365006
0.000376458
0.000408062
0.000422241
0.000406931
0.000367968
0.000316226
0.000261821
0.000213809
0.000179993
0.000159889
0.000145422
0.000131756
0.000117575
0.000102952
8.92078e-05
7.67423e-05
6.62113e-05
5.76791e-05
5.6272e-05
6.58614e-05
8.6358e-05
0.000143335
0.000332466
0.000306323
0.0113519
0.02718
0.0160114
0.0112095
0.00818934
0.0063018
0.00515888
0.0044345
0.00384892
0.00319846
0.00241515
0.00156049
0.000898499
0.000508667
0.000387876
0.00036712
0.000386468
0.000407984
0.000404394
0.000372771
0.000323425
0.000268944
0.000219515
0.000181572
0.000157665
0.000145199
0.000139231
0.000137104
0.000138769
0.000144187
0.000152526
0.000163213
0.000178917
0.000206707
0.000255552
0.000391162
0.000724249
0.00141665
0.0042556
0.00109613
0.0104729
0.0171128
0.0135689
0.0105336
0.00826462
0.00684806
0.00596075
0.00528915
0.00455267
0.00360322
0.00247434
0.00121027
0.000639473
0.000431546
0.000367677
0.000356255
0.0003605
0.0003571
0.000334298
0.000295185
0.000249401
0.000206111
0.000170944
0.000146263
0.000131686
0.000125396
0.000125893
0.000133362
0.000149155
0.000175472
0.000215342
0.000272872
0.000354739
0.000471832
0.000632036
0.000838642
0.00107176
0.00127996
0.00144746
0.000893733
0.00378461
0.00526086
0.00663324
0.00663964
0.00616237
0.00526273
0.00372293
0.00213988
0.0011875
0.00068038
0.000460237
0.000372566
0.000340115
0.000326569
0.000314419
0.000294134
0.000264229
0.000229709
0.000196867
0.000169744
0.000149536
0.000135685
0.000127015
0.000122674
0.000122679
0.000127931
0.000140039
0.000161433
0.000195509
0.000246876
0.000321501
0.000425888
0.000562539
0.000721086
0.000870731
0.000971173
0.000904082
0.000556839
0.00277779
0.00800327
0.00774772
0.00561958
0.00392306
0.00258104
0.00158914
0.000983797
0.000642221
0.000470187
0.00039155
0.000356284
0.000339495
0.000328922
0.000318777
0.000306631
0.000292704
0.000278835
0.000266818
0.000257551
0.000251011
0.000246563
0.000243243
0.000240041
0.000236296
0.00023231
0.000229839
0.00023219
0.000243867
0.00027009
0.000316237
0.000386414
0.000480168
0.00058786
0.000660998
0.000732664
0.00080743
0.000596855
0.00202812
0.00237639
0.00264916
0.00324188
0.00255023
0.00206684
0.00168957
0.00132556
0.00102047
0.000801147
0.000660695
0.000576799
0.000525747
0.000491671
0.000464381
0.000437107
0.000406114
0.000370976
0.000334263
0.000299678
0.000269994
0.000246139
0.000227541
0.000212982
0.00020132
0.000191934
0.000184912
0.000181033
0.000181598
0.000188201
0.000202606
0.00022683
0.000263353
0.000314956
0.000385797
0.000469273
0.000487246
0.000427713
0.000364916
0.000303521
)
;

boundaryField
{
    floor
    {
        Cmu             0.09;
        kappa           0.41;
        E               9.8;
        type            epsilonWallFunction;
        value           nonuniform List<scalar> 
29
(
0.000311036
5.40825e-05
8.65108e-05
0.000139028
0.000178774
0.000184921
0.000171961
0.000141958
0.000113906
9.20281e-05
7.5423e-05
6.27331e-05
5.29137e-05
4.51756e-05
3.89877e-05
3.38866e-05
2.94611e-05
2.5321e-05
2.16754e-05
1.61844e-05
1.61844e-05
2.53596e-05
3.35005e-05
4.07945e-05
0.000311036
5.40825e-05
5.13859e-05
0.000106943
0.000666298
)
;
    }
    ceiling
    {
        Cmu             0.09;
        kappa           0.41;
        E               9.8;
        type            epsilonWallFunction;
        value           nonuniform List<scalar> 
43
(
0.00202812
0.00237639
0.00264916
0.00324188
0.00255023
0.00206684
0.00168957
0.00132556
0.00102047
0.000801147
0.000660695
0.000576799
0.000525747
0.000491671
0.000464381
0.000437107
0.000406114
0.000370976
0.000334263
0.000299678
0.000269994
0.000246139
0.000227541
0.000212982
0.00020132
0.000191934
0.000184912
0.000181033
0.000181598
0.000188201
0.000202606
0.00022683
0.000263353
0.000314956
0.000385797
0.000469273
0.000487246
0.000427713
0.000364916
0.000303521
0.0104729
0.0171128
0.00277779
)
;
    }
    sWall
    {
        Cmu             0.09;
        kappa           0.41;
        E               9.8;
        type            epsilonWallFunction;
        value           uniform 0.00202812;
    }
    nWall
    {
        Cmu             0.09;
        kappa           0.41;
        E               9.8;
        type            epsilonWallFunction;
        value           nonuniform List<scalar> 6(0.000169311 0.00019407 0.000306323 0.000556839 0.000596855 0.000303521);
    }
    sideWalls
    {
        type            empty;
    }
    glass1
    {
        Cmu             0.09;
        kappa           0.41;
        E               9.8;
        type            epsilonWallFunction;
        value           nonuniform List<scalar> 9(0.000652272 0.00149266 0.00255866 0.00394093 0.00576208 0.00820996 0.0108343 0.0113519 0.0104729);
    }
    glass2
    {
        Cmu             0.09;
        kappa           0.41;
        E               9.8;
        type            epsilonWallFunction;
        value           nonuniform List<scalar> 2(0.00109613 0.000893733);
    }
    sun
    {
        Cmu             0.09;
        kappa           0.41;
        E               9.8;
        type            epsilonWallFunction;
        value           nonuniform List<scalar> 
14
(
0.000652272
0.000876496
0.000960595
0.00112567
0.00130823
0.00152313
0.0017163
0.00183975
0.00185382
0.00173547
0.00139836
0.00104073
0.000735196
0.000490687
)
;
    }
    heatsource1
    {
        Cmu             0.09;
        kappa           0.41;
        E               9.8;
        type            epsilonWallFunction;
        value           nonuniform List<scalar> 3(6.82398e-05 0.000119282 0.000169311);
    }
    heatsource2
    {
        Cmu             0.09;
        kappa           0.41;
        E               9.8;
        type            epsilonWallFunction;
        value           nonuniform List<scalar> 4(0.000529145 0.000282864 0.000282864 0.000479176);
    }
    Table_master
    {
        Cmu             0.09;
        kappa           0.41;
        E               9.8;
        type            epsilonWallFunction;
        value           nonuniform List<scalar> 9(0.000359556 0.000236333 0.000160453 0.000113055 8.2568e-05 6.23182e-05 4.84629e-05 3.89417e-05 3.27332e-05);
    }
    Table_slave
    {
        Cmu             0.09;
        kappa           0.41;
        E               9.8;
        type            epsilonWallFunction;
        value           nonuniform List<scalar> 9(0.000531613 0.000395613 0.000308053 0.000246967 0.000200529 0.0001624 0.000129508 0.000100244 7.31001e-05);
    }
    inlet
    {
        type            turbulentMixingLengthDissipationRateInlet;
        mixingLength    0.01;
        phi             phi;
        k               k;
        value           uniform 0.000101881;
    }
    outlet
    {
        type            zeroGradient;
    }
}


// ************************************************************************* //
