/*--------------------------------*- C++ -*----------------------------------*\
  =========                 |
  \\      /  F ield         | OpenFOAM: The Open Source CFD Toolbox
   \\    /   O peration     | Website:  https://openfoam.org
    \\  /    A nd           | Version:  6
     \\/     M anipulation  |
\*---------------------------------------------------------------------------*/
FoamFile
{
    version     2.0;
    format      ascii;
    class       surfaceScalarField;
    location    "200";
    object      phi;
}
// * * * * * * * * * * * * * * * * * * * * * * * * * * * * * * * * * * * * * //

dimensions      [1 0 -1 0 0 0 0];

internalField   nonuniform List<scalar> 
852
(
-0.00311614
0.00317353
-0.0043299
0.00121381
-0.00512783
0.000797995
-0.00558186
0.000454081
-0.00563943
5.76266e-05
-0.00525243
-0.000386943
-0.00441951
-0.00083287
-0.00323485
-0.0011846
-0.00186571
-0.00136909
-0.000509613
-0.00135606
0.000554636
-0.00106423
0.00121135
-0.000656687
0.00144158
-0.000230211
0.00115119
0.000290416
0.00115337
-0.00095297
0.000955814
-0.000891735
-6.12711e-05
-0.000298336
-0.000593429
0.000367602
-0.000665967
0.000909573
-0.000542003
0.00129805
-0.00038851
0.00152017
-0.000222158
0.00162584
-0.000105706
0.00168607
-6.02706e-05
0.00172679
-4.07652e-05
0.00175442
-2.76729e-05
0.0017717
-1.73268e-05
0.00177708
-5.42884e-06
0.00176053
1.65035e-05
0.00169593
6.45448e-05
0.00153818
0.000157698
0.00126236
0.000275761
0.00085874
0.000403553
0.00086208
-0.00224643
0.00557523
-0.00339242
0.00235987
-0.00422078
0.00162641
-0.00469788
0.000931238
-0.00478132
0.000141129
-0.00443164
-0.000736555
-0.00367733
-0.00158712
-0.00264941
-0.00221246
-0.00153176
-0.00248668
-0.000492832
-0.00239495
0.000369918
-0.00192695
0.000990079
-0.00127683
0.00134821
-0.000588322
0.00151598
0.000122666
0.0019011
0.000768272
0.000992681
0.000908386
0.000992648
-0.000119591
0.0010841
0.000285996
-0.000466892
0.000727622
-0.00103508
0.00107849
-0.00101686
0.00136983
-0.000833367
0.00157789
-0.00059661
0.00162565
-0.000269946
0.00163637
-0.000116468
0.00164777
-7.17085e-05
0.00165725
-5.02871e-05
0.00166373
-3.41915e-05
0.00166799
-2.16338e-05
0.00166944
-6.93129e-06
0.00166361
2.22815e-05
0.00161957
0.000108525
0.00142913
0.000348085
0.00110741
0.000597422
0.000696212
0.000814682
0.00156755
-0.0015857
0.00739958
-0.00255958
0.0033338
-0.0033164
0.0023833
-0.00375048
0.00136539
-0.00381794
0.000208648
-0.0034532
-0.00110123
-0.00272845
-0.00231178
-0.00182108
-0.00311976
-0.000907895
-0.0033998
-0.000106681
-0.00319612
0.000555032
-0.00258865
0.0010599
-0.00178169
0.00140363
-0.000932038
0.00163142
-0.000105108
0.00174729
0.000652419
0.00138242
0.00127327
0.00237509
0.0013391
-0.000242501
0.00168705
-0.000814863
0.00171022
-0.00105827
0.00175805
-0.0010647
0.00183381
-0.00090916
0.00195668
-0.000719509
0.00168686
0.00157051
0.00149891
0.00144874
0.00141466
0.00139313
0.0013863
0.00140868
0.0015173
0.0012186
0.000646718
0.000894003
0.000921954
0.000519122
0.00118949
0.00210119
-0.0011042
0.00881431
-0.00185672
0.00408638
-0.00239123
0.00291786
-0.00269525
0.00166948
-0.00264776
0.000161226
-0.00218349
-0.00156543
-0.00147748
-0.00301769
-0.000723234
-0.00387391
-4.7441e-05
-0.00407552
0.000500108
-0.00374363
0.00094285
-0.00303138
0.00128807
-0.00212691
0.00154238
-0.00118635
0.00174475
-0.000307473
0.00194196
0.000455212
0.0022129
0.00100234
0.00330255
0.00128544
0.00283502
0.000477878
0.00272385
-0.000131312
0.00253088
-0.000621896
0.00231619
-0.00084358
0.00212616
-0.000874689
0.00198248
-0.000765515
0.00181444
-0.000551501
0.00202499
-0.000210748
0.00209533
-7.05415e-05
0.00210819
-1.30589e-05
0.00208025
2.77285e-05
0.00200926
7.07845e-05
0.0018868
0.000122239
0.0016964
0.000190185
0.00140857
0.000287604
0.000964918
0.000443428
0.000840664
0.000770901
0.000597207
0.00116534
0.000270689
0.00151594
0.00239126
-0.00075832
0.00994502
-0.00129728
0.0046254
-0.00144343
0.00306406
-0.00149862
0.00172471
-0.0011564
-0.000180944
-0.000536391
-0.00218536
9.37563e-05
-0.00364773
0.000605819
-0.00438587
0.000971301
-0.00444092
0.00122398
-0.00399626
0.00140321
-0.0032106
0.00152522
-0.00224893
0.00161519
-0.00127634
0.00172004
-0.000412336
0.00189953
0.000275722
0.0021864
0.000715483
0.0026113
0.000860547
0.00263232
0.000456872
0.00256332
-6.2307e-05
0.00235892
-0.000417499
0.00210702
-0.000591698
0.00185627
-0.000623969
0.00163767
-0.000546956
0.00147309
-0.000386969
0.00144321
-0.000180925
0.00141828
-4.56717e-05
0.00138113
2.40176e-05
0.0013401
6.86954e-05
0.00129435
0.000116459
0.00123294
0.000183567
0.00114169
0.000281364
0.00100746
0.000421752
0.000839655
0.00061115
0.000716505
0.000893974
0.000621492
0.00126028
0.000372825
0.00176453
0.000415265
0.00234874
-0.000995871
0.00141083
-0.00143537
0.000439176
-0.00138888
-0.000625196
0.0109954
-0.000938222
0.00493848
-0.000488521
0.00261441
5.78159e-05
0.00117842
0.00080084
-0.000923919
0.00145623
-0.00284065
0.00187679
-0.00406817
0.00206102
-0.00456998
0.0020719
-0.00445171
0.0019644
-0.00388873
0.00180165
-0.00304787
0.00162632
-0.00207363
0.00148043
-0.00113049
0.00140566
-0.000337601
0.00144522
0.000236141
0.00159947
0.000561227
0.00183776
0.000622259
0.00193428
0.000360346
0.00184758
2.43832e-05
0.0016539
-0.000223842
0.00141652
-0.000354362
0.00117435
-0.000381848
0.000956738
-0.000329404
0.000790547
-0.000220846
0.000700312
-9.07659e-05
0.000655792
-1.23125e-06
0.000637579
4.21483e-05
0.000639905
6.62842e-05
0.000656241
0.000100037
0.000678478
0.00016124
0.000700048
0.000259704
0.00071815
0.00040356
0.000734299
0.000594911
0.000790801
0.000837387
0.000940227
0.00111078
0.00118473
0.00151996
0.00172703
0.00180637
0.00205387
0.00108389
0.00172111
0.000771839
0.000388471
-0.000585629
0.0120547
-0.000336453
0.00468936
0.000977137
0.00130086
0.00216626
-1.06854e-05
0.00314672
-0.00190431
0.00368122
-0.00337504
0.00378558
-0.00417239
0.00354965
-0.00433393
0.00308931
-0.00399129
0.00251947
-0.00331887
0.00194128
-0.00246971
0.00141316
-0.00154558
0.00100266
-0.000720057
0.000739698
-7.46961e-05
0.000667573
0.000308233
0.000749168
0.00047961
0.000893959
0.000477447
0.00094866
0.000305618
0.000878482
9.45223e-05
0.000722496
-6.79076e-05
0.000521233
-0.000153164
0.000309826
-0.000170517
0.000118334
-0.000137996
-2.60871e-05
-7.65149e-05
-0.000104565
-1.23812e-05
-0.000125654
1.97607e-05
-0.000105234
2.16305e-05
-5.39193e-05
1.4871e-05
2.54063e-05
2.06105e-05
0.000129913
5.66317e-05
0.00025819
0.000131325
0.000413713
0.000247935
0.000596959
0.000411566
0.000831199
0.000603053
0.00115465
0.000787233
0.00163079
0.00104374
0.00235717
0.00107991
0.00293751
0.000503463
0.00301071
0.000698541
0.00345938
0.00297162
0.00961399
0.00386984
0.00379119
0.00455331
0.000617439
0.00572332
-0.00118064
0.00631334
-0.00249421
0.00625126
-0.00331282
0.00567505
-0.00359602
0.00475895
-0.00341772
0.00366195
-0.00289425
0.00254062
-0.00219757
0.00152794
-0.00145712
0.000665228
-0.000682985
5.89348e-05
-0.000113867
-0.000241138
0.000225298
-0.000293922
0.000360966
-0.000225471
0.000411115
-0.000131621
0.00038355
-0.000105336
0.000279275
-0.000166107
0.000155222
-0.000291508
5.74099e-05
-0.000450434
5.66676e-06
-0.000615229
-5.82316e-06
-0.000759806
6.47361e-06
-0.000862229
2.57969e-05
-0.000910208
3.54849e-05
-0.000914546
2.39861e-05
-0.000890325
-2.7028e-06
-0.000840619
-3.49476e-05
-0.000758248
-6.18745e-05
-0.000633878
-6.78531e-05
-0.00046579
-3.68781e-05
-0.000256089
3.81207e-05
7.49593e-06
0.000147869
0.000321722
0.000288722
0.000659887
0.000448969
0.00106877
0.000634762
0.0014965
0.000652095
0.0016019
0.000397971
0.000824786
0.00147556
0.0045317
0.0102006
0.0139869
0.0124465
0.00215793
0.0114178
-0.000151777
0.0100794
-0.00115566
0.00843465
-0.00166785
0.00660978
-0.00177102
0.00477019
-0.0015781
0.00300746
-0.00113158
0.0014294
-0.00061961
0.000125479
-0.000153345
-0.000749591
0.00019192
-0.00115838
0.000294811
-0.00126938
0.000336208
-0.0012606
0.000352107
-0.0012014
0.00035184
-0.00114399
0.000326064
-0.00113531
0.000270498
-0.00118546
0.000205271
-0.00127925
0.000151086
-0.00139171
0.000118003
-0.00150164
0.000103988
-0.00159579
0.000100487
-0.00166828
9.81636e-05
-0.00172262
8.96961e-05
-0.00177095
7.21813e-05
-0.00182424
5.04603e-05
-0.00189364
3.43242e-05
-0.00199064
3.49955e-05
-0.00212346
6.48321e-05
-0.00229766
0.000137205
-0.00252684
0.00026718
-0.0028504
0.000471311
-0.00332493
0.000763135
-0.00402146
0.00114539
-0.00498656
0.00159975
-0.00632991
0.00199534
-0.00797468
0.00204263
-0.00741984
0.000920603
-0.00262097
0.00504189
0.00388362
0.00356284
0.00132738
0.0033424
-0.000935246
0.00271641
-0.00104198
0.00167026
-0.000725037
0.000450372
-0.000358409
-0.000711862
3.03935e-05
-0.00157699
0.000245334
-0.00205337
0.000322882
-0.00221143
0.000349849
-0.00224781
0.000331073
-0.00222033
0.000308618
-0.00216412
0.000295786
-0.00210188
0.000289491
-0.00205488
0.000278948
-0.00204171
0.000257196
-0.0020648
0.000228228
-0.00211348
0.000199632
-0.00217234
0.000176719
-0.00222883
0.000160337
-0.00227664
0.000148151
-0.00231533
0.000136708
-0.00234899
0.000123207
-0.00238421
0.000107257
-0.00242625
9.23492e-05
-0.00247732
8.52509e-05
-0.0025374
9.4942e-05
-0.00260478
0.00013207
-0.00267703
0.000209329
-0.00275243
0.000342452
-0.00283092
0.00054968
-0.00291154
0.00084363
-0.00297804
0.00121177
-0.0029605
0.0015821
-0.00275922
0.00179395
-0.00208971
0.00137299
-0.000814655
-0.000354584
-0.00336991
-0.000217166
0.00416996
0.000335112
0.000774963
-0.000701247
0.000100835
-0.00175332
9.85377e-06
-0.00257137
9.27924e-05
-0.00311742
0.000187435
-0.00334941
0.000262195
-0.0033916
0.000287364
-0.0033446
0.000275728
-0.00324348
0.000248582
-0.00313094
0.000218391
-0.00302045
0.000197993
-0.00291465
0.000189843
-0.00281566
0.000190359
-0.00272932
0.000192464
-0.00266274
0.000190461
-0.00261782
0.00018315
-0.00259041
0.000172069
-0.00257332
0.000159464
-0.0025601
0.000146956
-0.00254734
0.000135226
-0.00253494
0.000124143
-0.00252505
0.000113153
-0.00252009
0.000102135
-0.0025202
9.23092e-05
-0.00252152
8.64181e-05
-0.00251552
8.87824e-05
-0.0024892
0.00010561
-0.00242552
0.000145506
-0.00230358
0.000220366
-0.00210032
0.000346289
-0.00179299
0.000536169
-0.0013571
0.000775745
-0.000737676
0.000962547
0.000177279
0.000878863
0.00127196
0.000278173
0.00160708
-0.000689844
-0.00169092
-0.00765751
-0.0105733
-0.00636427
-0.00557708
-0.00547379
-0.00546566
-0.00537696
-0.00519546
-0.00494077
-0.00466224
-0.00439645
-0.0041587
-0.00395185
-0.00376601
-0.00358887
-0.00341175
-0.00323307
-0.00305696
-0.0028887
-0.002732
-0.00258828
-0.00245731
-0.0023382
-0.0022302
-0.00213313
-0.00204697
-0.00197045
-0.00189956
-0.00182594
-0.001735
-0.00160356
-0.00139655
-0.00106283
-0.000538432
0.000226311
0.00117843
0.00204682
0.00231384
0.00161195
)
;

boundaryField
{
    floor
    {
        type            calculated;
        value           nonuniform List<scalar> 
29
(
0
0
0
0
0
0
0
0
0
0
0
0
0
0
0
0
0
0
0
0
-3.40735e-06
-9.32326e-06
-1.45972e-05
-1.94493e-05
-2.15433e-06
-2.8844e-06
-8.73349e-06
-1.25468e-05
-1.03328e-05
)
;
    }
    ceiling
    {
        type            calculated;
        value           nonuniform List<scalar> 
43
(
-4.12522e-05
-4.02912e-05
-3.92474e-05
-1.24552e-05
-2.65234e-06
1.52016e-06
3.90439e-06
5.75934e-06
7.32864e-06
8.66011e-06
9.76807e-06
1.06564e-05
1.13761e-05
1.19827e-05
1.25303e-05
1.30642e-05
1.36117e-05
1.41716e-05
1.4713e-05
1.519e-05
1.55621e-05
1.58097e-05
1.59369e-05
1.59634e-05
1.59116e-05
1.57961e-05
1.56168e-05
1.53586e-05
1.49979e-05
1.45153e-05
1.39083e-05
1.31967e-05
1.24184e-05
1.16256e-05
1.0859e-05
1.02899e-05
1.03332e-05
1.10149e-05
1.1893e-05
1.3911e-05
7.51122e-06
4.94536e-06
-6.91186e-05
)
;
    }
    sWall
    {
        type            calculated;
        value           uniform -0.000267594;
    }
    nWall
    {
        type            calculated;
        value           nonuniform List<scalar> 6(-4.68029e-05 -5.63511e-05 -6.02963e-05 -6.58746e-05 -7.20608e-05 -9.3053e-05);
    }
    sideWalls
    {
        type            empty;
        value           nonuniform 0();
    }
    glass1
    {
        type            calculated;
        value           nonuniform List<scalar> 9(-5.7336e-05 -0.000155215 -0.000238581 -0.000310476 -0.000372324 -0.000425094 -0.000473651 -0.000530838 -0.000594086);
    }
    glass2
    {
        type            calculated;
        value           nonuniform List<scalar> 2(-0.000247626 -0.000267279);
    }
    sun
    {
        type            calculated;
        value           uniform 0;
    }
    heatsource1
    {
        type            calculated;
        value           nonuniform List<scalar> 3(2.03966e-07 2.03831e-07 2.03872e-07);
    }
    heatsource2
    {
        type            calculated;
        value           nonuniform List<scalar> 4(5.11424e-08 5.12851e-08 0 0);
    }
    Table_master
    {
        type            calculated;
        value           nonuniform List<scalar> 9(-1.53104e-07 -1.53257e-07 -1.53304e-07 -1.53332e-07 -1.53349e-07 -1.53358e-07 -1.5336e-07 -1.53349e-07 -1.53304e-07);
    }
    Table_slave
    {
        type            calculated;
        value           nonuniform List<scalar> 9(1.5287e-07 1.52901e-07 1.52884e-07 1.52872e-07 1.5287e-07 1.52885e-07 1.52919e-07 1.52976e-07 1.53069e-07);
    }
    inlet
    {
        type            calculated;
        value           uniform -0.00676745;
    }
    outlet
    {
        type            calculated;
        value           nonuniform List<scalar> 2(0.00796617 0.00295588);
    }
}


// ************************************************************************* //
