// -*- C++ -*-
// File generated by PyFoam - sorry for the ugliness

FoamFile
{
 version 2.0;
 format ascii;
 class volVectorField;
 location "200";
 object U;
}

dimensions [ 0 1 -1 0 0 0 0 ];

internalField nonuniform List<vector> 459
(
  (0.0204216 0.089855 0)
  (-0.178226 0.0275034 0)
  (-0.208264 0.0141109 0)
  (-0.235445 0.00370902 0)
  (-0.24598 -0.00752136 0)
  (-0.236843 -0.0194646 0)
  (-0.208535 -0.032044 0)
  (-0.1639 -0.0429382 0)
  (-0.109771 -0.0498228 0)
  (-0.0547378 -0.0509707 0)
  (0.00317514 -0.0405857 0)
  (0.0391105 -0.0253651 0)
  (0.0585685 -0.0108087 0)
  (0.0604285 0.00646692 0)
  (0.0436359 0.0370846 0)
  (-0.0207249 0.0144459 0)
  (-0.0443313 -0.0132387 0)
  (-0.0216146 -0.0276106 0)
  (0.00364795 -0.0283774 0)
  (0.0281909 -0.0217769 0)
  (0.0474744 -0.0152227 0)
  (0.0607223 -0.00881241 0)
  (0.0683547 -0.00533577 0)
  (0.0719766 -0.00398241 0)
  (0.073788 -0.00341954 0)
  (0.0750168 -0.00306002 0)
  (0.0759303 -0.00276071 0)
  (0.0764505 -0.00243106 0)
  (0.0762957 -0.00185876 0)
  (0.0747877 -0.000612973 0)
  (0.0705134 0.00191679 0)
  (0.06187 0.0050641 0)
  (0.0496575 0.00928201 0)
  (0.00430663 0.0247577 0)
  (0.188751 0.185614 0)
  (-0.161209 0.0779785 0)
  (-0.167741 0.0533875 0)
  (-0.196806 0.0314064 0)
  (-0.208555 0.00590428 0)
  (-0.200998 -0.0228773 0)
  (-0.175274 -0.0514286 0)
  (-0.135669 -0.0735984 0)
  (-0.089341 -0.0847823 0)
  (-0.0436099 -0.0835631 0)
  (-0.001006 -0.0673331 0)
  (0.0307685 -0.0426146 0)
  (0.0515675 -0.0168377 0)
  (0.0647741 0.0107812 0)
  (0.0703482 0.0410424 0)
  (0.0717298 0.0423062 0)
  (0.0483275 0.0441613 0)
  (0.0399441 0.0458143 0)
  (0.00481689 -0.0169124 0)
  (0.0255066 -0.0396233 0)
  (0.039558 -0.0394741 0)
  (0.0528314 -0.0320708 0)
  (0.0638771 -0.0224821 0)
  (0.0692857 -0.0102753 0)
  (0.0707442 -0.00299329 0)
  (0.0708388 -0.0001725 0)
  (0.071047 0.000894003 0)
  (0.0714066 0.00145925 0)
  (0.0716876 0.00187143 0)
  (0.0718384 0.00241239 0)
  (0.0717907 0.0035145 0)
  (0.0709653 0.00613031 0)
  (0.0667713 0.0129796 0)
  (0.0564235 0.0195262 0)
  (0.0462491 0.0265106 0)
  (-0.031193 0.0516129 0)
  (0.343114 0.277396 0)
  (-0.170546 0.122128 0)
  (-0.127491 0.0855309 0)
  (-0.156632 0.0482375 0)
  (-0.1679 0.00594415 0)
  (-0.158975 -0.0404778 0)
  (-0.132929 -0.0846872 0)
  (-0.0965988 -0.116017 0)
  (-0.0576324 -0.128474 0)
  (-0.0212453 -0.122262 0)
  (0.0109668 -0.0982169 0)
  (0.0353628 -0.0665469 0)
  (0.0535438 -0.0330312 0)
  (0.0661138 0.000494858 0)
  (0.0734773 0.0310781 0)
  (0.0715406 0.0482394 0)
  (0.0603246 0.0807146 0)
  (0.105273 0.000209812 0)
  (0.0735238 -0.0334281 0)
  (0.0709927 -0.0472146 0)
  (0.0739914 -0.0472195 0)
  (0.0771706 -0.0399886 0)
  (0.0808589 -0.0317433 0)
  (0.0801131 -0.0242561 0)
  (0.0718351 -0.0159819 0)
  (0.0655017 -0.0114986 0)
  (0.0625985 -0.00897616 0)
  (0.0612392 -0.00736229 0)
  (0.0603004 -0.00625728 0)
  (0.0596721 -0.0053642 0)
  (0.0599863 -0.00412039 0)
  (0.0627247 -0.000246163 0)
  (0.0604805 0.0181537 0)
  (0.0473588 0.0313313 0)
  (0.0454748 0.042733 0)
  (-0.0668181 0.0777823 0)
  (0.483881 0.351212 0)
  (-0.197486 0.160724 0)
  (-0.085365 0.114576 0)
  (-0.113587 0.0646296 0)
  (-0.121057 0.00667675 0)
  (-0.104934 -0.0582437 0)
  (-0.0767059 -0.116693 0)
  (-0.0446979 -0.153678 0)
  (-0.0152357 -0.164593 0)
  (0.0109874 -0.152217 0)
  (0.0312712 -0.123425 0)
  (0.047864 -0.0862133 0)
  (0.0607309 -0.0471641 0)
  (0.0708282 -0.00993618 0)
  (0.0800608 0.0234984 0)
  (0.0911635 0.0497596 0)
  (0.108397 0.0812389 0)
  (0.138137 0.0741155 0)
  (0.128701 0.0122888 0)
  (0.11355 -0.0232885 0)
  (0.103288 -0.0390093 0)
  (0.0949124 -0.041951 0)
  (0.0875778 -0.0370536 0)
  (0.0814774 -0.0276717 0)
  (0.0811798 -0.0160961 0)
  (0.0873228 -0.0101771 0)
  (0.0910453 -0.00681048 0)
  (0.091006 -0.00455424 0)
  (0.0886037 -0.00264044 0)
  (0.0843972 -0.000728413 0)
  (0.0779096 0.00148591 0)
  (0.0680142 0.00447426 0)
  (0.0508284 0.00911471 0)
  (0.0389278 0.0298871 0)
  (0.0295221 0.0454904 0)
  (0.0454896 0.0591279 0)
  (-0.106758 0.0980568 0)
  (0.607996 0.407906 0)
  (-0.233846 0.191115 0)
  (-0.0432253 0.132766 0)
  (-0.0670011 0.0752655 0)
  (-0.063575 0.00405004 0)
  (-0.0337415 -0.0802222 0)
  (-0.00500424 -0.146686 0)
  (0.0190805 -0.182309 0)
  (0.0357503 -0.187087 0)
  (0.047778 -0.170088 0)
  (0.0562047 -0.137691 0)
  (0.0622589 -0.0972011 0)
  (0.0667379 -0.0556136 0)
  (0.0711028 -0.0176295 0)
  (0.0773134 0.0143534 0)
  (0.0870077 0.036868 0)
  (0.102939 0.0462691 0)
  (0.115117 0.0172525 0)
  (0.113996 -0.0114642 0)
  (0.1067 -0.0261407 0)
  (0.0963096 -0.0324144 0)
  (0.0850804 -0.0328559 0)
  (0.0746512 -0.028554 0)
  (0.0662676 -0.0204401 0)
  (0.0619472 -0.00890123 0)
  (0.0612285 -0.00197408 0)
  (0.060366 0.0014655 0)
  (0.0587272 0.00362892 0)
  (0.056837 0.00572631 0)
  (0.0546034 0.00834927 0)
  (0.0515187 0.0119385 0)
  (0.0470793 0.0170057 0)
  (0.040099 0.0242354 0)
  (0.0332534 0.0381517 0)
  (0.0252415 0.0539733 0)
  (0.052836 0.0724484 0)
  (-0.0296127 0.105904 0)
  (0.0446014 0.0279067 0)
  (-0.0614858 -0.0339186 0)
  (-0.268298 -0.0560727 0)
  (0.70266 0.453647 0)
  (-0.272274 0.209569 0)
  (-0.00798068 0.130026 0)
  (-0.0150264 0.0735072 0)
  (0.0192479 -0.020637 0)
  (0.0544663 -0.110218 0)
  (0.0772637 -0.169214 0)
  (0.0885817 -0.195991 0)
  (0.0907697 -0.195013 0)
  (0.0870126 -0.173478 0)
  (0.0801544 -0.138447 0)
  (0.0723495 -0.0965518 0)
  (0.065417 -0.0549307 0)
  (0.060971 -0.018693 0)
  (0.06023 0.0092547 0)
  (0.0647349 0.0262147 0)
  (0.0747857 0.0294505 0)
  (0.0824012 0.0142365 0)
  (0.0824476 -0.00175834 0)
  (0.076238 -0.0133802 0)
  (0.0664386 -0.0197595 0)
  (0.0556617 -0.0211865 0)
  (0.0454527 -0.0185171 0)
  (0.0369935 -0.0127857 0)
  (0.0314646 -0.00542166 0)
  (0.0288465 -0.000572244 0)
  (0.0275962 0.00188323 0)
  (0.0273518 0.00343019 0)
  (0.0277842 0.0052876 0)
  (0.0286904 0.00819423 0)
  (0.029751 0.0126378 0)
  (0.0308315 0.0190546 0)
  (0.0315601 0.0276907 0)
  (0.0331474 0.0392588 0)
  (0.0332944 0.0533603 0)
  (0.0614735 0.0736085 0)
  (0.0410872 0.0937092 0)
  (0.0881826 0.0630246 0)
  (0.113443 0.0419936 0)
  (-0.130346 -0.00756257 0)
  (0.771338 0.494478 0)
  (-0.291301 0.191252 0)
  (0.0311221 0.0708835 0)
  (0.0639578 0.021593 0)
  (0.123377 -0.0678249 0)
  (0.155206 -0.140078 0)
  (0.166665 -0.182695 0)
  (0.16158 -0.196191 0)
  (0.144348 -0.18584 0)
  (0.12023 -0.159047 0)
  (0.0943477 -0.122554 0)
  (0.0699739 -0.0814193 0)
  (0.0499811 -0.0424142 0)
  (0.0358063 -0.0104132 0)
  (0.0284189 0.0113315 0)
  (0.029789 0.0219884 0)
  (0.0360846 0.0226181 0)
  (0.0406807 0.0134207 0)
  (0.0399542 0.00234483 0)
  (0.0352099 -0.00618537 0)
  (0.0271072 -0.0107417 0)
  (0.0178242 -0.011641 0)
  (0.00885033 -0.00971809 0)
  (0.00139978 -0.00592807 0)
  (-0.00339239 -0.00162993 0)
  (-0.00548031 0.000922998 0)
  (-0.00526747 0.00182526 0)
  (-0.00372051 0.00222234 0)
  (-0.000959551 0.00318922 0)
  (0.00305305 0.00548806 0)
  (0.00813983 0.00945485 0)
  (0.0144042 0.0153271 0)
  (0.0217003 0.0231663 0)
  (0.030993 0.0325511 0)
  (0.0401269 0.0430336 0)
  (0.0650399 0.0588479 0)
  (0.0788244 0.0668902 0)
  (0.114014 0.0440314 0)
  (0.155144 0.037932 0)
  (-0.0339585 0.0884704 0)
  (0.882158 0.487711 0)
  (-0.03577 0.166333 0)
  (0.12737 -0.0194564 0)
  (0.235728 -0.0930336 0)
  (0.275541 -0.13442 0)
  (0.279164 -0.164395 0)
  (0.261083 -0.178056 0)
  (0.226704 -0.173567 0)
  (0.181465 -0.153308 0)
  (0.131969 -0.122879 0)
  (0.0849705 -0.0876631 0)
  (0.0437174 -0.0505094 0)
  (0.0130139 -0.0179801 0)
  (-0.00772079 0.00534816 0)
  (-0.0129584 0.0155424 0)
  (-0.011483 0.019373 0)
  (-0.00707523 0.018211 0)
  (-0.00421976 0.0122081 0)
  (-0.0053023 0.00505682 0)
  (-0.00948454 -0.000353797 0)
  (-0.0157618 -0.00307314 0)
  (-0.023069 -0.003474 0)
  (-0.0299809 -0.00237656 0)
  (-0.0354709 -0.000661905 0)
  (-0.0387262 0.000717071 0)
  (-0.0396547 0.000941274 0)
  (-0.0390711 0.000210486 0)
  (-0.0375801 -0.000897236 0)
  (-0.0348999 -0.00180746 0)
  (-0.030599 -0.00191434 0)
  (-0.0241395 -0.000744063 0)
  (-0.0156375 0.00182461 0)
  (-0.00593146 0.00553117 0)
  (0.00765383 0.00970883 0)
  (0.0198089 0.0131824 0)
  (0.039075 0.0194254 0)
  (0.0561739 0.0146392 0)
  (0.0728971 -0.00886248 0)
  (0.131293 0.0411624 0)
  (-0.426978 0.203956 0)
  (1.03784 0.427963 0)
  (0.498029 0.280566 0)
  (0.51024 0.16702 0)
  (0.52542 0.0591135 0)
  (0.475359 -0.0247137 0)
  (0.401429 -0.0798792 0)
  (0.322916 -0.105504 0)
  (0.243611 -0.106737 0)
  (0.165632 -0.0901917 0)
  (0.0930362 -0.0642156 0)
  (0.0313277 -0.0348849 0)
  (-0.0213169 -0.00508775 0)
  (-0.0451703 0.00869662 0)
  (-0.0539379 0.0142262 0)
  (-0.0551469 0.0162917 0)
  (-0.0530881 0.0166755 0)
  (-0.0500528 0.0152306 0)
  (-0.0484622 0.0118855 0)
  (-0.049528 0.00800389 0)
  (-0.0528896 0.00488667 0)
  (-0.0575685 0.00309199 0)
  (-0.062519 0.00237537 0)
  (-0.0670258 0.00219793 0)
  (-0.0705946 0.00201866 0)
  (-0.073216 0.00140915 0)
  (-0.0752975 0.000189475 0)
  (-0.0774178 -0.0013374 0)
  (-0.0799133 -0.00266995 0)
  (-0.0834133 -0.00323256 0)
  (-0.0883257 -0.00236523 0)
  (-0.0949378 0.000538824 0)
  (-0.103336 0.00589866 0)
  (-0.114467 0.0139866 0)
  (-0.130938 0.0251926 0)
  (-0.1557 0.0394918 0)
  (-0.190404 0.0555285 0)
  (-0.238208 0.0691267 0)
  (-0.292655 0.0766755 0)
  (-0.356123 0.0782937 0)
  (-0.60238 0.0754527 0)
  (-0.0653137 0.0411217 0)
  (0.107072 -0.0312082 0)
  (0.169656 -0.080803 0)
  (0.139271 -0.0801105 0)
  (0.0961111 -0.0630795 0)
  (0.0482633 -0.0413052 0)
  (-0.00669037 -0.0145873 0)
  (-0.0541495 0.00522752 0)
  (-0.0818773 0.0150013 0)
  (-0.0938891 0.0181096 0)
  (-0.0971517 0.0176716 0)
  (-0.0967983 0.0170428 0)
  (-0.0946605 0.0166265 0)
  (-0.0918347 0.0163976 0)
  (-0.089242 0.0159101 0)
  (-0.0878873 0.0149307 0)
  (-0.0882214 0.0138635 0)
  (-0.0899601 0.0132185 0)
  (-0.0924477 0.0132586 0)
  (-0.0950334 0.0138828 0)
  (-0.0973062 0.0147801 0)
  (-0.0991246 0.0156076 0)
  (-0.100607 0.0160834 0)
  (-0.102038 0.0160456 0)
  (-0.103691 0.0155248 0)
  (-0.105707 0.0147173 0)
  (-0.108133 0.014025 0)
  (-0.110913 0.0140864 0)
  (-0.113926 0.0157883 0)
  (-0.116994 0.0201729 0)
  (-0.119953 0.0282236 0)
  (-0.1228 0.0404798 0)
  (-0.125716 0.0563535 0)
  (-0.128588 0.0728752 0)
  (-0.128227 0.0818003 0)
  (-0.10585 0.0653542 0)
  (-0.0278908 -0.0164358 0)
  (-0.262291 -0.200491 0)
  (0.0750063 0.186821 0)
  (0.028633 0.034604 0)
  (-0.00842338 -0.024964 0)
  (-0.0543543 -0.0240895 0)
  (-0.0951701 -0.0128973 0)
  (-0.124867 -0.0043993 0)
  (-0.141559 0.000814597 0)
  (-0.146321 0.0015674 0)
  (-0.146091 4.30135e-05 0)
  (-0.142425 -0.00219448 0)
  (-0.137579 -0.00510171 0)
  (-0.132696 -0.00759305 0)
  (-0.127968 -0.0094935 0)
  (-0.123458 -0.0111537 0)
  (-0.119373 -0.013194 0)
  (-0.116061 -0.0160864 0)
  (-0.113723 -0.0198683 0)
  (-0.112265 -0.0242641 0)
  (-0.111392 -0.0288606 0)
  (-0.110783 -0.0332796 0)
  (-0.110222 -0.0372615 0)
  (-0.109649 -0.0406524 0)
  (-0.109135 -0.0433221 0)
  (-0.108809 -0.0450427 0)
  (-0.10874 -0.0454098 0)
  (-0.108853 -0.0439182 0)
  (-0.108878 -0.0401235 0)
  (-0.108332 -0.0337659 0)
  (-0.106508 -0.0247747 0)
  (-0.102461 -0.0131285 0)
  (-0.0950912 0.00128045 0)
  (-0.0833937 0.0183787 0)
  (-0.0668623 0.0368079 0)
  (-0.0460758 0.0523622 0)
  (-0.023748 0.0587649 0)
  (0.0194178 0.0338204 0)
  (0.142057 -0.0280625 0)
  (-0.195253 -0.100894 0)
  (-0.0864051 -0.337177 0)
  (-0.429977 -0.123154 0)
  (-0.308832 0.0779229 0)
  (-0.280401 0.0127671 0)
  (-0.242038 0.0184173 0)
  (-0.237451 0.0296931 0)
  (-0.234538 0.0384292 0)
  (-0.228509 0.0462842 0)
  (-0.218818 0.0532956 0)
  (-0.207084 0.0587755 0)
  (-0.195298 0.0632676 0)
  (-0.184421 0.0673387 0)
  (-0.174912 0.0713034 0)
  (-0.166533 0.0754979 0)
  (-0.158729 0.0801438 0)
  (-0.151049 0.0854738 0)
  (-0.143315 0.0916821 0)
  (-0.13563 0.0988122 0)
  (-0.128206 0.106673 0)
  (-0.121218 0.114832 0)
  (-0.114755 0.122718 0)
  (-0.108833 0.129805 0)
  (-0.103427 0.135746 0)
  (-0.0985106 0.140369 0)
  (-0.094074 0.143556 0)
  (-0.0901253 0.1451 0)
  (-0.0866494 0.144668 0)
  (-0.0835519 0.141894 0)
  (-0.080596 0.136587 0)
  (-0.0772881 0.128955 0)
  (-0.0726626 0.119763 0)
  (-0.0650992 0.110335 0)
  (-0.0526216 0.102389 0)
  (-0.033974 0.0976425 0)
  (-0.00836059 0.0966108 0)
  (0.0307522 0.0966567 0)
  (0.0635705 0.0939164 0)
  (0.095361 0.0868028 0)
  (0.158845 0.0683906 0)
  (-0.261523 0.0361575 0)
)
;

boundaryField
{
  floor
  {
    type noSlip;
  }
  ceiling
  {
    type noSlip;
  }
  sWall
  {
    type noSlip;
  }
  nWall
  {
    type noSlip;
  }
  sideWalls
  {
    type empty;
  }
  glass1
  {
    type noSlip;
  }
  glass2
  {
    type noSlip;
  }
  sun
  {
    type noSlip;
  }
  heatsource1
  {
    type noSlip;
  }
  heatsource2
  {
    type noSlip;
  }
  Table_master
  {
    type noSlip;
  }
  Table_slave
  {
    type noSlip;
  }
  inlet
  {
    type fixedValue;
    value uniform (0.0382683 -0.092388 0);
  }
  outlet
  {
    type zeroGradient;
  }
} 	// ************************************************************************* //

