/*--------------------------------*- C++ -*----------------------------------*\
  =========                 |
  \\      /  F ield         | OpenFOAM: The Open Source CFD Toolbox
   \\    /   O peration     | Website:  https://openfoam.org
    \\  /    A nd           | Version:  6
     \\/     M anipulation  |
\*---------------------------------------------------------------------------*/
FoamFile
{
    version     2.0;
    format      ascii;
    class       volScalarField;
    location    "300";
    object      nut;
}
// * * * * * * * * * * * * * * * * * * * * * * * * * * * * * * * * * * * * * //

dimensions      [0 2 -1 0 0 0 0];

internalField   nonuniform List<scalar> 
459
(
0.000701788
0.000717315
0.000608625
0.000623391
0.000646438
0.000670461
0.000695077
0.000720627
0.000747603
0.000772389
0.000793273
0.000807942
0.000813427
0.000805865
0.000777653
0.000259171
0.000255228
0.000235363
0.000233335
0.000233782
0.000235131
0.000239783
0.000251087
0.000268291
0.00029134
0.000320633
0.000356202
0.00039472
0.000438009
0.000485726
0.000529195
0.000534747
0.000494791
0.000422989
0.00127829
0.00245192
0.001622
0.00248348
0.00278398
0.00298177
0.00317625
0.00335957
0.00351616
0.00364798
0.00372883
0.00371643
0.00353709
0.0030636
0.00212691
0.000822791
0.000572689
0.000356453
0.000739383
0.000510624
0.000430425
0.000359545
0.000321701
0.000351995
0.00038564
0.000456798
0.00055567
0.000667223
0.00078
0.000907877
0.00105011
0.00122246
0.00156331
0.00134441
0.000983238
0.000544122
0.00178825
0.00438977
0.00186391
0.00308794
0.00410506
0.00445185
0.00468574
0.00488307
0.00503861
0.00515819
0.00521168
0.00515045
0.0048949
0.00432871
0.00334481
0.00203134
0.000830167
0.000511481
0.00133699
0.000990948
0.000778822
0.000619333
0.000463736
0.000255501
0.00028607
0.000330368
0.00037759
0.000429318
0.000489654
0.0005631
0.000653735
0.000767861
0.00206652
0.00190359
0.0014295
0.000832446
0.00226193
0.0067533
0.00275094
0.00292166
0.00452325
0.00514637
0.00546571
0.00571453
0.00591819
0.00608758
0.00621239
0.00624768
0.00611407
0.00569047
0.00483164
0.00346963
0.00188967
0.000898362
0.00176347
0.00201018
0.00184411
0.00162692
0.00137184
0.00110388
0.000811738
0.000814289
0.000814496
0.000812998
0.000812823
0.000818686
0.000837466
0.000878522
0.00095463
0.00270546
0.00263319
0.00213403
0.00107884
0.00269141
0.00920448
0.00454339
0.00310568
0.00421586
0.00510258
0.00560987
0.00598998
0.00631076
0.00660065
0.00689646
0.00717051
0.00736795
0.00741309
0.0072254
0.00675609
0.00604139
0.00520563
0.00444905
0.00437457
0.00449289
0.00466543
0.00480446
0.00480447
0.00473022
0.00467254
0.0045703
0.00442177
0.00423509
0.00403118
0.00384527
0.00371514
0.0036572
0.00366853
0.0034648
0.00317176
0.00266812
0.00124105
0.00111126
0.000965989
0.00308445
0.0113326
0.00736231
0.0046576
0.00403186
0.00441035
0.00501377
0.00556815
0.0060357
0.00647457
0.00696796
0.00749904
0.00801706
0.00845179
0.00872653
0.00877472
0.00856272
0.00812197
0.00756452
0.00718801
0.00707524
0.00711916
0.00719697
0.00721124
0.00716822
0.00706889
0.00690998
0.00668707
0.0063931
0.00602461
0.00559302
0.00513412
0.00469549
0.00430165
0.00394319
0.00359802
0.00319971
0.00273591
0.00214418
0.000987366
0.0034128
0.0125488
0.0103769
0.00746263
0.00548143
0.00450131
0.00445728
0.00481071
0.00522828
0.00569293
0.00628482
0.00700325
0.00778814
0.00854537
0.00917807
0.00960074
0.00975063
0.00963329
0.00933449
0.00901397
0.00880477
0.0087164
0.00868277
0.00865668
0.00861105
0.00853154
0.00841248
0.0082458
0.00801512
0.00769294
0.0072437
0.00664316
0.00591995
0.00517523
0.00451194
0.00394345
0.00340885
0.00286371
0.00223215
0.00102013
0.00342526
0.0111068
0.0101126
0.00930741
0.0076647
0.0061992
0.0053284
0.00493836
0.00485758
0.00498324
0.00531539
0.00589462
0.0067056
0.00764621
0.00856446
0.00932326
0.0097897
0.00996687
0.00990936
0.00972993
0.00954753
0.00941807
0.00934081
0.00929564
0.00926118
0.00922263
0.00917278
0.00910561
0.00901086
0.00886858
0.0086417
0.00826778
0.00766644
0.00681279
0.00584282
0.00495809
0.00420871
0.00362846
0.00320393
0.00161313
0.00326526
0.00377246
0.00908178
0.00968963
0.00845187
0.00712621
0.00609735
0.00540431
0.00499103
0.00479498
0.00480958
0.0050595
0.00556445
0.00630664
0.00718705
0.00804738
0.00873457
0.00917754
0.00937847
0.00940093
0.00933315
0.00924291
0.00916498
0.00911067
0.00907806
0.00906159
0.00905656
0.00905909
0.00906434
0.00906408
0.00904344
0.00897634
0.00882218
0.00853689
0.00812455
0.00762948
0.00703999
0.00616723
0.00595726
0.00171246
0.0197874
0.018089
0.0102973
0.00802778
0.006849
0.00608984
0.00559985
0.00530946
0.00517882
0.00518639
0.00533175
0.00561762
0.00603842
0.00655809
0.00710381
0.00759135
0.00795707
0.00818149
0.0082871
0.00831362
0.0082978
0.00826623
0.00823457
0.00821126
0.00820146
0.00820826
0.00823187
0.00826833
0.0083076
0.00833056
0.00830508
0.00818506
0.00792171
0.00748322
0.0068573
0.00603838
0.00510831
0.00163333
0.00688125
0.0142253
0.00997555
0.00775649
0.00654994
0.00582719
0.00539456
0.00516086
0.00507403
0.00509971
0.00521154
0.00538925
0.00561844
0.00588637
0.00617388
0.00645269
0.00669293
0.00687536
0.00699675
0.00706601
0.00709749
0.00710532
0.00709503
0.00707253
0.00704724
0.00702538
0.00700886
0.00699481
0.00697488
0.00693443
0.00685185
0.00669974
0.00645085
0.00608722
0.00560416
0.00497525
0.00466847
0.00154394
0.00161373
0.00229265
0.00485721
0.00441109
0.00367743
0.00308613
0.00264951
0.00232692
0.00208457
0.00190043
0.00176083
0.00165712
0.00158328
0.00153441
0.0015058
0.00149296
0.00149142
0.0014966
0.00150409
0.00151027
0.00151298
0.00151154
0.00150623
0.00149791
0.00148825
0.0014782
0.00146796
0.00145779
0.00144783
0.001438
0.00142789
0.00141673
0.00140342
0.00138656
0.00136477
0.00133671
0.00130099
0.00125752
0.00126097
0.00112643
)
;

boundaryField
{
    floor
    {
        type            nutkWallFunction;
        Cmu             0.09;
        kappa           0.41;
        E               9.8;
        value           nonuniform List<scalar> 
29
(
9.41836e-05
2.77681e-05
2.7213e-05
2.44264e-05
2.41378e-05
2.4201e-05
2.43925e-05
2.50486e-05
2.66331e-05
2.90277e-05
3.22051e-05
3.61962e-05
4.09783e-05
4.60874e-05
5.17537e-05
5.7918e-05
6.34648e-05
6.4166e-05
5.90701e-05
4.97804e-05
4.97803e-05
6.53414e-05
0.000100844
0.000130011
9.41836e-05
2.7768e-05
4.10031e-05
6.11665e-05
0.000108651
)
;
    }
    ceiling
    {
        type            nutkWallFunction;
        Cmu             0.09;
        kappa           0.41;
        E               9.8;
        value           nonuniform List<scalar> 
43
(
0.000191065
0.00026544
0.0005297
0.000484962
0.000410442
0.000349309
0.000303412
0.000269003
0.000242825
0.00022272
0.000207338
0.000195823
0.000187578
0.000182095
0.000178876
0.000177427
0.00017725
0.000177831
0.000178671
0.000179364
0.000179668
0.000179504
0.000178906
0.000177968
0.000176878
0.000175743
0.000174587
0.000173439
0.000172314
0.000171202
0.000170059
0.000168798
0.00016729
0.000165379
0.000162904
0.00015971
0.000155632
0.000150653
0.000151046
0.000135519
0.000367783
0.000419945
0.000727919
)
;
    }
    sWall
    {
        type            nutkWallFunction;
        Cmu             0.09;
        kappa           0.41;
        E               9.8;
        value           uniform 0.000191105;
    }
    nWall
    {
        type            nutkWallFunction;
        Cmu             0.09;
        kappa           0.41;
        E               9.8;
        value           nonuniform List<scalar> 6(0.000116765 0.000119265 0.000123127 0.000193125 0.000183125 0.000135527);
    }
    sideWalls
    {
        type            empty;
    }
    glass1
    {
        type            nutkWallFunction;
        Cmu             0.09;
        kappa           0.41;
        E               9.8;
        value           nonuniform List<scalar> 9(8.4898e-05 0.000153158 0.000210528 0.000262204 0.000308058 0.000349353 0.000383437 0.000384738 0.000368202);
    }
    glass2
    {
        type            nutkWallFunction;
        Cmu             0.09;
        kappa           0.41;
        E               9.8;
        value           nonuniform List<scalar> 2(0.000190958 0.000201983);
    }
    sun
    {
        type            nutkWallFunction;
        Cmu             0.09;
        kappa           0.41;
        E               9.8;
        value           nonuniform List<scalar> 
14
(
8.49332e-05
8.68357e-05
7.34134e-05
7.52544e-05
7.8116e-05
8.10858e-05
8.41156e-05
8.72472e-05
9.0539e-05
9.3551e-05
9.60799e-05
9.78512e-05
9.85121e-05
9.75985e-05
)
;
    }
    heatsource1
    {
        type            nutkWallFunction;
        Cmu             0.09;
        kappa           0.41;
        E               9.8;
        value           nonuniform List<scalar> 3(0.000148786 0.000133801 0.000116761);
    }
    heatsource2
    {
        type            nutkWallFunction;
        Cmu             0.09;
        kappa           0.41;
        E               9.8;
        value           nonuniform List<scalar> 4(9.96319e-05 6.89207e-05 6.89206e-05 0.000100507);
    }
    Table_master
    {
        type            nutkWallFunction;
        Cmu             0.09;
        kappa           0.41;
        E               9.8;
        value           nonuniform List<scalar> 9(2.72416e-05 3.14651e-05 3.74872e-05 4.37947e-05 5.05899e-05 5.83873e-05 6.77226e-05 7.90438e-05 9.3036e-05);
    }
    Table_slave
    {
        type            nutkWallFunction;
        Cmu             0.09;
        kappa           0.41;
        E               9.8;
        value           nonuniform List<scalar> 9(9.831e-05 9.86233e-05 9.86526e-05 9.84753e-05 9.84569e-05 9.9166e-05 0.000101428 0.00010635 0.000115403);
    }
    inlet
    {
        type            calculated;
        value           uniform 0.0197874;
    }
    outlet
    {
        type            calculated;
        value           nonuniform List<scalar> 2(0.00161373 0.00229265);
    }
}


// ************************************************************************* //
