// -*- C++ -*-
// File generated by PyFoam - sorry for the ugliness

FoamFile
{
 version 2.0;
 format ascii;
 class volScalarField;
 location "300";
 object T;
}

dimensions [ 0 0 0 1 0 0 0 ];

internalField nonuniform List<scalar> 459
(
  304.099
  303.786
  303.773
  303.776
  303.778
  303.779
  303.781
  303.781
  303.781
  303.779
  303.773
  303.763
  303.749
  303.73
  303.708
  303.203
  303.152
  303.128
  303.117
  303.114
  303.115
  303.123
  303.139
  303.164
  303.198
  303.237
  303.278
  303.318
  303.359
  303.409
  303.46
  303.478
  303.418
  303.334
  304.331
  303.885
  303.846
  303.851
  303.86
  303.868
  303.875
  303.879
  303.882
  303.879
  303.869
  303.85
  303.82
  303.777
  303.722
  303.66
  303.601
  303.226
  303.182
  303.15
  303.128
  303.12
  303.111
  303.106
  303.129
  303.166
  303.212
  303.265
  303.325
  303.393
  303.477
  303.578
  303.671
  303.675
  303.618
  303.513
  304.543
  303.996
  303.927
  303.933
  303.951
  303.969
  303.983
  303.994
  304
  304
  303.989
  303.963
  303.92
  303.857
  303.773
  303.678
  303.599
  303.267
  303.272
  303.283
  303.293
  303.302
  303.281
  303.122
  303.149
  303.201
  303.264
  303.338
  303.426
  303.536
  303.673
  303.834
  303.987
  304.037
  304.088
  304.155
  304.738
  304.124
  304.024
  304.024
  304.051
  304.079
  304.106
  304.128
  304.143
  304.15
  304.142
  304.116
  304.066
  303.989
  303.885
  303.755
  303.612
  303.495
  303.436
  303.533
  303.624
  303.69
  303.73
  303.763
  303.79
  303.807
  303.827
  303.853
  303.887
  303.932
  303.99
  304.064
  304.148
  304.225
  304.298
  304.365
  304.425
  304.919
  304.268
  304.151
  304.133
  304.16
  304.199
  304.24
  304.277
  304.306
  304.325
  304.328
  304.31
  304.269
  304.202
  304.111
  304.002
  303.89
  303.793
  303.734
  303.771
  303.829
  303.876
  303.909
  303.933
  303.952
  303.971
  303.994
  304.024
  304.063
  304.113
  304.174
  304.245
  304.32
  304.391
  304.457
  304.511
  304.543
  304.536
  304.458
  304.374
  305.082
  304.438
  304.34
  304.302
  304.306
  304.341
  304.389
  304.438
  304.483
  304.516
  304.532
  304.529
  304.501
  304.449
  304.373
  304.28
  304.181
  304.093
  304.031
  304.017
  304.034
  304.056
  304.077
  304.091
  304.103
  304.115
  304.13
  304.151
  304.182
  304.224
  304.279
  304.345
  304.417
  304.488
  304.549
  304.593
  304.613
  304.598
  304.498
  304.328
  305.232
  304.665
  304.637
  304.607
  304.565
  304.562
  304.594
  304.638
  304.686
  304.725
  304.751
  304.759
  304.746
  304.712
  304.654
  304.578
  304.492
  304.409
  304.341
  304.298
  304.281
  304.279
  304.28
  304.28
  304.279
  304.279
  304.281
  304.286
  304.299
  304.322
  304.357
  304.407
  304.47
  304.538
  304.602
  304.651
  304.674
  304.66
  304.579
  304.31
  305.446
  305.053
  305.124
  305.111
  305.022
  304.959
  304.938
  304.941
  304.954
  304.975
  304.995
  305.006
  305.003
  304.984
  304.946
  304.887
  304.817
  304.742
  304.673
  304.617
  304.577
  304.549
  304.529
  304.512
  304.496
  304.481
  304.467
  304.455
  304.447
  304.445
  304.452
  304.473
  304.509
  304.562
  304.627
  304.694
  304.752
  304.798
  304.835
  304.877
  305.737
  305.601
  305.966
  305.897
  305.681
  305.516
  305.419
  305.365
  305.339
  305.322
  305.31
  305.302
  305.293
  305.277
  305.249
  305.208
  305.154
  305.091
  305.026
  304.965
  304.911
  304.866
  304.827
  304.792
  304.76
  304.729
  304.7
  304.671
  304.644
  304.62
  304.601
  304.591
  304.593
  304.608
  304.635
  304.671
  304.71
  304.75
  304.796
  304.897
  309.133
  306.743
  306.074
  305.867
  305.771
  305.722
  305.697
  305.684
  305.676
  305.664
  305.647
  305.625
  305.596
  305.557
  305.509
  305.454
  305.393
  305.331
  305.271
  305.214
  305.161
  305.111
  305.063
  305.018
  304.974
  304.931
  304.888
  304.847
  304.809
  304.777
  304.752
  304.738
  304.736
  304.746
  304.765
  304.79
  304.82
  304.857
  308.547
  307.191
  306.726
  306.461
  306.314
  306.231
  306.178
  306.141
  306.11
  306.08
  306.048
  306.012
  305.971
  305.925
  305.873
  305.815
  305.753
  305.689
  305.623
  305.558
  305.495
  305.434
  305.375
  305.318
  305.263
  305.208
  305.155
  305.103
  305.052
  305.004
  304.962
  304.927
  304.902
  304.886
  304.88
  304.88
  304.883
  304.895
  308.638
  308.585
  308.466
  307.998
  307.605
  307.322
  307.132
  306.993
  306.882
  306.788
  306.704
  306.625
  306.55
  306.476
  306.405
  306.334
  306.264
  306.194
  306.125
  306.057
  305.989
  305.922
  305.857
  305.792
  305.728
  305.665
  305.603
  305.541
  305.48
  305.419
  305.359
  305.301
  305.244
  305.19
  305.139
  305.092
  305.048
  305.006
  304.962
  304.935
)
;

boundaryField
{
  floor
  {
    type wallHeatTransfer;
    Tinf uniform 305.2;
    alphaWall uniform 0.24;
    value nonuniform List<scalar> 29
(
  303.909
  303.75
  303.718
  303.727
  303.722
  303.719
  303.718
  303.717
  303.714
  303.711
  303.711
  303.713
  303.715
  303.719
  303.726
  303.742
  303.766
  303.779
  303.746
  303.715
  303.715
  303.804
  304.289
  304.507
  303.909
  303.75
  303.675
  303.615
  303.701
)
;
  }
  ceiling
  {
    type wallHeatTransfer;
    Tinf uniform 303.2;
    alphaWall uniform 0.24;
    value nonuniform List<scalar> 43
(
  308.212
  308.266
  308.3
  307.834
  307.429
  307.132
  306.927
  306.773
  306.648
  306.542
  306.449
  306.363
  306.285
  306.211
  306.141
  306.074
  306.01
  305.947
  305.884
  305.822
  305.761
  305.699
  305.638
  305.578
  305.519
  305.46
  305.401
  305.344
  305.286
  305.23
  305.174
  305.12
  305.067
  305.015
  304.967
  304.921
  304.878
  304.835
  304.796
  304.757
  305.626
  305.508
  308.422
)
;
  }
  sWall
  {
    type wallHeatTransfer;
    Tinf uniform 315.2;
    alphaWall uniform 0.36;
    value uniform 309.381;
  }
  nWall
  {
    type wallHeatTransfer;
    Tinf uniform 307.2;
    alphaWall uniform 0.36;
    value nonuniform List<scalar> 6
(
  304.835
  304.789
  304.764
  305.117
  305.163
  305.267
)
;
  }
  sideWalls
  {
    type empty;
  }
  glass1
  {
    type wallHeatTransfer;
    Tinf uniform 315.2;
    alphaWall uniform 4.3;
    value nonuniform List<scalar> 9
(
  312.499
  311.418
  310.766
  310.321
  310.016
  309.796
  309.657
  309.769
  310.031
)
;
  }
  glass2
  {
    type wallHeatTransfer;
    Tinf uniform 307.2;
    alphaWall uniform 4.3;
    value nonuniform List<scalar> 2
(
  306.276
  306.256
)
;
  }
  sun
  {
    type wallHeatTransfer;
    Tinf uniform 305.2;
    alphaWall uniform 0.24;
    value nonuniform List<scalar> 14
(
  304.259
  303.988
  304.002
  304
  303.996
  303.992
  303.988
  303.983
  303.978
  303.971
  303.963
  303.951
  303.938
  303.923
)
;
  }
  heatsource1
  {
    type fixedGradient;
    gradient uniform 0;
  }
  heatsource2
  {
    type fixedGradient;
    gradient uniform 0;
  }
  Table_master
  {
    type zeroGradient;
  }
  Table_slave
  {
    type zeroGradient;
  }
  inlet
  {
    type fixedValue;
    value uniform 293.15;
  }
  outlet
  {
    type zeroGradient;
  }
} 	// ************************************************************************* //

