/*--------------------------------*- C++ -*----------------------------------*\
  =========                 |
  \\      /  F ield         | OpenFOAM: The Open Source CFD Toolbox
   \\    /   O peration     | Website:  https://openfoam.org
    \\  /    A nd           | Version:  6
     \\/     M anipulation  |
\*---------------------------------------------------------------------------*/
FoamFile
{
    version     2.0;
    format      ascii;
    class       volScalarField;
    location    "600";
    object      epsilon;
}
// * * * * * * * * * * * * * * * * * * * * * * * * * * * * * * * * * * * * * //

dimensions      [0 2 -3 0 0 0 0];

internalField   nonuniform List<scalar> 
459
(
0.000170884
0.000200792
0.000200865
0.000221396
0.000239485
0.000255322
0.000269439
0.000282488
0.000295288
0.000307012
0.000314697
0.000316699
0.000312633
0.000305057
0.00029736
3.66812e-05
5.16597e-05
4.63131e-05
4.09136e-05
3.62862e-05
3.23045e-05
2.87963e-05
2.58027e-05
2.32653e-05
2.11128e-05
1.92675e-05
1.76634e-05
1.62467e-05
1.49662e-05
1.37653e-05
1.25775e-05
1.13057e-05
1.04283e-05
8.33472e-06
0.000517188
0.00102387
0.000185945
0.000168574
0.000164354
0.000163276
0.000165359
0.000171972
0.000184479
0.000201601
0.000218693
0.000231459
0.000236448
0.000236486
0.00025215
0.000320155
0.00021644
0.000111942
7.82436e-05
5.51841e-05
4.12457e-05
3.20446e-05
2.59486e-05
2.2555e-05
1.94338e-05
1.68114e-05
1.46578e-05
1.28702e-05
1.137e-05
1.00988e-05
9.02341e-06
8.21065e-06
8.0238e-06
8.52489e-06
2.51103e-05
1.70661e-05
0.00107857
0.00307932
0.000254243
0.000161587
0.000154378
0.000157284
0.000165423
0.000179298
0.000198992
0.000222765
0.000245139
0.00025915
0.000260943
0.00025471
0.000255911
0.000282886
0.000408659
0.000169864
8.96219e-05
5.69979e-05
4.05254e-05
3.1204e-05
2.65189e-05
4.95995e-05
3.85134e-05
3.0705e-05
2.51091e-05
2.10126e-05
1.7952e-05
1.56347e-05
1.38903e-05
1.26572e-05
1.02733e-05
9.64572e-06
4.85847e-05
2.67117e-05
0.00198613
0.00718527
0.000476435
0.000164625
0.000150095
0.000157132
0.000169653
0.000188489
0.000215276
0.000249088
0.000278809
0.000292333
0.000286155
0.000266153
0.000244425
0.000235069
0.000271213
0.000284614
0.000159258
8.14903e-05
4.9252e-05
3.4968e-05
2.85104e-05
2.74397e-05
6.84371e-05
6.19133e-05
5.89241e-05
5.68805e-05
5.41162e-05
4.98376e-05
4.55334e-05
4.07437e-05
3.49257e-05
2.17362e-05
1.53249e-05
8.67917e-05
3.67637e-05
0.00337403
0.0137962
0.00109494
0.000186671
0.000143311
0.000151238
0.000168145
0.000195699
0.000239189
0.000297455
0.000342543
0.000356633
0.000339937
0.000301464
0.000253975
0.000213392
0.000194338
0.000150206
8.80863e-05
5.42764e-05
3.67854e-05
2.9792e-05
2.83692e-05
3.01445e-05
3.52352e-05
3.90619e-05
4.17932e-05
4.2949e-05
4.19638e-05
3.87761e-05
3.52578e-05
3.20727e-05
2.92876e-05
2.43448e-05
1.94493e-05
6.23162e-05
4.16848e-05
8.70844e-05
0.000147983
0.00020183
0.00540914
0.02123
0.00283351
0.000321903
0.000157294
0.000149054
0.000162843
0.000197194
0.000275744
0.00038223
0.000443413
0.000451983
0.000419599
0.000359099
0.000284966
0.000221581
0.000189696
0.000127711
7.23607e-05
4.41901e-05
3.2921e-05
3.10237e-05
3.35882e-05
3.8514e-05
4.50678e-05
5.19679e-05
5.77784e-05
6.13821e-05
6.14692e-05
5.68702e-05
4.82203e-05
3.98331e-05
3.27604e-05
2.70184e-05
2.40851e-05
4.3007e-05
4.33014e-05
6.00234e-05
0.000277735
0.000226186
0.00830371
0.0255185
0.00731495
0.00135389
0.000490953
0.000287765
0.000242552
0.000262171
0.000422395
0.000558385
0.000602971
0.000582946
0.000521638
0.000432076
0.000327929
0.000242061
0.000203827
0.000135983
6.88085e-05
4.09664e-05
3.53396e-05
3.7303e-05
4.25048e-05
4.98372e-05
5.89683e-05
6.94517e-05
7.94054e-05
8.79585e-05
9.34419e-05
9.31673e-05
8.17626e-05
6.75717e-05
5.50045e-05
4.52766e-05
4.19912e-05
5.18654e-05
6.73981e-05
0.00012009
0.000319723
0.000286031
0.00930033
0.0326304
0.0158947
0.00825032
0.00403599
0.00202835
0.00121001
0.000935777
0.000951251
0.000932058
0.000862546
0.000762979
0.000645754
0.00051194
0.00036851
0.000257085
0.000220287
0.000145013
6.61892e-05
4.51077e-05
4.28213e-05
4.65281e-05
5.31768e-05
6.21175e-05
7.31723e-05
8.61203e-05
0.000100609
0.000116524
0.000133593
0.00015098
0.000166378
0.000165199
0.000165052
0.000176272
0.000204895
0.000317107
0.000632469
0.00141517
0.00470949
0.00125124
0.00893558
0.0165338
0.013516
0.0100272
0.00706778
0.00481603
0.00333957
0.00247764
0.00189335
0.00148395
0.00118637
0.000957246
0.000762493
0.000573078
0.000384733
0.000250878
0.000230562
0.000145968
7.23795e-05
5.48492e-05
5.32214e-05
5.6709e-05
6.29965e-05
7.16453e-05
8.26394e-05
9.61364e-05
0.000112549
0.000132705
0.000157956
0.000190313
0.00023262
0.000288473
0.000365304
0.000489026
0.000676669
0.000937031
0.001238
0.00149631
0.0016709
0.00100148
0.00602312
0.00750084
0.00602118
0.00455561
0.00342941
0.00262254
0.00203668
0.00159677
0.00126215
0.000998255
0.000772097
0.000554835
0.000345415
0.00020656
0.000228629
0.000156137
9.19246e-05
7.42693e-05
7.05583e-05
7.15916e-05
7.52294e-05
8.10383e-05
8.89637e-05
9.91369e-05
0.000111949
0.000128203
0.000149322
0.000177664
0.000217003
0.000272946
0.000351672
0.000462456
0.000609649
0.000778056
0.000918673
0.000963937
0.000862605
0.000545828
0.0043118
0.00697097
0.00559957
0.00416884
0.00316281
0.00240221
0.00182248
0.00138461
0.00104934
0.000791326
0.000589557
0.000423631
0.000251818
0.000117057
0.000104252
0.000108442
9.66519e-05
8.64506e-05
8.1239e-05
7.93719e-05
8.00528e-05
8.31616e-05
8.88484e-05
9.746e-05
0.000109577
0.000126088
0.000148314
0.000178217
0.000218575
0.000273318
0.000347944
0.000448331
0.000575949
0.000722383
0.000836439
0.000955399
0.000753428
0.000564814
0.00294066
0.00339713
0.00382924
0.00458896
0.00383349
0.00283757
0.00225182
0.00177408
0.00138149
0.00107798
0.000854109
0.000673315
0.000519153
0.000379648
0.000175628
7.39617e-05
7.56627e-05
7.49689e-05
7.19801e-05
7.24674e-05
7.55409e-05
8.04754e-05
8.70753e-05
9.53713e-05
0.000105491
0.000117644
0.000132155
0.000149531
0.000170616
0.000196892
0.000230098
0.000271176
0.000322354
0.000386711
0.000468247
0.00059159
0.000640165
0.000603146
0.000494974
0.000393975
)
;

boundaryField
{
    floor
    {
        Cmu             0.09;
        kappa           0.41;
        E               9.8;
        type            epsilonWallFunction;
        value           nonuniform List<scalar> 
29
(
0.00029736
3.66812e-05
5.16597e-05
4.63131e-05
4.09136e-05
3.62862e-05
3.23045e-05
2.87963e-05
2.58027e-05
2.32653e-05
2.11128e-05
1.92675e-05
1.76634e-05
1.62467e-05
1.49662e-05
1.37653e-05
1.25775e-05
1.13057e-05
1.04283e-05
8.33472e-06
8.33472e-06
1.70661e-05
2.67117e-05
3.67637e-05
0.00029736
3.66812e-05
0.000111942
0.000169864
0.000284614
)
;
    }
    ceiling
    {
        Cmu             0.09;
        kappa           0.41;
        E               9.8;
        type            epsilonWallFunction;
        value           nonuniform List<scalar> 
43
(
0.00294066
0.00339713
0.00382924
0.00458896
0.00383349
0.00283757
0.00225182
0.00177408
0.00138149
0.00107798
0.000854109
0.000673315
0.000519153
0.000379648
0.000175628
7.39617e-05
7.56627e-05
7.49689e-05
7.19801e-05
7.24674e-05
7.55409e-05
8.04754e-05
8.70753e-05
9.53713e-05
0.000105491
0.000117644
0.000132155
0.000149531
0.000170616
0.000196892
0.000230098
0.000271176
0.000322354
0.000386711
0.000468247
0.00059159
0.000640165
0.000603146
0.000494974
0.000393975
0.00893558
0.0165338
0.0043118
)
;
    }
    sWall
    {
        Cmu             0.09;
        kappa           0.41;
        E               9.8;
        type            epsilonWallFunction;
        value           uniform 0.00294066;
    }
    nWall
    {
        Cmu             0.09;
        kappa           0.41;
        E               9.8;
        type            epsilonWallFunction;
        value           nonuniform List<scalar> 6(0.00020183 0.000226186 0.000286031 0.000545828 0.000564814 0.000393975);
    }
    sideWalls
    {
        type            empty;
    }
    glass1
    {
        Cmu             0.09;
        kappa           0.41;
        E               9.8;
        type            epsilonWallFunction;
        value           nonuniform List<scalar> 9(0.000170884 0.000517188 0.00107857 0.00198613 0.00337403 0.00540914 0.00830371 0.00930033 0.00893558);
    }
    glass2
    {
        Cmu             0.09;
        kappa           0.41;
        E               9.8;
        type            epsilonWallFunction;
        value           nonuniform List<scalar> 2(0.00125124 0.00100148);
    }
    sun
    {
        Cmu             0.09;
        kappa           0.41;
        E               9.8;
        type            epsilonWallFunction;
        value           nonuniform List<scalar> 
14
(
0.000170884
0.000200792
0.000200865
0.000221396
0.000239485
0.000255322
0.000269439
0.000282488
0.000295288
0.000307012
0.000314697
0.000316699
0.000312633
0.000305057
)
;
    }
    heatsource1
    {
        Cmu             0.09;
        kappa           0.41;
        E               9.8;
        type            epsilonWallFunction;
        value           nonuniform List<scalar> 3(8.70844e-05 0.000147983 0.00020183);
    }
    heatsource2
    {
        Cmu             0.09;
        kappa           0.41;
        E               9.8;
        type            epsilonWallFunction;
        value           nonuniform List<scalar> 4(0.000320155 0.00021644 0.00021644 0.000408659);
    }
    Table_master
    {
        Cmu             0.09;
        kappa           0.41;
        E               9.8;
        type            epsilonWallFunction;
        value           nonuniform List<scalar> 9(4.95995e-05 3.85134e-05 3.0705e-05 2.51091e-05 2.10126e-05 1.7952e-05 1.56347e-05 1.38903e-05 1.26572e-05);
    }
    Table_slave
    {
        Cmu             0.09;
        kappa           0.41;
        E               9.8;
        type            epsilonWallFunction;
        value           nonuniform List<scalar> 9(6.84371e-05 6.19133e-05 5.89241e-05 5.68805e-05 5.41162e-05 4.98376e-05 4.55334e-05 4.07437e-05 3.49257e-05);
    }
    inlet
    {
        type            turbulentMixingLengthDissipationRateInlet;
        mixingLength    0.01;
        phi             phi;
        k               k;
        value           uniform 0.000101881;
    }
    outlet
    {
        type            zeroGradient;
    }
}


// ************************************************************************* //
