/*--------------------------------*- C++ -*----------------------------------*\
  =========                 |
  \\      /  F ield         | OpenFOAM: The Open Source CFD Toolbox
   \\    /   O peration     | Website:  https://openfoam.org
    \\  /    A nd           | Version:  6
     \\/     M anipulation  |
\*---------------------------------------------------------------------------*/
FoamFile
{
    version     2.0;
    format      ascii;
    class       volScalarField;
    location    "1400";
    object      nut;
}
// * * * * * * * * * * * * * * * * * * * * * * * * * * * * * * * * * * * * * //

dimensions      [0 2 -1 0 0 0 0];

internalField   nonuniform List<scalar> 
459
(
0.00106551
0.00116174
0.00118368
0.00124017
0.00129253
0.00134193
0.00139103
0.00143785
0.00147068
0.00148321
0.00146945
0.00142516
0.00134831
0.00124111
0.0011154
0.000461172
0.00054948
0.00062069
0.00062683
0.000608333
0.000581985
0.000545471
0.00050835
0.000474663
0.000444902
0.000418681
0.000395502
0.000374926
0.00035658
0.000339792
0.00032373
0.000307295
0.000297724
0.000273198
0.00145122
0.00344348
0.00325808
0.00377852
0.00428867
0.00479998
0.00524385
0.00558981
0.00591131
0.00617873
0.00635547
0.00640393
0.00627867
0.00587179
0.0047295
0.0011355
0.000705633
0.000480587
0.00101187
0.00141734
0.00172418
0.00190593
0.00191431
0.00150992
0.00129481
0.00114228
0.00102589
0.000933906
0.000859355
0.000796658
0.000738419
0.000682109
0.000631996
0.000587851
0.000705319
0.000365539
0.00177232
0.00467265
0.0039752
0.00494888
0.00539553
0.00572018
0.00597402
0.00619845
0.0064593
0.00674215
0.00701379
0.00722389
0.00732676
0.00724529
0.00675714
0.00518235
0.00117017
0.000900817
0.00131166
0.00170831
0.00209479
0.00238273
0.00235538
0.000778072
0.000687301
0.000613683
0.000553989
0.000505242
0.000465071
0.00043171
0.000404016
0.000381453
0.000410598
0.000472152
0.000801766
0.000428744
0.00208106
0.00597837
0.00392632
0.00516888
0.00550441
0.00558436
0.00565241
0.00578047
0.00599999
0.00629471
0.00663331
0.00694441
0.0071788
0.00726964
0.00716681
0.00660468
0.00442481
0.0013681
0.00163362
0.00207772
0.00256629
0.00300346
0.00330589
0.00315193
0.000881815
0.00080508
0.000750053
0.000708116
0.000672497
0.000639492
0.000607803
0.000574521
0.000535981
0.000503437
0.000509654
0.000940481
0.000478582
0.00239598
0.00768121
0.00424644
0.00493135
0.00539205
0.00534145
0.00529644
0.00539467
0.00560056
0.00590168
0.00627544
0.00661736
0.00685717
0.00695056
0.00689807
0.00667401
0.00610421
0.00516553
0.00483965
0.00478066
0.0048211
0.00487162
0.00487353
0.00471597
0.00400588
0.00365414
0.00344684
0.0032859
0.00311765
0.002881
0.00255792
0.00216325
0.00172496
0.00129138
0.000958532
0.000951136
0.00065763
0.000594584
0.000716013
0.000804297
0.00273049
0.00954909
0.00584067
0.0047724
0.00521747
0.00535964
0.0052182
0.00530956
0.00547973
0.00575833
0.00612181
0.00647784
0.00671593
0.00676997
0.00665483
0.00645425
0.00626082
0.00613225
0.00613299
0.00615493
0.00612599
0.00603492
0.00588351
0.00565904
0.00531962
0.00500957
0.00473153
0.00446457
0.00419575
0.00391295
0.00356623
0.0031404
0.00263557
0.00208026
0.00158503
0.00116921
0.000914036
0.000781767
0.001104
0.000841258
0.00304437
0.0108976
0.00837045
0.00606083
0.00566143
0.00568918
0.00554568
0.00546477
0.00554628
0.0058111
0.00619408
0.00656779
0.00679447
0.00679845
0.00661487
0.00639584
0.00634116
0.00651188
0.00672542
0.00679661
0.00669638
0.00647069
0.00616047
0.00579298
0.00539552
0.00502212
0.00468114
0.00436707
0.00408063
0.00382761
0.00361001
0.00334847
0.00298127
0.00252565
0.0020854
0.00167022
0.00138061
0.00127472
0.0012595
0.000954503
0.00311217
0.00988519
0.00857865
0.00760496
0.00701214
0.00634689
0.00579083
0.0055579
0.00566289
0.00602086
0.00648358
0.00687665
0.0070482
0.00694841
0.00667222
0.00645964
0.00654429
0.00683757
0.00696461
0.00683278
0.00651173
0.00607089
0.00556979
0.00506753
0.00461555
0.00423677
0.00392342
0.00366697
0.00346733
0.00332792
0.00325132
0.00322263
0.00310792
0.00284578
0.00261538
0.00250858
0.00259843
0.00286937
0.0035538
0.00145284
0.0030371
0.00362626
0.00409573
0.00424313
0.00425521
0.00435579
0.00464292
0.00514397
0.00581414
0.00652127
0.00709896
0.00740285
0.00733764
0.00697063
0.0065806
0.00651099
0.0065801
0.00658433
0.00638748
0.00599288
0.00546188
0.00487535
0.0043129
0.00383434
0.00345983
0.0031756
0.00295803
0.00278931
0.00265684
0.00254916
0.0024556
0.00236811
0.0023002
0.00224967
0.00223043
0.00223827
0.00222275
0.00213818
0.00199427
0.00135029
0.00182661
0.00325779
0.0045162
0.00556506
0.00641974
0.00718917
0.00778863
0.00809136
0.00805584
0.00770102
0.00708093
0.00638568
0.00596657
0.00581706
0.00565413
0.00534408
0.00488768
0.00434737
0.00380088
0.00331112
0.00291756
0.00262916
0.00242687
0.00228732
0.00219257
0.00213098
0.00209502
0.00208002
0.00208498
0.00211281
0.00215022
0.00219415
0.00224022
0.00227188
0.00226152
0.00219349
0.00193813
0.00107779
0.00212745
0.00456375
0.00625939
0.0070569
0.00759719
0.00797468
0.00794356
0.00744597
0.00668629
0.00587522
0.00519693
0.00471016
0.0043881
0.00409934
0.00374745
0.00334315
0.00293419
0.00257021
0.00228233
0.00207559
0.00193675
0.0018454
0.00178851
0.00176069
0.00175828
0.00177687
0.00181266
0.0018614
0.00192689
0.00200636
0.0020972
0.00219381
0.00228267
0.00234267
0.00235925
0.00233208
0.00167772
0.00110262
0.00182973
0.00192688
0.00199872
0.00206821
0.00187667
0.00172559
0.00165409
0.00158028
0.00147268
0.0013395
0.00118812
0.00103833
0.000906106
0.000801389
0.000725512
0.000671574
0.000632094
0.000602791
0.000582055
0.000569347
0.000563994
0.000565016
0.000571464
0.000582691
0.000598485
0.000618391
0.000642196
0.000670172
0.000702857
0.000741234
0.000784867
0.000833788
0.000888416
0.000949069
0.00101521
0.00108591
0.00110063
0.000982902
0.000932433
0.00110388
)
;

boundaryField
{
    floor
    {
        type            nutkWallFunction;
        Cmu             0.09;
        kappa           0.41;
        E               9.8;
        value           nonuniform List<scalar> 
29
(
0.000134215
5.47226e-05
6.59975e-05
7.49261e-05
7.56898e-05
7.3386e-05
7.00895e-05
6.54908e-05
6.07766e-05
5.64613e-05
5.26173e-05
4.92036e-05
4.61633e-05
4.34453e-05
4.10058e-05
3.87592e-05
3.65963e-05
3.43684e-05
3.30639e-05
2.96948e-05
2.96947e-05
4.21985e-05
5.05161e-05
5.69645e-05
0.000134215
5.47225e-05
5.72227e-05
0.000108984
0.000163235
)
;
    }
    ceiling
    {
        type            nutkWallFunction;
        Cmu             0.09;
        kappa           0.41;
        E               9.8;
        value           nonuniform List<scalar> 
43
(
0.000214644
0.000225287
0.000233121
0.000240761
0.000219908
0.00020328
0.000195355
0.000187132
0.000175063
0.000159984
0.000142637
0.000125225
0.000109614
9.70629e-05
8.78487e-05
8.12292e-05
7.6344e-05
7.26943e-05
7.00986e-05
6.85022e-05
6.78285e-05
6.79571e-05
6.87684e-05
7.01782e-05
7.2156e-05
7.46397e-05
7.75973e-05
8.10563e-05
8.50756e-05
8.97668e-05
9.50657e-05
0.000100966
0.000107506
0.000114714
0.000122513
0.000130786
0.000132502
0.000118711
0.000112743
0.000132881
0.000343991
0.00040489
0.000246978
)
;
    }
    sWall
    {
        type            nutkWallFunction;
        Cmu             0.09;
        kappa           0.41;
        E               9.8;
        value           uniform 0.000214704;
    }
    nWall
    {
        type            nutkWallFunction;
        Cmu             0.09;
        kappa           0.41;
        E               9.8;
        value           nonuniform List<scalar> 6(9.74146e-05 0.000101864 0.000115361 0.000129849 0.000132742 0.000132889);
    }
    sideWalls
    {
        type            empty;
    }
    glass1
    {
        type            nutkWallFunction;
        Cmu             0.09;
        kappa           0.41;
        E               9.8;
        value           nonuniform List<scalar> 9(0.000128505 0.000172862 0.000208768 0.000242622 0.000276602 0.000312181 0.000345154 0.000352238 0.000344419);
    }
    glass2
    {
        type            nutkWallFunction;
        Cmu             0.09;
        kappa           0.41;
        E               9.8;
        value           nonuniform List<scalar> 2(0.000172902 0.000161278);
    }
    sun
    {
        type            nutkWallFunction;
        Cmu             0.09;
        kappa           0.41;
        E               9.8;
        value           nonuniform List<scalar> 
14
(
0.000128408
0.000139589
0.000142124
0.000148628
0.000154626
0.00016026
0.000165838
0.000171136
0.000174838
0.00017625
0.0001747
0.0001697
0.000160985
0.000148734
)
;
    }
    heatsource1
    {
        type            nutkWallFunction;
        Cmu             0.09;
        kappa           0.41;
        E               9.8;
        value           nonuniform List<scalar> 3(7.16698e-05 8.66877e-05 9.74138e-05);
    }
    heatsource2
    {
        type            nutkWallFunction;
        Cmu             0.09;
        kappa           0.41;
        E               9.8;
        value           nonuniform List<scalar> 4(0.000136545 8.54176e-05 8.54176e-05 0.000140559);
    }
    Table_master
    {
        type            nutkWallFunction;
        Cmu             0.09;
        kappa           0.41;
        E               9.8;
        value           nonuniform List<scalar> 9(9.42428e-05 8.3167e-05 7.40557e-05 6.65706e-05 6.0385e-05 5.5232e-05 5.09104e-05 4.7291e-05 4.43188e-05);
    }
    Table_slave
    {
        type            nutkWallFunction;
        Cmu             0.09;
        kappa           0.41;
        E               9.8;
        value           nonuniform List<scalar> 9(0.000106717 9.75081e-05 9.08411e-05 8.57213e-05 8.13443e-05 7.72637e-05 7.33219e-05 6.9155e-05 6.42927e-05);
    }
    inlet
    {
        type            calculated;
        value           uniform 0.000100623;
    }
    outlet
    {
        type            calculated;
        value           nonuniform List<scalar> 2(0.00182973 0.00192688);
    }
}


// ************************************************************************* //
