/*--------------------------------*- C++ -*----------------------------------*\
  =========                 |
  \\      /  F ield         | OpenFOAM: The Open Source CFD Toolbox
   \\    /   O peration     | Website:  https://openfoam.org
    \\  /    A nd           | Version:  6
     \\/     M anipulation  |
\*---------------------------------------------------------------------------*/
FoamFile
{
    version     2.0;
    format      ascii;
    class       surfaceScalarField;
    location    "1400";
    object      phi;
}
// * * * * * * * * * * * * * * * * * * * * * * * * * * * * * * * * * * * * * //

dimensions      [1 0 -1 0 0 0 0];

internalField   nonuniform List<scalar> 
852
(
-0.00295896
0.00301628
-0.00399988
0.00104092
-0.00480006
0.000800185
-0.00542287
0.000622803
-0.00583482
0.00041195
-0.00600782
0.000173003
-0.00591373
-9.40906e-05
-0.00553077
-0.000382957
-0.00487527
-0.000655502
-0.00401275
-0.000862518
-0.00304354
-0.00096921
-0.0020795
-0.000964046
-0.00122286
-0.000856632
-0.000535663
-0.000687201
-0.000533997
-0.000783649
0.000786639
-0.000542868
-0.000240781
4.00553e-05
-0.000582923
0.000535176
-0.00049512
0.000879436
-0.000344261
0.00110446
-0.000225022
0.00123069
-0.000126233
0.00129236
-6.1665e-05
0.00132685
-3.44903e-05
0.00134834
-2.1489e-05
0.00136088
-1.2541e-05
0.00136613
-5.25199e-06
0.00136301
3.1176e-06
0.00134435
1.86664e-05
0.00128998
5.43667e-05
0.00116634
0.000123635
0.000961953
0.00020439
0.000710817
0.000251136
0.000714834
-0.0021198
0.00529055
-0.00314061
0.00206172
-0.00396945
0.00162903
-0.00458856
0.00124191
-0.00499901
0.000822395
-0.0051816
0.000355597
-0.00510493
-0.000170763
-0.00475151
-0.000736373
-0.00415026
-0.00125676
-0.00337728
-0.00163549
-0.00253103
-0.00181546
-0.00170617
-0.00178891
-0.000983177
-0.00157962
-0.000435556
-0.00123482
-0.000168021
-0.000801533
0.000118548
-0.00028662
0.000118497
0.00023675
0.000558606
0.000631289
-0.000635321
0.000894224
-0.000845858
0.00111363
-0.000714529
0.00128838
-0.000519012
0.00140146
-0.000338099
0.00142194
-0.000146714
0.00142704
-6.67635e-05
0.00143317
-4.06223e-05
0.00143829
-2.66104e-05
0.00144167
-1.59212e-05
0.00144354
-7.11544e-06
0.00144338
3.27221e-06
0.00143811
2.39379e-05
0.00140135
9.11272e-05
0.00124233
0.000282659
0.000964245
0.000482471
0.000615497
0.000599884
0.00134054
-0.00148978
0.00701666
-0.00237277
0.00294471
-0.00311329
0.00236955
-0.00364885
0.00177747
-0.00401344
0.00118698
-0.00418268
0.000524828
-0.00410227
-0.000251172
-0.00374692
-0.00109172
-0.00317141
-0.00183227
-0.00246949
-0.00233741
-0.00173638
-0.00254857
-0.00104445
-0.00248085
-0.000445604
-0.00217846
2.59519e-05
-0.00170638
0.00033583
-0.00111141
0.000474387
-0.000425178
0.000592884
0.0014829
-0.000914727
0.00169997
-0.00085239
0.00165186
-0.000797757
0.00163471
-0.000697372
0.00165446
-0.000538769
0.00169272
-0.00037635
0.00154616
0.00147955
0.00143908
0.00141262
0.00139685
0.00138989
0.00139331
0.00141741
0.00150869
0.00124821
0.000543138
0.000927313
0.000803365
0.000524146
0.00100305
0.00188012
-0.00104303
0.00836572
-0.00174498
0.00364667
-0.00224283
0.0028674
-0.00260166
0.0021363
-0.00285278
0.0014381
-0.00295909
0.000631139
-0.00282388
-0.000386384
-0.00243152
-0.00148408
-0.00188388
-0.00237991
-0.00128335
-0.00293794
-0.000705534
-0.00312638
-0.000189716
-0.00299666
0.000248325
-0.00261651
0.00060937
-0.00206742
0.000930205
-0.00143225
0.00129148
-0.000786457
0.00213316
-0.000248796
0.0024771
-0.000335551
0.00213397
-0.000571599
0.00199958
-0.000717998
0.0018689
-0.000667072
0.00174911
-0.000577583
0.00167013
-0.000459791
0.00160469
-0.000310913
0.00173377
-0.000129226
0.00180961
-7.5997e-05
0.00186987
-6.04156e-05
0.00191747
-4.77494e-05
0.00193942
-2.21051e-05
0.0019149
2.43696e-05
0.00181866
9.60893e-05
0.00161714
0.000201366
0.00125629
0.000360688
0.0011015
0.000697936
0.000797981
0.00110688
0.000337053
0.00146398
0.00223727
-0.000728648
0.00945958
-0.00126187
0.00417989
-0.00138417
0.0029897
-0.00147743
0.00222957
-0.00153924
0.00149991
-0.00149878
0.000590678
-0.00122266
-0.000662506
-0.000780912
-0.00192582
-0.000305017
-0.0028558
0.00012635
-0.00336931
0.000479146
-0.00347918
0.000748837
-0.00326635
0.000957453
-0.00282512
0.00113435
-0.00224432
0.00131337
-0.00161126
0.001542
-0.00101508
0.00186348
-0.000570279
0.00196614
-0.000438211
0.00188542
-0.000490877
0.00170966
-0.000542239
0.00154936
-0.000506771
0.00140961
-0.000437837
0.00130412
-0.000354301
0.00124886
-0.000255651
0.00128088
-0.000161248
0.00132435
-0.000119464
0.00137352
-0.000109589
0.00142625
-0.000100477
0.00147331
-6.91652e-05
0.0014954
2.27655e-06
0.00147073
0.000120765
0.00138579
0.000286308
0.00124058
0.000505897
0.00110429
0.00083422
0.000949253
0.00126192
0.00059866
0.00181457
0.000499515
0.00233641
-0.000983667
0.00148298
-0.00144785
0.000463977
-0.00139941
-0.000630786
0.0105055
-0.000996667
0.00454577
-0.000602726
0.00259576
-0.000309038
0.00193588
-9.39126e-05
0.00128478
0.000232281
0.000264485
0.00071474
-0.00114497
0.00115272
-0.0023638
0.00146489
-0.00316797
0.00163775
-0.00354218
0.00169742
-0.00353884
0.00167593
-0.00324487
0.00160614
-0.00275533
0.00152558
-0.00216376
0.00146737
-0.00155306
0.0014563
-0.00100401
0.00148549
-0.00059947
0.00145252
-0.000405239
0.00132769
-0.000366046
0.00114859
-0.000363147
0.000982347
-0.000340525
0.000847489
-0.000302979
0.000752255
-0.000259066
0.000707581
-0.000210977
0.000717726
-0.000171392
0.000758803
-0.000160541
0.00081762
-0.000168406
0.000889141
-0.000171998
0.000968524
-0.000148548
0.00104655
-7.57507e-05
0.00110493
6.23911e-05
0.00113416
0.000257077
0.00114331
0.000496742
0.00117613
0.0008014
0.00127912
0.00115893
0.00146665
0.00162705
0.00191151
0.00189155
0.0021675
0.00122698
0.00177947
0.000852012
0.000438246
-0.000716034
0.0116812
-0.000601543
0.00443128
0.000474629
0.00151958
0.0011538
0.0012567
0.00173127
0.000707316
0.00237832
-0.000382558
0.00293131
-0.00169796
0.00323589
-0.00266839
0.0032863
-0.00321837
0.00312849
-0.00338437
0.00282679
-0.00323714
0.00244527
-0.00286335
0.00203904
-0.00234911
0.00165648
-0.0017812
0.0013303
-0.00122687
0.00108043
-0.000754144
0.000903625
-0.000422661
0.000752997
-0.000254612
0.00059312
-0.000206169
0.000431377
-0.000201403
0.000290467
-0.000199615
0.00018163
-0.000194142
0.000109541
-0.000186978
7.89569e-05
-0.000180393
8.88961e-05
-0.000181332
0.00012623
-0.000197875
0.000180616
-0.000222792
0.0002502
-0.000241583
0.000339243
-0.00023759
0.000454262
-0.00019077
0.000589524
-7.2871e-05
0.000729829
0.000116773
0.000881027
0.000345544
0.00108289
0.000599533
0.00138338
0.000858439
0.00184779
0.00116264
0.00252195
0.00121739
0.00304349
0.000705443
0.00306028
0.000835215
0.00356161
0.00260369
0.0095912
0.00328215
0.00375282
0.00344801
0.00135373
0.00390247
0.00080224
0.00459577
1.40199e-05
0.005288
-0.00107479
0.00556893
-0.00197888
0.00544246
-0.00254192
0.00499694
-0.00277286
0.00433739
-0.00272481
0.00356626
-0.00246601
0.00276993
-0.00206701
0.00200917
-0.00158836
0.00133891
-0.00111094
0.00078598
-0.000673941
0.000372529
-0.000340692
9.71997e-05
-0.000147332
-8.59075e-05
-7.15045e-05
-0.000226289
-6.57877e-05
-0.000344854
-8.28381e-05
-0.000443175
-0.000101293
-0.000519093
-0.000118225
-0.000571218
-0.000134853
-0.000598826
-0.000152785
-0.000604857
-0.0001753
-0.000598154
-0.000204577
-0.000584945
-0.000236002
-0.000565058
-0.000261469
-0.000531101
-0.000271547
-0.000466007
-0.000255864
-0.000338368
-0.00020051
-0.000143876
-7.77194e-05
9.52471e-05
0.000106421
0.00038647
0.00030831
0.00074755
0.00049736
0.00122359
0.000686597
0.00172646
0.000714526
0.00186649
0.000565409
0.000928218
0.00177349
0.00475049
0.010155
0.0139006
0.0122308
0.00302352
0.0113341
0.00169899
0.0106
0.000748074
0.00970629
-0.000181053
0.00855603
-0.000828622
0.00725644
-0.00124233
0.00590171
-0.00141813
0.00456106
-0.00138416
0.00329775
-0.0012027
0.00216151
-0.000930774
0.00116437
-0.000591216
0.000347423
-0.000293996
-0.000255072
-7.14456e-05
-0.000629917
3.41528e-05
-0.000832409
5.51603e-05
-0.00094646
4.25463e-05
-0.00102886
1.661e-05
-0.00110155
-1.01468e-05
-0.00116846
-3.43824e-05
-0.00122909
-5.75971e-05
-0.00128301
-8.09265e-05
-0.00133153
-0.00010427
-0.00137888
-0.000127953
-0.00143242
-0.000151028
-0.00149941
-0.000169015
-0.00158667
-0.000174208
-0.00170207
-0.000156153
-0.00185592
-0.000102009
-0.00205743
9.98957e-07
-0.00229746
0.000162311
-0.00258581
0.000394768
-0.00299306
0.000715558
-0.00362251
0.00112681
-0.00454717
0.00161126
-0.00589416
0.00206152
-0.00760288
0.00227413
-0.00742986
0.00160047
-0.00239082
0.0051003
0.0045525
0.00409192
0.00270737
0.00448939
0.000350605
0.00452823
-0.00021989
0.00411868
-0.000419072
0.00343206
-0.000555714
0.00258278
-0.000568847
0.00166342
-0.000464799
0.000747485
-0.00028677
-0.000110149
-7.31405e-05
-0.000804684
0.00010332
-0.00125824
0.000159561
-0.00150211
0.000172424
-0.00162096
0.000153003
-0.0016867
0.000120895
-0.00173288
8.8729e-05
-0.00177554
5.92739e-05
-0.00182002
3.43341e-05
-0.00186837
1.39681e-05
-0.00192253
-3.44521e-06
-0.00198291
-2.0544e-05
-0.00204985
-3.73289e-05
-0.00212544
-5.23617e-05
-0.00221209
-6.43799e-05
-0.00231096
-7.01383e-05
-0.00242137
-6.37996e-05
-0.00253972
-3.78073e-05
-0.00265884
1.71134e-05
-0.00276711
0.000109267
-0.00285924
0.000254444
-0.0029404
0.000475923
-0.00301229
0.000787452
-0.00307068
0.0011852
-0.00307641
0.00161699
-0.00296011
0.00194521
-0.00227494
0.00158896
-0.000588319
-8.61543e-05
-0.00290099
-0.000436734
0.00504588
0.000856509
0.00141413
0.000816149
0.000390965
0.00053851
5.77489e-05
0.000155686
-3.62473e-05
-0.000369384
-3.06451e-05
-0.000957464
1.92337e-05
-0.00150417
8.19106e-05
-0.00193035
0.000139402
-0.00218665
0.000183164
-0.00228639
0.000203064
-0.00231745
0.000190615
-0.00231094
0.000165917
-0.00229609
0.000138153
-0.00228864
0.000113446
-0.00229276
9.28525e-05
-0.00230824
7.47487e-05
-0.00233225
5.83414e-05
-0.00236157
4.3293e-05
-0.00239446
2.9443e-05
-0.00243204
1.70399e-05
-0.00247453
5.15596e-06
-0.00252158
-5.30882e-06
-0.00257263
-1.33348e-05
-0.00262528
-1.74883e-05
-0.00267406
-1.50201e-05
-0.00270981
-2.05254e-06
-0.00272164
2.89402e-05
-0.00269871
8.63424e-05
-0.00262104
0.000176771
-0.0024583
0.000313183
-0.00218214
0.000511295
-0.00177177
0.000774824
-0.00118372
0.00102895
-0.000120012
0.000881502
0.00176381
-0.000294859
0.00337452
-0.00169686
0.000558956
-0.0079304
-0.0107844
-0.00569438
-0.00425739
-0.00385237
-0.00378545
-0.00381562
-0.00384247
-0.00382115
-0.00373847
-0.00359938
-0.00341746
-0.00321646
-0.00302861
-0.00286604
-0.00273168
-0.00262241
-0.00253404
-0.00246401
-0.00241056
-0.00237228
-0.0023479
-0.00233594
-0.00233585
-0.00234616
-0.00236443
-0.00238676
-0.00240651
-0.00241315
-0.00238864
-0.00230657
-0.0021339
-0.00182466
-0.00131716
-0.000546017
0.000479328
0.00135711
0.00105803
-0.000644408
)
;

boundaryField
{
    floor
    {
        type            calculated;
        value           nonuniform List<scalar> 
29
(
0
0
0
0
0
0
0
0
0
0
0
0
0
0
0
0
0
0
0
0
-4.01746e-06
-1.02109e-05
-1.54292e-05
-2.00943e-05
-1.66529e-06
-2.98965e-06
-8.71667e-06
-9.56328e-06
-8.38493e-06
)
;
    }
    ceiling
    {
        type            calculated;
        value           nonuniform List<scalar> 
43
(
-4.66687e-05
-4.53935e-05
-4.41233e-05
-2.2859e-05
-1.40495e-05
-9.17389e-06
-6.07919e-06
-3.79189e-06
-2.0807e-06
-7.77083e-07
3.10079e-07
1.24812e-06
2.06606e-06
2.76619e-06
3.3391e-06
3.79877e-06
4.17282e-06
4.47907e-06
4.71997e-06
4.89535e-06
5.00809e-06
5.06635e-06
5.08245e-06
5.06155e-06
5.0083e-06
4.93281e-06
4.84056e-06
4.72591e-06
4.58955e-06
4.43403e-06
4.27035e-06
4.10358e-06
3.94254e-06
3.79646e-06
3.67578e-06
3.60216e-06
3.72312e-06
4.21533e-06
5.57892e-06
6.51496e-06
1.02487e-05
7.20734e-06
-5.66499e-05
)
;
    }
    sWall
    {
        type            calculated;
        value           uniform -0.000271795;
    }
    nWall
    {
        type            calculated;
        value           nonuniform List<scalar> 6(-4.86394e-05 -5.8189e-05 -6.30778e-05 -7.81569e-05 -8.54234e-05 -9.19674e-05);
    }
    sideWalls
    {
        type            empty;
        value           nonuniform 0();
    }
    glass1
    {
        type            calculated;
        value           nonuniform List<scalar> 9(-5.7325e-05 -0.000154466 -0.000236328 -0.00030603 -0.000365214 -0.000415102 -0.000459709 -0.000513674 -0.00057407);
    }
    glass2
    {
        type            calculated;
        value           nonuniform List<scalar> 2(-0.000260665 -0.000288546);
    }
    sun
    {
        type            calculated;
        value           uniform 0;
    }
    heatsource1
    {
        type            calculated;
        value           nonuniform List<scalar> 3(2.04202e-07 2.04137e-07 2.04155e-07);
    }
    heatsource2
    {
        type            calculated;
        value           nonuniform List<scalar> 4(5.11939e-08 5.12783e-08 0 0);
    }
    Table_master
    {
        type            calculated;
        value           nonuniform List<scalar> 9(-1.53158e-07 -1.53248e-07 -1.53281e-07 -1.53302e-07 -1.53318e-07 -1.53329e-07 -1.53335e-07 -1.5333e-07 -1.53302e-07);
    }
    Table_slave
    {
        type            calculated;
        value           nonuniform List<scalar> 9(1.53039e-07 1.53062e-07 1.53043e-07 1.53028e-07 1.53022e-07 1.53025e-07 1.53039e-07 1.53078e-07 1.53156e-07);
    }
    inlet
    {
        type            calculated;
        value           uniform -0.00662928;
    }
    outlet
    {
        type            calculated;
        value           nonuniform List<scalar> 2(0.00824887 0.00289937);
    }
}


// ************************************************************************* //
