/*--------------------------------*- C++ -*----------------------------------*\
  =========                 |
  \\      /  F ield         | OpenFOAM: The Open Source CFD Toolbox
   \\    /   O peration     | Website:  https://openfoam.org
    \\  /    A nd           | Version:  6
     \\/     M anipulation  |
\*---------------------------------------------------------------------------*/
FoamFile
{
    version     2.0;
    format      ascii;
    class       volVectorField;
    location    "1400";
    object      U;
}
// * * * * * * * * * * * * * * * * * * * * * * * * * * * * * * * * * * * * * //

dimensions      [0 1 -1 0 0 0 0];

internalField   nonuniform List<vector> 
459
(
(0.0341422 0.0859137 0)
(-0.167144 0.025506 0)
(-0.191927 0.0178421 0)
(-0.222931 0.0121262 0)
(-0.245343 0.00582288 0)
(-0.258062 -0.000883365 0)
(-0.259392 -0.00806085 0)
(-0.248076 -0.0157331 0)
(-0.224719 -0.0231905 0)
(-0.191249 -0.0290967 0)
(-0.151425 -0.0323503 0)
(-0.109663 -0.0324184 0)
(-0.0702139 -0.0294597 0)
(-0.038235 -0.0246199 0)
(-0.0276319 -0.0197594 0)
(-0.00652352 0.00911477 0)
(-0.0299143 -0.0163531 0)
(-0.00886245 -0.0261887 0)
(0.0148319 -0.0202985 0)
(0.0299306 -0.0139412 0)
(0.0425714 -0.00905245 0)
(0.0506171 -0.00526131 0)
(0.0548487 -0.00327257 0)
(0.0567857 -0.00247717 0)
(0.0577598 -0.00213562 0)
(0.0583744 -0.0019255 0)
(0.0587379 -0.00175901 0)
(0.0587996 -0.00156533 0)
(0.058387 -0.00117686 0)
(0.0569961 -0.000244569 0)
(0.0535498 0.00170737 0)
(0.0468729 0.00377016 0)
(0.0411586 0.00542242 0)
(-0.0138795 0.0201392 0)
(0.208659 0.176029 0)
(-0.156304 0.0674949 0)
(-0.154812 0.053056 0)
(-0.18697 0.0411902 0)
(-0.209243 0.0277204 0)
(-0.222274 0.0125251 0)
(-0.224319 -0.00471302 0)
(-0.213964 -0.0233826 0)
(-0.19242 -0.0408581 0)
(-0.16203 -0.0540314 0)
(-0.126682 -0.0607866 0)
(-0.0904578 -0.0605128 0)
(-0.0569156 -0.0538249 0)
(-0.0294586 -0.0423684 0)
(-0.0120536 -0.0286832 0)
(0.00173655 -0.0107439 0)
(0.000390535 0.0155955 0)
(0.061342 0.0368107 0)
(0.0233559 -0.0173127 0)
(0.0320647 -0.0308909 0)
(0.0430061 -0.0276927 0)
(0.051752 -0.0200202 0)
(0.0582435 -0.0126252 0)
(0.0610782 -0.00544664 0)
(0.0616543 -0.00130956 0)
(0.0616257 0.000422828 0)
(0.061741 0.00119432 0)
(0.0619458 0.00166828 0)
(0.0620948 0.00205282 0)
(0.062153 0.00251162 0)
(0.0620774 0.00334799 0)
(0.0613865 0.00538117 0)
(0.0578672 0.0110231 0)
(0.0488721 0.0157263 0)
(0.0453294 0.0188517 0)
(-0.0508967 0.0437733 0)
(0.368821 0.263443 0)
(-0.17316 0.10753 0)
(-0.116273 0.0858826 0)
(-0.14765 0.0647174 0)
(-0.167537 0.0425254 0)
(-0.179734 0.0178337 0)
(-0.181477 -0.010202 0)
(-0.17047 -0.0400973 0)
(-0.149203 -0.0671637 0)
(-0.12093 -0.0863515 0)
(-0.0897385 -0.0949884 0)
(-0.0591161 -0.0930322 0)
(-0.0313373 -0.0819175 0)
(-0.00846184 -0.0639298 0)
(0.00852518 -0.04045 0)
(0.0196293 -0.0141069 0)
(0.0238371 0.0229467 0)
(0.110205 -0.0249379 0)
(0.0740422 -0.0362533 0)
(0.0683141 -0.0373519 0)
(0.0695636 -0.0322866 0)
(0.0706912 -0.0245856 0)
(0.0718501 -0.0178252 0)
(0.0705255 -0.0143176 0)
(0.0658758 -0.0101332 0)
(0.0624878 -0.00784457 0)
(0.0609345 -0.00653386 0)
(0.0602509 -0.00569471 0)
(0.0598843 -0.00512008 0)
(0.0598092 -0.00463154 0)
(0.0604417 -0.00385844 0)
(0.0628358 -0.000914835 0)
(0.060854 0.0153206 0)
(0.0481955 0.0266029 0)
(0.051798 0.0341519 0)
(-0.0836461 0.06811 0)
(0.513421 0.333768 0)
(-0.207905 0.143033 0)
(-0.0753378 0.113864 0)
(-0.105398 0.0848057 0)
(-0.11987 0.0563472 0)
(-0.128898 0.023932 0)
(-0.12767 -0.0147643 0)
(-0.11361 -0.0564761 0)
(-0.0919885 -0.0923664 0)
(-0.0668078 -0.115904 0)
(-0.0415855 -0.1249 0)
(-0.0186539 -0.120696 0)
(0.00176101 -0.105411 0)
(0.0185373 -0.08261 0)
(0.0327611 -0.0557786 0)
(0.0479266 -0.0267615 0)
(0.0692843 0.00505542 0)
(0.0996368 0.0168811 0)
(0.10467 -0.0217735 0)
(0.0911999 -0.03239 0)
(0.0822634 -0.031779 0)
(0.0770596 -0.0278244 0)
(0.073037 -0.0219427 0)
(0.0702227 -0.014447 0)
(0.071073 -0.00866166 0)
(0.0755259 -0.00646589 0)
(0.0792977 -0.00527514 0)
(0.0817445 -0.00446085 0)
(0.0832356 -0.00355791 0)
(0.0833674 -0.00226933 0)
(0.0810541 -0.000333539 0)
(0.0750341 0.0025596 0)
(0.0628426 0.00691174 0)
(0.0510837 0.025568 0)
(0.039089 0.0413964 0)
(0.0561061 0.0539293 0)
(-0.118617 0.0897061 0)
(0.638629 0.38824 0)
(-0.250452 0.172018 0)
(-0.0345833 0.13004 0)
(-0.0611521 0.0963275 0)
(-0.0676121 0.0643942 0)
(-0.0706391 0.0268433 0)
(-0.0605892 -0.0216048 0)
(-0.0413449 -0.0741792 0)
(-0.0207696 -0.115275 0)
(-0.00150829 -0.139361 0)
(0.0146879 -0.14572 0)
(0.0270731 -0.13786 0)
(0.036775 -0.119929 0)
(0.0445944 -0.0954866 0)
(0.0518204 -0.0680477 0)
(0.0604067 -0.0413809 0)
(0.073059 -0.0217203 0)
(0.0835958 -0.0206326 0)
(0.084671 -0.0280443 0)
(0.078352 -0.0287299 0)
(0.0701408 -0.0258141 0)
(0.0632546 -0.0219924 0)
(0.0579145 -0.0174944 0)
(0.0544915 -0.0122157 0)
(0.05385 -0.00654554 0)
(0.0557168 -0.00381817 0)
(0.0579971 -0.00290727 0)
(0.0602348 -0.00228843 0)
(0.0623813 -0.000937298 0)
(0.0641416 0.001768 0)
(0.064321 0.00598757 0)
(0.062263 0.0119157 0)
(0.0573328 0.0201349 0)
(0.0509545 0.0347968 0)
(0.0410965 0.0523255 0)
(0.0644324 0.0722364 0)
(-0.0234642 0.101412 0)
(0.0465568 0.0312457 0)
(-0.061849 -0.0341422 0)
(-0.27261 -0.0568509 0)
(0.729728 0.433653 0)
(-0.292009 0.191523 0)
(-0.00337032 0.126617 0)
(-0.0159774 0.0975772 0)
(-0.0118755 0.0668185 0)
(-0.00617147 0.0237349 0)
(0.0226397 -0.0388813 0)
(0.0444553 -0.0945428 0)
(0.0599592 -0.13261 0)
(0.0693251 -0.151851 0)
(0.0732277 -0.154236 0)
(0.07308 -0.14336 0)
(0.0703848 -0.123257 0)
(0.0666499 -0.0979158 0)
(0.063358 -0.0709969 0)
(0.0619058 -0.0461464 0)
(0.0631369 -0.0275974 0)
(0.0639374 -0.0201147 0)
(0.0606659 -0.0195106 0)
(0.0536889 -0.0194471 0)
(0.0457375 -0.0179305 0)
(0.038978 -0.01563 0)
(0.0339462 -0.0128899 0)
(0.0309406 -0.00977122 0)
(0.0302342 -0.00688065 0)
(0.0315096 -0.00581654 0)
(0.0337648 -0.00583076 0)
(0.0365807 -0.0057153 0)
(0.0398095 -0.0044722 0)
(0.0432189 -0.00121509 0)
(0.0465975 0.00453685 0)
(0.0486252 0.0125202 0)
(0.0494685 0.0227778 0)
(0.0504759 0.0367063 0)
(0.0497628 0.0539584 0)
(0.0731263 0.0766551 0)
(0.0526313 0.0947469 0)
(0.0936829 0.0669115 0)
(0.116337 0.0442919 0)
(-0.12854 -0.00663829 0)
(0.781817 0.474929 0)
(-0.312925 0.17698 0)
(0.0235033 0.0771225 0)
(0.0427284 0.0737313 0)
(0.0579355 0.0520929 0)
(0.0848734 0.000764541 0)
(0.118933 -0.0632841 0)
(0.138152 -0.11197 0)
(0.144498 -0.141325 0)
(0.140656 -0.152805 0)
(0.129374 -0.149384 0)
(0.113577 -0.134819 0)
(0.095837 -0.112987 0)
(0.0783979 -0.0877849 0)
(0.0629416 -0.0624104 0)
(0.0507016 -0.0399523 0)
(0.0421119 -0.0234845 0)
(0.0356377 -0.0150794 0)
(0.0291102 -0.0125379 0)
(0.0220266 -0.0119875 0)
(0.0152853 -0.0112942 0)
(0.00979201 -0.0103368 0)
(0.00585834 -0.0092601 0)
(0.00366616 -0.00813766 0)
(0.00330929 -0.00739114 0)
(0.00444981 -0.00767142 0)
(0.00646259 -0.00850695 0)
(0.00907935 -0.00905969 0)
(0.0123469 -0.00847905 0)
(0.0164196 -0.00581203 0)
(0.0221309 3.81968e-05 0)
(0.0286257 0.0087953 0)
(0.0348028 0.0191809 0)
(0.0424422 0.0314903 0)
(0.0508978 0.0455493 0)
(0.0737991 0.0637791 0)
(0.0876988 0.0719333 0)
(0.119679 0.0512018 0)
(0.158812 0.0435697 0)
(-0.0355707 0.0927891 0)
(0.886519 0.477572 0)
(-0.0704714 0.156603 0)
(0.106144 0.00379612 0)
(0.169396 -0.0168001 0)
(0.182543 -0.0358484 0)
(0.218266 -0.0698365 0)
(0.239994 -0.102468 0)
(0.242412 -0.125718 0)
(0.228337 -0.137102 0)
(0.202714 -0.136858 0)
(0.170417 -0.126759 0)
(0.13567 -0.109438 0)
(0.101514 -0.0875927 0)
(0.070442 -0.064472 0)
(0.0439071 -0.0424825 0)
(0.0232529 -0.0241898 0)
(0.0089396 -0.0120717 0)
(-0.000381604 -0.00655583 0)
(-0.00696691 -0.0054168 0)
(-0.0124609 -0.00573797 0)
(-0.0171819 -0.00615714 0)
(-0.0209624 -0.00649651 0)
(-0.0237244 -0.00682552 0)
(-0.025406 -0.00724282 0)
(-0.0260481 -0.00796764 0)
(-0.0259543 -0.00916985 0)
(-0.0255094 -0.0105975 0)
(-0.024852 -0.0118154 0)
(-0.0238418 -0.0123391 0)
(-0.0221018 -0.0116284 0)
(-0.0187635 -0.00897752 0)
(-0.0110847 -0.0035898 0)
(-0.000565249 0.00416428 0)
(0.0106413 0.0122398 0)
(0.0232399 0.0186781 0)
(0.0441693 0.0254615 0)
(0.0640899 0.0199446 0)
(0.0833689 -0.00172702 0)
(0.140966 0.0483126 0)
(-0.431847 0.20482 0)
(1.0317 0.429914 0)
(0.496761 0.285026 0)
(0.503057 0.191295 0)
(0.511707 0.119743 0)
(0.487242 0.0682112 0)
(0.444289 0.0147819 0)
(0.394206 -0.0334092 0)
(0.340634 -0.0674336 0)
(0.283276 -0.0848675 0)
(0.22456 -0.0877854 0)
(0.1678 -0.0802347 0)
(0.115752 -0.0662151 0)
(0.0694397 -0.0484853 0)
(0.0307546 -0.0304399 0)
(-0.000768667 -0.014257 0)
(-0.0216083 -0.00421465 0)
(-0.0326825 -0.000415926 0)
(-0.0387742 0.000185968 0)
(-0.0426664 -0.00064842 0)
(-0.0459191 -0.00183369 0)
(-0.0489476 -0.00296024 0)
(-0.0516998 -0.00402941 0)
(-0.05416 -0.00508826 0)
(-0.0563256 -0.00618733 0)
(-0.0583192 -0.00739835 0)
(-0.0604237 -0.00872683 0)
(-0.0629708 -0.00998492 0)
(-0.0662467 -0.0108297 0)
(-0.0705463 -0.010779 0)
(-0.0762664 -0.00920364 0)
(-0.0839036 -0.00534057 0)
(-0.0938756 0.00154183 0)
(-0.104369 0.0111085 0)
(-0.117979 0.0232962 0)
(-0.139559 0.0381732 0)
(-0.171284 0.0551918 0)
(-0.217065 0.0714255 0)
(-0.273342 0.0847554 0)
(-0.349589 0.0934318 0)
(-0.616918 0.0908059 0)
(-0.147773 0.0826447 0)
(0.134639 0.061335 0)
(0.21779 0.00546844 0)
(0.201302 -0.0292084 0)
(0.185523 -0.0433571 0)
(0.16292 -0.0478408 0)
(0.130362 -0.046055 0)
(0.0917666 -0.0395351 0)
(0.0519088 -0.0296956 0)
(0.0139375 -0.0173647 0)
(-0.0232525 -0.0036196 0)
(-0.0468761 0.00404173 0)
(-0.0612437 0.00749514 0)
(-0.0681477 0.00795611 0)
(-0.0715255 0.00725311 0)
(-0.0737115 0.00638307 0)
(-0.0755606 0.00558303 0)
(-0.0774183 0.00494144 0)
(-0.0793845 0.00436878 0)
(-0.0815869 0.00370271 0)
(-0.084064 0.00282451 0)
(-0.086784 0.0018116 0)
(-0.0898251 0.000754875 0)
(-0.0933066 -0.000197912 0)
(-0.0973137 -0.000801705 0)
(-0.101856 -0.000743769 0)
(-0.106863 0.000321827 0)
(-0.112168 0.00274603 0)
(-0.117316 0.0069275 0)
(-0.121368 0.0134826 0)
(-0.124761 0.0235158 0)
(-0.127455 0.037535 0)
(-0.129943 0.0551282 0)
(-0.132001 0.0739923 0)
(-0.130425 0.0871994 0)
(-0.113067 0.0804083 0)
(-0.0735807 0.0261686 0)
(-0.197924 -0.176157 0)
(-0.0229282 0.230757 0)
(0.0635937 0.0991803 0)
(0.0374431 0.0187007 0)
(0.0252769 -0.00463739 0)
(0.015707 -0.00988758 0)
(-0.00312116 -0.0111284 0)
(-0.0281171 -0.00859684 0)
(-0.053771 -0.00400019 0)
(-0.0754275 0.000507317 0)
(-0.0902757 0.00350344 0)
(-0.0973259 0.0037436 0)
(-0.0997761 0.00151608 0)
(-0.100022 -0.00144893 0)
(-0.0992919 -0.00481856 0)
(-0.0986791 -0.00828292 0)
(-0.0985775 -0.011627 0)
(-0.09902 -0.0147452 0)
(-0.099904 -0.0174376 0)
(-0.101075 -0.0195205 0)
(-0.102424 -0.0209061 0)
(-0.103924 -0.0216019 0)
(-0.105647 -0.0217295 0)
(-0.107583 -0.0213133 0)
(-0.109728 -0.0204893 0)
(-0.112027 -0.0192945 0)
(-0.114309 -0.0175461 0)
(-0.116264 -0.0149134 0)
(-0.11745 -0.0108773 0)
(-0.117395 -0.00521221 0)
(-0.115284 0.00246414 0)
(-0.109825 0.0128425 0)
(-0.0996948 0.0265594 0)
(-0.0843092 0.0434356 0)
(-0.0640479 0.0604196 0)
(-0.0401357 0.0694691 0)
(0.027872 0.0380753 0)
(0.147081 -0.0411675 0)
(-0.049468 -0.0652226 0)
(-0.103037 -0.348501 0)
(-0.439071 -0.120346 0)
(-0.310607 0.0954193 0)
(-0.226686 -0.0203167 0)
(-0.180388 -0.0412355 0)
(-0.166097 -0.0289875 0)
(-0.163717 -0.0160166 0)
(-0.165013 -0.00570993 0)
(-0.165492 0.00288292 0)
(-0.163192 0.010421 0)
(-0.158438 0.0173506 0)
(-0.151358 0.0236659 0)
(-0.142879 0.0291117 0)
(-0.134424 0.033718 0)
(-0.12683 0.0380591 0)
(-0.120417 0.0423798 0)
(-0.115181 0.0468022 0)
(-0.110939 0.0511599 0)
(-0.10754 0.0550836 0)
(-0.10489 0.0581915 0)
(-0.102919 0.0602156 0)
(-0.101569 0.0610584 0)
(-0.100787 0.0607722 0)
(-0.100537 0.059494 0)
(-0.100783 0.0573444 0)
(-0.101449 0.0546623 0)
(-0.102408 0.0517292 0)
(-0.103452 0.0486412 0)
(-0.10423 0.0454895 0)
(-0.104164 0.0423457 0)
(-0.102194 0.0399388 0)
(-0.0967216 0.0389351 0)
(-0.085581 0.0400053 0)
(-0.066839 0.0439014 0)
(-0.0405595 0.0511112 0)
(-0.00583566 0.0606893 0)
(0.0320349 0.0574393 0)
(0.0898922 0.0208345 0)
(0.119005 -0.0177801 0)
(-0.505035 0.0604458 0)
)
;

boundaryField
{
    floor
    {
        type            noSlip;
    }
    ceiling
    {
        type            noSlip;
    }
    sWall
    {
        type            noSlip;
    }
    nWall
    {
        type            noSlip;
    }
    sideWalls
    {
        type            empty;
    }
    glass1
    {
        type            noSlip;
    }
    glass2
    {
        type            noSlip;
    }
    sun
    {
        type            noSlip;
    }
    heatsource1
    {
        type            noSlip;
    }
    heatsource2
    {
        type            noSlip;
    }
    Table_master
    {
        type            noSlip;
    }
    Table_slave
    {
        type            noSlip;
    }
    inlet
    {
        type            fixedValue;
        value           uniform (0.3 0 0);
    }
    outlet
    {
        type            zeroGradient;
    }
}


// ************************************************************************* //
