// -*- C++ -*-
// File generated by PyFoam - sorry for the ugliness

FoamFile
{
 version 2.0;
 format ascii;
 class volVectorField;
 location "500";
 object U;
}

dimensions [ 0 1 -1 0 0 0 0 ];

internalField nonuniform List<vector> 459
(
  (0.00319105 0.0919423 0)
  (-0.187361 0.0276537 0)
  (-0.220188 0.00752727 0)
  (-0.238466 -0.008605 0)
  (-0.228823 -0.0258627 0)
  (-0.191158 -0.0453735 0)
  (-0.131106 -0.0638207 0)
  (-0.0619986 -0.0756336 0)
  (0.0314528 -0.0624855 0)
  (0.0832923 -0.0446541 0)
  (0.122406 -0.0286763 0)
  (0.144247 -0.0142951 0)
  (0.14553 0.000336914 0)
  (0.122551 0.02167 0)
  (0.0939183 0.0679623 0)
  (-0.0349667 0.0207641 0)
  (-0.0578789 -0.00128994 0)
  (-0.0549914 -0.0156479 0)
  (-0.0323266 -0.0264783 0)
  (-0.00666597 -0.0301986 0)
  (0.0279608 -0.0264035 0)
  (0.0474433 -0.0166023 0)
  (0.0635712 -0.0116808 0)
  (0.0754356 -0.00999075 0)
  (0.0841508 -0.00865631 0)
  (0.0903444 -0.00659814 0)
  (0.0930591 -0.00388366 0)
  (0.0908755 -0.000397334 0)
  (0.083808 0.00390858 0)
  (0.0715344 0.00898124 0)
  (0.0535183 0.0141759 0)
  (0.0325017 0.0148143 0)
  (0.0195341 0.00367164 0)
  (-0.0519646 -0.00711997 0)
  (0.164266 0.192196 0)
  (-0.162743 0.0852534 0)
  (-0.173789 0.0485017 0)
  (-0.194146 0.0138637 0)
  (-0.187406 -0.0264202 0)
  (-0.154194 -0.0693175 0)
  (-0.10191 -0.103929 0)
  (-0.0430294 -0.119285 0)
  (0.0208072 -0.101796 0)
  (0.0665524 -0.0719904 0)
  (0.100719 -0.0425512 0)
  (0.121108 -0.0143425 0)
  (0.128921 0.0136517 0)
  (0.127413 0.0439198 0)
  (0.12512 0.0840216 0)
  (0.119706 0.0783943 0)
  (0.0764119 0.0719136 0)
  (0.00216951 0.048601 0)
  (-0.0223122 0.0146329 0)
  (0.00471115 -0.0229033 0)
  (0.0239035 -0.0405511 0)
  (0.0391683 -0.0432759 0)
  (0.0546609 -0.0383895 0)
  (0.0614285 -0.0217927 0)
  (0.0638403 -0.0118785 0)
  (0.0650123 -0.00898678 0)
  (0.0663571 -0.00716642 0)
  (0.0680553 -0.00341138 0)
  (0.0683972 0.00194472 0)
  (0.0667994 0.00743224 0)
  (0.064958 0.0125462 0)
  (0.0633373 0.0180054 0)
  (0.058549 0.0266296 0)
  (0.0473281 0.0301164 0)
  (0.0392356 0.0267256 0)
  (-0.0353738 0.0161633 0)
  (0.311135 0.286076 0)
  (-0.164691 0.130803 0)
  (-0.131479 0.0757483 0)
  (-0.152064 0.0186721 0)
  (-0.145341 -0.0461891 0)
  (-0.11253 -0.112297 0)
  (-0.0663069 -0.159298 0)
  (-0.0183156 -0.172661 0)
  (0.0271797 -0.147808 0)
  (0.0625763 -0.108695 0)
  (0.0896 -0.0676513 0)
  (0.106388 -0.028706 0)
  (0.114807 0.00820444 0)
  (0.117052 0.0440642 0)
  (0.116699 0.078233 0)
  (0.105725 0.0877202 0)
  (0.0830856 0.119536 0)
  (0.046927 0.0267045 0)
  (0.0434727 -0.0179043 0)
  (0.0650666 -0.0429611 0)
  (0.0749416 -0.0539863 0)
  (0.0803571 -0.0545965 0)
  (0.0865179 -0.0510171 0)
  (0.0826376 -0.0398802 0)
  (0.0643495 -0.0269378 0)
  (0.0478171 -0.0198319 0)
  (0.0363723 -0.0147239 0)
  (0.0292219 -0.0084016 0)
  (0.0288315 -0.00140497 0)
  (0.0338503 0.00412755 0)
  (0.0428292 0.00820789 0)
  (0.0571546 0.0135458 0)
  (0.0640389 0.0322474 0)
  (0.0571968 0.041501 0)
  (0.0498727 0.0441506 0)
  (-0.0194261 0.0462402 0)
  (0.444039 0.36094 0)
  (-0.183994 0.169903 0)
  (-0.0903249 0.101314 0)
  (-0.10875 0.0252454 0)
  (-0.0957689 -0.0644042 0)
  (-0.0601049 -0.152596 0)
  (-0.0213398 -0.206404 0)
  (0.0143054 -0.214149 0)
  (0.0428616 -0.184047 0)
  (0.0667632 -0.136813 0)
  (0.0841706 -0.0861898 0)
  (0.0945637 -0.0389983 0)
  (0.100102 0.00325078 0)
  (0.102894 0.0412063 0)
  (0.107857 0.0748228 0)
  (0.117114 0.0976166 0)
  (0.133241 0.130449 0)
  (0.162719 0.107301 0)
  (0.130128 0.0436812 0)
  (0.127885 -0.000917769 0)
  (0.12555 -0.0328882 0)
  (0.118324 -0.0484734 0)
  (0.108503 -0.0506304 0)
  (0.0971389 -0.0442754 0)
  (0.0943903 -0.0259003 0)
  (0.104309 -0.0152804 0)
  (0.11064 -0.00941731 0)
  (0.110837 -0.00574418 0)
  (0.107552 -0.00303955 0)
  (0.102477 -0.000851219 0)
  (0.0957387 0.00119905 0)
  (0.0864654 0.0036907 0)
  (0.072658 0.00744279 0)
  (0.0618872 0.0314952 0)
  (0.0574134 0.0484671 0)
  (0.0553583 0.0607556 0)
  (-0.0123451 0.080652 0)
  (0.560354 0.417898 0)
  (-0.212536 0.20023 0)
  (-0.0520555 0.117246 0)
  (-0.0616754 0.0271962 0)
  (-0.0312336 -0.0878507 0)
  (0.00572669 -0.190073 0)
  (0.0332087 -0.239635 0)
  (0.05176 -0.239589 0)
  (0.0649494 -0.204813 0)
  (0.0740988 -0.151646 0)
  (0.0789116 -0.0947088 0)
  (0.0801851 -0.0430636 0)
  (0.0803037 0.000772769 0)
  (0.0817708 0.0374657 0)
  (0.0888246 0.0669521 0)
  (0.102295 0.0857236 0)
  (0.122877 0.0933506 0)
  (0.139923 0.0511315 0)
  (0.140521 0.0143583 0)
  (0.140242 -0.0141949 0)
  (0.133194 -0.0323857 0)
  (0.120944 -0.0402231 0)
  (0.106649 -0.039118 0)
  (0.09297 -0.0307161 0)
  (0.0849964 -0.0141433 0)
  (0.0824741 -0.00329007 0)
  (0.0794164 0.00236025 0)
  (0.0747792 0.00556623 0)
  (0.0696798 0.00780072 0)
  (0.0647049 0.00972449 0)
  (0.0598895 0.0119357 0)
  (0.0550769 0.0152786 0)
  (0.0499671 0.0212629 0)
  (0.0484801 0.0370718 0)
  (0.0517427 0.0528243 0)
  (0.0660779 0.067948 0)
  (0.0535956 0.0862073 0)
  (0.0802766 0.0567876 0)
  (0.113053 0.0403305 0)
  (-0.252048 0.0279191 0)
  (0.65261 0.462339 0)
  (-0.24349 0.217261 0)
  (-0.0171397 0.11182 0)
  (0.00401648 0.00449349 0)
  (0.0515925 -0.127504 0)
  (0.0799516 -0.217114 0)
  (0.0930525 -0.255892 0)
  (0.0943388 -0.248302 0)
  (0.0885492 -0.208133 0)
  (0.0791343 -0.150491 0)
  (0.0682243 -0.0903594 0)
  (0.0579622 -0.0380354 0)
  (0.0502895 0.00353252 0)
  (0.049368 0.0346344 0)
  (0.0563261 0.0564484 0)
  (0.0696497 0.0675665 0)
  (0.0890021 0.0655398 0)
  (0.105266 0.0388508 0)
  (0.111882 0.0133908 0)
  (0.11071 -0.00667583 0)
  (0.102602 -0.0198311 0)
  (0.0903024 -0.0254923 0)
  (0.0763782 -0.0243588 0)
  (0.0630339 -0.0178032 0)
  (0.0527407 -0.00716815 0)
  (0.0456329 0.00132585 0)
  (0.0404943 0.00629907 0)
  (0.0361618 0.00907002 0)
  (0.0323981 0.0108563 0)
  (0.0293659 0.0123323 0)
  (0.0272258 0.0140681 0)
  (0.0262611 0.0168223 0)
  (0.0268635 0.021825 0)
  (0.0317436 0.0323006 0)
  (0.0417886 0.0447254 0)
  (0.0610565 0.0571241 0)
  (0.0740797 0.0615163 0)
  (0.0891035 0.0363494 0)
  (0.118622 0.0453136 0)
  (-0.114829 0.0706674 0)
  (0.736248 0.50076 0)
  (-0.256216 0.196184 0)
  (0.0345352 0.0378103 0)
  (0.105934 -0.0706852 0)
  (0.14893 -0.170248 0)
  (0.163643 -0.235642 0)
  (0.157415 -0.255969 0)
  (0.13567 -0.236105 0)
  (0.1056 -0.189892 0)
  (0.0737827 -0.130018 0)
  (0.0451607 -0.0706401 0)
  (0.0231171 -0.0223694 0)
  (0.00935937 0.0115687 0)
  (0.00882159 0.032652 0)
  (0.0167237 0.0459088 0)
  (0.0302599 0.0514102 0)
  (0.0475756 0.0474013 0)
  (0.0609389 0.0305744 0)
  (0.0661155 0.0124709 0)
  (0.0639934 -0.00161594 0)
  (0.0565602 -0.0102409 0)
  (0.0454643 -0.0132911 0)
  (0.0330297 -0.0115044 0)
  (0.0211668 -0.00611566 0)
  (0.0111819 0.0013178 0)
  (0.00489912 0.00718355 0)
  (0.00118415 0.0105265 0)
  (-0.00143392 0.0122493 0)
  (-0.0032558 0.0131342 0)
  (-0.00427138 0.0136169 0)
  (-0.00427279 0.0140198 0)
  (-0.00287819 0.0147535 0)
  (0.000579992 0.0165157 0)
  (0.0081192 0.0208247 0)
  (0.0203728 0.0259709 0)
  (0.0394062 0.0289825 0)
  (0.0606617 0.0208019 0)
  (0.0808189 0.000298673 0)
  (0.115371 0.033267 0)
  (-0.079101 0.123567 0)
  (0.851072 0.483648 0)
  (-0.00305052 0.165575 0)
  (0.145943 -0.050228 0)
  (0.256298 -0.145378 0)
  (0.277346 -0.201347 0)
  (0.257475 -0.230154 0)
  (0.216446 -0.227347 0)
  (0.161474 -0.195245 0)
  (0.101478 -0.145821 0)
  (0.045203 -0.0880713 0)
  (0.00112627 -0.034944 0)
  (-0.0258577 0.000295847 0)
  (-0.0348468 0.0177709 0)
  (-0.0329967 0.0280477 0)
  (-0.0248241 0.0346814 0)
  (-0.0126246 0.037062 0)
  (0.00133667 0.03355 0)
  (0.0109451 0.0231171 0)
  (0.0137764 0.0119707 0)
  (0.0106796 0.00350473 0)
  (0.00412581 -0.00131317 0)
  (-0.00531919 -0.00229653 0)
  (-0.0152763 -0.000213581 0)
  (-0.0240746 0.00361311 0)
  (-0.029928 0.007692 0)
  (-0.0332131 0.0107554 0)
  (-0.0349148 0.0125491 0)
  (-0.0358085 0.0134041 0)
  (-0.0362357 0.0136112 0)
  (-0.0363707 0.0133649 0)
  (-0.0363825 0.0128602 0)
  (-0.0366424 0.0124329 0)
  (-0.0379183 0.0128591 0)
  (-0.0410162 0.0157369 0)
  (-0.0476498 0.0220906 0)
  (-0.0592011 0.0320695 0)
  (-0.0755598 0.0467828 0)
  (-0.09499 0.0744069 0)
  (-0.145405 0.118926 0)
  (-0.415847 0.16814 0)
  (1.01549 0.417137 0)
  (0.485283 0.269967 0)
  (0.498711 0.141423 0)
  (0.487003 0.00036639 0)
  (0.41852 -0.0993222 0)
  (0.32619 -0.146566 0)
  (0.230309 -0.149223 0)
  (0.135803 -0.119485 0)
  (0.0490294 -0.0756592 0)
  (-0.0254559 -0.0256038 0)
  (-0.0622464 0.00169114 0)
  (-0.076473 0.0132779 0)
  (-0.078446 0.0189122 0)
  (-0.0745668 0.0227697 0)
  (-0.066983 0.0254946 0)
  (-0.0574127 0.0262387 0)
  (-0.0479624 0.0241466 0)
  (-0.0418485 0.0191275 0)
  (-0.0403522 0.0135994 0)
  (-0.0428182 0.00928967 0)
  (-0.0477458 0.00695919 0)
  (-0.0536695 0.00662815 0)
  (-0.0591506 0.00763789 0)
  (-0.0633214 0.00932493 0)
  (-0.0657544 0.0111086 0)
  (-0.066724 0.0125156 0)
  (-0.066788 0.0133826 0)
  (-0.0664707 0.0138054 0)
  (-0.0661925 0.0139593 0)
  (-0.066386 0.0141114 0)
  (-0.0676059 0.0147122 0)
  (-0.0705727 0.0165298 0)
  (-0.0759687 0.0207012 0)
  (-0.0842285 0.0283001 0)
  (-0.09638 0.0392576 0)
  (-0.113552 0.0512553 0)
  (-0.134257 0.0576328 0)
  (-0.15963 0.0469982 0)
  (-0.222717 0.00755879 0)
  (-0.393759 -0.0707147 0)
  (-0.00236184 0.00421416 0)
  (0.139108 -0.0760554 0)
  (0.163679 -0.114271 0)
  (0.107234 -0.102217 0)
  (0.0374144 -0.0693362 0)
  (-0.03978 -0.0227267 0)
  (-0.0896231 0.00354478 0)
  (-0.116777 0.0159926 0)
  (-0.124419 0.0187789 0)
  (-0.124925 0.0192502 0)
  (-0.121793 0.0195305 0)
  (-0.116585 0.0203197 0)
  (-0.110017 0.0213015 0)
  (-0.102928 0.0217928 0)
  (-0.0965089 0.0212646 0)
  (-0.092192 0.0196515 0)
  (-0.09049 0.0177849 0)
  (-0.0909472 0.016362 0)
  (-0.0926627 0.0157726 0)
  (-0.0946778 0.0160909 0)
  (-0.0962303 0.017067 0)
  (-0.0969191 0.0184075 0)
  (-0.0966475 0.0198734 0)
  (-0.0955799 0.0212982 0)
  (-0.093984 0.0226101 0)
  (-0.0921067 0.0238324 0)
  (-0.0901409 0.0250458 0)
  (-0.0882464 0.0263917 0)
  (-0.0865507 0.0281065 0)
  (-0.0850778 0.0306207 0)
  (-0.0835726 0.0347591 0)
  (-0.0813897 0.0418709 0)
  (-0.0777668 0.0534066 0)
  (-0.0720693 0.0697228 0)
  (-0.0628935 0.0871078 0)
  (-0.0486031 0.0928545 0)
  (-0.000174467 0.0483429 0)
  (-0.0768871 -0.145289 0)
  (0.164695 0.115288 0)
  (0.0194774 -0.00105716 0)
  (-0.0297564 -0.048281 0)
  (-0.0917196 -0.0415185 0)
  (-0.140586 -0.0282607 0)
  (-0.167867 -0.0204657 0)
  (-0.176485 -0.0197299 0)
  (-0.177068 -0.0208404 0)
  (-0.173764 -0.0236246 0)
  (-0.169274 -0.0258974 0)
  (-0.164194 -0.0269493 0)
  (-0.158593 -0.0268931 0)
  (-0.152474 -0.0263851 0)
  (-0.146074 -0.0262023 0)
  (-0.139922 -0.0269732 0)
  (-0.13466 -0.0289872 0)
  (-0.130597 -0.0320048 0)
  (-0.127629 -0.0356349 0)
  (-0.1254 -0.039463 0)
  (-0.123472 -0.0431504 0)
  (-0.121472 -0.0465364 0)
  (-0.119176 -0.0496021 0)
  (-0.116502 -0.0524305 0)
  (-0.113482 -0.0551479 0)
  (-0.110207 -0.0578214 0)
  (-0.106764 -0.0603582 0)
  (-0.10319 -0.0624512 0)
  (-0.0994236 -0.0635471 0)
  (-0.0952449 -0.0628534 0)
  (-0.0901501 -0.0594056 0)
  (-0.0831471 -0.0522372 0)
  (-0.0725796 -0.0407582 0)
  (-0.0563669 -0.0254763 0)
  (-0.0331652 -0.00914369 0)
  (0.00128964 -0.000497119 0)
  (0.0416877 -0.0315204 0)
  (0.103603 -0.0926928 0)
  (-0.021076 -0.16152 0)
  (0.868849 0.0680745 0)
  (-0.373793 -0.463626 0)
  (-0.343224 0.0701925 0)
  (-0.294912 0.0712363 0)
  (-0.267102 0.0849859 0)
  (-0.264817 0.0950524 0)
  (-0.260937 0.104121 0)
  (-0.252908 0.11257 0)
  (-0.242762 0.118979 0)
  (-0.232825 0.124035 0)
  (-0.224211 0.128052 0)
  (-0.217078 0.131206 0)
  (-0.2108 0.133804 0)
  (-0.20463 0.136361 0)
  (-0.198 0.139427 0)
  (-0.190698 0.143417 0)
  (-0.182873 0.148541 0)
  (-0.174901 0.154779 0)
  (-0.167145 0.161908 0)
  (-0.159828 0.169582 0)
  (-0.153015 0.177411 0)
  (-0.146647 0.185062 0)
  (-0.140594 0.192351 0)
  (-0.13471 0.199264 0)
  (-0.128861 0.205911 0)
  (-0.122959 0.212438 0)
  (-0.116955 0.21893 0)
  (-0.110816 0.225332 0)
  (-0.10449 0.231424 0)
  (-0.0978505 0.236828 0)
  (-0.0906168 0.241056 0)
  (-0.0822263 0.243655 0)
  (-0.0717284 0.244464 0)
  (-0.0580339 0.244041 0)
  (-0.0408203 0.244178 0)
  (-0.0212072 0.248314 0)
  (0.00669504 0.255181 0)
  (0.025094 0.276612 0)
  (0.0923676 0.304175 0)
  (-0.2488 0.390184 0)
)
;

boundaryField
{
  floor
  {
    type noSlip;
  }
  ceiling
  {
    type noSlip;
  }
  sWall
  {
    type noSlip;
  }
  nWall
  {
    type noSlip;
  }
  sideWalls
  {
    type empty;
  }
  glass1
  {
    type noSlip;
  }
  glass2
  {
    type noSlip;
  }
  sun
  {
    type noSlip;
  }
  heatsource1
  {
    type noSlip;
  }
  heatsource2
  {
    type noSlip;
  }
  Table_master
  {
    type noSlip;
  }
  Table_slave
  {
    type noSlip;
  }
  inlet
  {
    type fixedValue;
    value uniform (0.3 0 0);
  }
  outlet
  {
    type zeroGradient;
  }
} 	// ************************************************************************* //

