/*--------------------------------*- C++ -*----------------------------------*\
  =========                 |
  \\      /  F ield         | OpenFOAM: The Open Source CFD Toolbox
   \\    /   O peration     | Website:  https://openfoam.org
    \\  /    A nd           | Version:  6
     \\/     M anipulation  |
\*---------------------------------------------------------------------------*/
FoamFile
{
    version     2.0;
    format      ascii;
    class       surfaceScalarField;
    location    "1100";
    object      phi;
}
// * * * * * * * * * * * * * * * * * * * * * * * * * * * * * * * * * * * * * //

dimensions      [1 0 -1 0 0 0 0];

internalField   nonuniform List<scalar> 
852
(
-0.00295882
0.00301617
-0.00399881
0.00103999
-0.00479902
0.000800206
-0.00542221
0.000623195
-0.00583493
0.000412722
-0.00600903
0.000174095
-0.00591626
-9.27677e-05
-0.00553469
-0.000381564
-0.00488042
-0.00065427
-0.00401878
-0.000861643
-0.00304994
-0.000968833
-0.00208572
-0.000964224
-0.00122821
-0.000857506
-0.000539098
-0.000689112
-0.000537428
-0.000783854
0.000786852
-0.000541989
-0.000241863
4.16168e-05
-0.000583605
0.000536882
-0.000495264
0.000881054
-0.00034417
0.00110598
-0.000224926
0.00123216
-0.000126179
0.00129373
-6.15622e-05
0.00132814
-3.4408e-05
0.00134959
-2.14528e-05
0.0013621
-1.25087e-05
0.00136726
-5.16281e-06
0.00136392
3.34397e-06
0.00134504
1.88843e-05
0.00129051
5.45335e-05
0.00116646
0.000124047
0.000961538
0.000204924
0.000710625
0.000250914
0.00071465
-0.0021199
0.00529061
-0.00314033
0.00206042
-0.00396942
0.0016293
-0.00458896
0.00124273
-0.00500011
0.000823875
-0.00518367
0.000357659
-0.00510815
-0.000168294
-0.00475587
-0.000733838
-0.00415553
-0.00125461
-0.00338311
-0.00163407
-0.00253695
-0.00181499
-0.00171179
-0.00178939
-0.000988121
-0.00158117
-0.000439752
-0.00123748
-0.000172586
-0.000804593
0.000116642
-0.000289278
0.000116592
0.000238466
0.000557125
0.000633082
-0.000636477
0.000895889
-0.000846411
0.00111533
-0.000714702
0.00129022
-0.000519061
0.00140341
-0.000338113
0.00142385
-0.000146623
0.00142896
-6.66727e-05
0.00143513
-4.05733e-05
0.00144031
-2.66271e-05
0.00144375
-1.59523e-05
0.00144567
-7.07751e-06
0.0014455
3.51462e-06
0.00144025
2.41364e-05
0.00140332
9.14581e-05
0.00124391
0.000283462
0.000965182
0.000483654
0.000615873
0.000600223
0.00134075
-0.00149
0.00701707
-0.00237284
0.00294326
-0.00311367
0.00237013
-0.00364968
0.00177875
-0.00401493
0.00118913
-0.00418508
0.000527807
-0.0041058
-0.000247571
-0.0037515
-0.00108814
-0.00317668
-0.00182943
-0.00247507
-0.00233568
-0.00174182
-0.00254823
-0.0010495
-0.00248171
-0.000450102
-0.00218057
2.19229e-05
-0.0017095
0.000332325
-0.00111499
0.000471947
-0.000428899
0.00058854
0.001484
-0.000917284
0.00170111
-0.000853587
0.00165304
-0.000798342
0.00163617
-0.000697827
0.00165633
-0.000539218
0.00169486
-0.000376648
0.0015484
0.00148188
0.00144146
0.00141499
0.00139919
0.00139227
0.00139593
0.00142023
0.00151184
0.00125079
0.000544509
0.000929194
0.000805255
0.000524971
0.00100445
0.00188117
-0.00104334
0.00836659
-0.00174541
0.00364533
-0.00224344
0.00286816
-0.00260264
0.00213795
-0.00285438
0.00144086
-0.00296174
0.00063517
-0.00282784
-0.000381467
-0.00243644
-0.00147955
-0.00188922
-0.00237665
-0.00128869
-0.0029362
-0.0007105
-0.00312642
-0.000194197
-0.00299801
0.000244346
-0.00261911
0.000605672
-0.00207083
0.000926795
-0.00143612
0.00128837
-0.000790477
0.00212942
-0.000252501
0.00247557
-0.000337743
0.00213174
-0.000573458
0.00199803
-0.000719877
0.00186838
-0.000668689
0.00174962
-0.000579065
0.0016716
-0.000461191
0.00160708
-0.000312137
0.00173713
-0.000130201
0.00181383
-7.68516e-05
0.00187476
-6.10736e-05
0.00192274
-4.81403e-05
0.00194489
-2.22967e-05
0.00192038
2.43615e-05
0.00182386
9.63643e-05
0.00162173
0.000201982
0.00125982
0.000361753
0.0011045
0.000699833
0.000800244
0.00110951
0.000338127
0.00146657
0.00223941
-0.000729001
0.00946098
-0.00126258
0.00417891
-0.0013849
0.00299048
-0.00147851
0.00223155
-0.0015408
0.00150316
-0.0015019
0.000596277
-0.00122729
-0.000656078
-0.000786229
-0.00192061
-0.000310382
-0.00285249
0.000121422
-0.003368
0.000474861
-0.00347986
0.000745212
-0.00326836
0.000954226
-0.00282812
0.00113135
-0.00224795
0.00131045
-0.00161522
0.00153903
-0.00101906
0.00186042
-0.000573883
0.00196368
-0.000441007
0.00188351
-0.000493287
0.0017084
-0.000544766
0.001549
-0.000509281
0.00141013
-0.000440195
0.0013054
-0.000356465
0.00125086
-0.000257595
0.00128361
-0.000162946
0.00132753
-0.000120776
0.00137688
-0.000110416
0.00142954
-0.000100807
0.0014765
-6.92489e-05
0.00149847
2.38684e-06
0.00147366
0.000121184
0.00138854
0.000287103
0.00124305
0.000507239
0.0011065
0.000836382
0.000951015
0.001265
0.000599388
0.00181819
0.000498902
0.0023399
-0.00098499
0.00148369
-0.00144868
0.000463488
-0.00140025
-0.000631185
0.0105074
-0.0009977
0.00454543
-0.000603727
0.00259651
-0.000310695
0.00193852
-9.63642e-05
0.00128883
0.000228059
0.000271854
0.000709316
-0.00113733
0.00114729
-0.00235858
0.00146005
-0.00316525
0.00163376
-0.0035417
0.00169415
-0.00354025
0.0016734
-0.00324761
0.00160415
-0.00275887
0.00152387
-0.00216767
0.00146574
-0.00155709
0.00145459
-0.0010079
0.0014837
-0.000602995
0.00145098
-0.000408285
0.00132659
-0.000368894
0.0011479
-0.000366079
0.000982019
-0.000343394
0.000847399
-0.000305573
0.000752309
-0.000261374
0.000707785
-0.000213069
0.000718049
-0.000173209
0.000759147
-0.000161872
0.00081782
-0.000169088
0.000889107
-0.000172092
0.000968364
-0.000148505
0.00104641
-7.56547e-05
0.00110502
6.25721e-05
0.00113467
0.000257454
0.00114421
0.000497697
0.00117723
0.000803365
0.00128007
0.00116217
0.00146691
0.00163135
0.00191086
0.00189595
0.00216567
0.00122888
0.00177799
0.000851165
0.000435932
-0.000717378
0.0116847
-0.00060351
0.00443156
0.000472578
0.00152042
0.00115029
0.00126081
0.00172496
0.000714153
0.00237104
-0.000374225
0.00292511
-0.0016914
0.00323085
-0.00266433
0.00328248
-0.00321688
0.00312588
-0.0033851
0.00282523
-0.0032396
0.00244462
-0.002867
0.00203903
-0.00235327
0.0016568
-0.00178544
0.00133072
-0.00123101
0.00108069
-0.000757876
0.000903606
-0.000425907
0.00075276
-0.000257438
0.000592655
-0.000208788
0.000430565
-0.000203988
0.000289202
-0.00020203
0.000179926
-0.000196297
0.000107522
-0.000188969
7.67525e-05
-0.000182298
8.65569e-05
-0.000183012
0.000123752
-0.000199066
0.000178008
-0.000223343
0.000247513
-0.000241595
0.000336551
-0.000237543
0.000451665
-0.000190767
0.000587309
-7.30708e-05
0.000728306
0.000116459
0.000880229
0.000345775
0.00108259
0.000601002
0.00138331
0.000861454
0.00184752
0.00116715
0.00252126
0.0012222
0.00304265
0.000707496
0.00306118
0.000832635
0.00356024
0.00260357
0.00959498
0.00328105
0.00375408
0.00344516
0.00135631
0.00389776
0.000808213
0.00458926
2.26551e-05
0.00528194
-0.0010669
0.00556416
-0.00197362
0.00543939
-0.00253956
0.00499553
-0.00277302
0.00433741
-0.00272698
0.00356747
-0.00246966
0.00277212
-0.00207166
0.00201195
-0.0015931
0.0013419
-0.00111539
0.000788979
-0.000678092
0.000374957
-0.000343853
9.8656e-05
-0.000149605
-8.56107e-05
-7.31698e-05
-0.00022716
-6.72383e-05
-0.000346808
-8.43384e-05
-0.000446002
-0.000102835
-0.000522465
-0.000119832
-0.000574852
-0.000136581
-0.000602564
-0.000154584
-0.000608608
-0.000176967
-0.000601788
-0.000205885
-0.000588289
-0.000236841
-0.000567968
-0.000261915
-0.000533627
-0.000271882
-0.000468228
-0.000256165
-0.000340428
-0.00020087
-0.000145719
-7.82489e-05
9.39226e-05
0.000106135
0.000386037
0.000308888
0.000748536
0.000498957
0.00122661
0.000689073
0.00173166
0.000717153
0.00187249
0.000566676
0.000930967
0.00177415
0.00475218
0.010159
0.0139059
0.0122321
0.00303014
0.0113318
0.00170843
0.0105973
0.000757225
0.00970534
-0.000174969
0.0085567
-0.000824973
0.00725853
-0.00124139
0.00590508
-0.00141957
0.00456546
-0.00138736
0.00330286
-0.00120706
0.00216735
-0.000936149
0.00117035
-0.000596093
0.000353156
-0.000298196
-0.000250284
-7.46509e-05
-0.000626855
3.27195e-05
-0.00083111
5.46513e-05
-0.000946646
4.23679e-05
-0.00103032
1.64321e-05
-0.00110408
-1.05715e-05
-0.00117169
-3.52284e-05
-0.00123255
-5.89648e-05
-0.00128641
-8.27176e-05
-0.00133469
-0.000106307
-0.00138167
-0.000129992
-0.00143468
-0.000152871
-0.00150103
-0.000170491
-0.00158765
-0.000175291
-0.00170265
-0.000156878
-0.00185651
-0.000102309
-0.00205851
1.13834e-06
-0.00229953
0.000162767
-0.002589
0.000395614
-0.00299724
0.000717123
-0.00362768
0.0011294
-0.00455339
0.00161478
-0.00590136
0.00206513
-0.00761108
0.00227639
-0.00743649
0.00159957
-0.00239544
0.00510239
0.00455645
0.00409622
0.0027146
0.00449539
0.000358056
0.00453484
-0.000214414
0.00412617
-0.000416306
0.00344082
-0.000556034
0.00259233
-0.000571078
0.00167321
-0.000468234
0.000757216
-0.000291065
-0.000101271
-7.76609e-05
-0.000797971
0.000100608
-0.00125414
0.000157979
-0.0015003
0.000171501
-0.0016203
0.000152723
-0.00168646
0.000120815
-0.00173276
8.8666e-05
-0.00177541
5.90859e-05
-0.00181987
3.38877e-05
-0.00186826
1.31655e-05
-0.00192249
-4.73296e-06
-0.00198297
-2.22335e-05
-0.00205012
-3.91601e-05
-0.00212606
-5.40542e-05
-0.00221308
-6.58437e-05
-0.00231239
-7.11815e-05
-0.00242333
-6.43445e-05
-0.00254234
-3.78696e-05
-0.00266209
1.74406e-05
-0.00277078
0.000109833
-0.00286321
0.000255199
-0.00294455
0.000476957
-0.00301646
0.000789034
-0.00307465
0.00118759
-0.00307987
0.00162
-0.00296254
0.0019478
-0.00227437
0.00158822
-0.000585433
-8.93673e-05
-0.00290266
-0.000438968
0.00505199
0.000856505
0.00141912
0.000820402
0.00039416
0.000546347
5.96417e-05
0.00016676
-3.67176e-05
-0.000356557
-3.27165e-05
-0.000945098
1.74639e-05
-0.00149396
8.0633e-05
-0.00192329
0.000138258
-0.0021832
0.00018225
-0.00228521
0.000202624
-0.00231762
0.00019039
-0.00231197
0.000165849
-0.00229732
0.000138082
-0.00228957
0.000113061
-0.00229293
9.20288e-05
-0.0023074
7.35555e-05
-0.00233045
5.69413e-05
-0.00235913
4.18494e-05
-0.00239197
2.8105e-05
-0.00242998
1.57714e-05
-0.00247318
4.04786e-06
-0.0025211
-6.13728e-06
-0.002573
-1.39383e-05
-0.00262635
-1.78298e-05
-0.00267569
-1.50075e-05
-0.00271187
-1.69029e-06
-0.002724
2.95714e-05
-0.00270123
8.70649e-05
-0.00262357
0.000177547
-0.00246067
0.000314053
-0.00218409
0.00051246
-0.00177311
0.000776613
-0.00118451
0.0010314
-0.000119676
0.000882965
0.00176539
-0.00029684
0.00337639
-0.00170037
0.000559248
-0.0079363
-0.01079
-0.00569385
-0.00425183
-0.00384357
-0.00377469
-0.00380527
-0.00383413
-0.00381453
-0.00373306
-0.00359505
-0.00341398
-0.00321336
-0.00302566
-0.00286308
-0.00272872
-0.00261976
-0.00253212
-0.00246319
-0.00241103
-0.00237406
-0.00235089
-0.00234007
-0.00234095
-0.00235195
-0.00237069
-0.00239321
-0.00241281
-0.00241895
-0.00239369
-0.00231078
-0.00213722
-0.00182701
-0.00131825
-0.000545217
0.000482668
0.00136199
0.00106103
-0.000644824
)
;

boundaryField
{
    floor
    {
        type            calculated;
        value           nonuniform List<scalar> 
29
(
0
0
0
0
0
0
0
0
0
0
0
0
0
0
0
0
0
0
0
0
-4.02331e-06
-1.02231e-05
-1.54458e-05
-2.01128e-05
-1.66874e-06
-2.99701e-06
-8.73792e-06
-9.58837e-06
-8.40694e-06
)
;
    }
    ceiling
    {
        type            calculated;
        value           nonuniform List<scalar> 
43
(
-4.66602e-05
-4.53852e-05
-4.41151e-05
-2.28939e-05
-1.41044e-05
-9.23419e-06
-6.13715e-06
-3.85014e-06
-2.13707e-06
-8.36358e-07
2.47667e-07
1.1829e-06
1.99843e-06
2.69622e-06
3.26845e-06
3.72784e-06
4.09748e-06
4.3933e-06
4.62108e-06
4.78318e-06
4.88541e-06
4.9371e-06
4.94778e-06
4.92474e-06
4.87185e-06
4.79565e-06
4.70018e-06
4.58699e-06
4.45679e-06
4.30875e-06
4.15223e-06
3.99439e-06
3.84116e-06
3.70024e-06
3.58439e-06
3.51853e-06
3.64044e-06
4.12561e-06
5.48197e-06
6.43072e-06
1.02312e-05
7.19084e-06
-5.65777e-05
)
;
    }
    sWall
    {
        type            calculated;
        value           uniform -0.000271669;
    }
    nWall
    {
        type            calculated;
        value           nonuniform List<scalar> 6(-4.86375e-05 -5.81847e-05 -6.31241e-05 -7.82135e-05 -8.55107e-05 -9.20055e-05);
    }
    sideWalls
    {
        type            empty;
        value           nonuniform 0();
    }
    glass1
    {
        type            calculated;
        value           nonuniform List<scalar> 9(-5.7348e-05 -0.000154542 -0.000236449 -0.000306184 -0.000365386 -0.000415281 -0.000459879 -0.000513845 -0.000574243);
    }
    glass2
    {
        type            calculated;
        value           nonuniform List<scalar> 2(-0.000260971 -0.000288869);
    }
    sun
    {
        type            calculated;
        value           uniform 0;
    }
    heatsource1
    {
        type            calculated;
        value           nonuniform List<scalar> 3(2.04209e-07 2.04143e-07 2.04161e-07);
    }
    heatsource2
    {
        type            calculated;
        value           nonuniform List<scalar> 4(5.1195e-08 5.12798e-08 0 0);
    }
    Table_master
    {
        type            calculated;
        value           nonuniform List<scalar> 9(-1.53162e-07 -1.53252e-07 -1.53284e-07 -1.53306e-07 -1.53322e-07 -1.53332e-07 -1.53338e-07 -1.53334e-07 -1.53306e-07);
    }
    Table_slave
    {
        type            calculated;
        value           nonuniform List<scalar> 9(1.53044e-07 1.53065e-07 1.53047e-07 1.53031e-07 1.53025e-07 1.53028e-07 1.53041e-07 1.53081e-07 1.53159e-07);
    }
    inlet
    {
        type            calculated;
        value           uniform -0.00662869;
    }
    outlet
    {
        type            calculated;
        value           nonuniform List<scalar> 2(0.00825463 0.00289904);
    }
}


// ************************************************************************* //
