/*--------------------------------*- C++ -*----------------------------------*\
  =========                 |
  \\      /  F ield         | OpenFOAM: The Open Source CFD Toolbox
   \\    /   O peration     | Website:  https://openfoam.org
    \\  /    A nd           | Version:  6
     \\/     M anipulation  |
\*---------------------------------------------------------------------------*/
FoamFile
{
    version     2.0;
    format      ascii;
    class       surfaceScalarField;
    location    "200";
    object      phi;
}
// * * * * * * * * * * * * * * * * * * * * * * * * * * * * * * * * * * * * * //

dimensions      [1 0 -1 0 0 0 0];

internalField   nonuniform List<scalar> 
852
(
-0.0030791
0.00313322
-0.00432398
0.00124477
-0.00519489
0.0008708
-0.00577079
0.000575793
-0.0060137
0.000242803
-0.00588726
-0.000126546
-0.00536668
-0.000520683
-0.00449187
-0.000874919
-0.00337864
-0.00111333
-0.00217375
-0.001205
-0.00102177
-0.00115208
-5.6587e-05
-0.00096528
0.000504624
-0.000561299
0.000596522
-9.19921e-05
0.000597904
-0.000776344
0.000778604
-0.000994379
0.000218019
-0.000816216
-0.000178185
-0.000497051
-0.000319191
-0.00020514
-0.000291935
1.00566e-05
-0.00021521
0.000110649
-0.000100581
0.000120994
-1.03017e-05
0.00010435
1.67026e-05
8.56579e-05
1.87525e-05
6.67454e-05
1.89697e-05
4.49419e-05
2.1857e-05
1.89651e-05
2.60282e-05
-9.01982e-06
2.80347e-05
-2.8729e-05
1.97598e-05
1.14837e-05
-4.01405e-05
0.000226457
-0.000214888
0.000485384
-0.000258872
0.000488385
-0.00220957
0.00549011
-0.00334884
0.00238393
-0.00421883
0.00174068
-0.00479255
0.00114941
-0.00504376
0.000493902
-0.00493407
-0.000236342
-0.00444973
-0.00100514
-0.00365452
-0.00167024
-0.00268435
-0.0020836
-0.00167888
-0.00221057
-0.000761042
-0.00207001
-2.53429e-05
-0.00170107
0.000513228
-0.00109996
0.000844622
-0.000423474
0.00122678
0.000215656
0.000721829
0.000504813
0.000721688
-0.000348575
0.00113379
-0.000188465
5.78943e-05
0.000154292
-0.000520969
0.000382093
-0.000547027
0.000537057
-0.000446937
0.000649295
-0.000327485
0.00070259
-0.000153907
0.000741906
-4.96388e-05
0.00076871
-1.01118e-05
0.000781039
6.42043e-06
0.000784375
1.56359e-05
0.000783474
2.27669e-05
0.00077967
2.9845e-05
0.000767598
4.01262e-05
0.000698008
8.93763e-05
0.000398888
0.00025901
-0.000220415
0.000404417
-0.000642767
0.000163516
-0.00014614
-0.00154179
0.00725897
-0.00247821
0.00332023
-0.00324078
0.00250314
-0.00373757
0.00164609
-0.00395276
0.000708975
-0.00381943
-0.000369779
-0.00332316
-0.00150152
-0.00257069
-0.00242282
-0.00172523
-0.00292917
-0.00090305
-0.00303285
-0.000190145
-0.00278301
0.000368464
-0.00225977
0.000805998
-0.00153757
0.0011325
-0.000750055
0.00133833
9.73807e-06
0.00113549
0.000707572
0.0018571
0.001034
0.000109816
0.00137857
-0.000286694
0.00135736
-0.000499791
0.00135797
-0.00054768
0.00136652
-0.000455533
0.00134624
-0.000307245
0.00119244
0.00114291
0.00113292
0.00113946
0.00115523
0.00117813
0.00120811
0.00124838
0.0013379
0.00113186
0.000465046
0.000926202
0.000610054
0.000567005
0.000522706
0.000431543
-0.00105855
0.00861346
-0.00175451
0.00401608
-0.00225938
0.00300789
-0.00258025
0.00196685
-0.00267482
0.000803433
-0.0024266
-0.000618112
-0.0018766
-0.00205163
-0.00118551
-0.00311402
-0.000508158
-0.00360663
8.91359e-05
-0.00363024
0.000569148
-0.00326311
0.000941503
-0.00263221
0.00124926
-0.00184541
0.0015136
-0.00101447
0.00175153
-0.000228274
0.00202284
0.000436184
0.00298293
0.000896935
0.00257419
0.000415341
0.00257235
0.000111586
0.00245796
-0.000172369
0.00228929
-0.000331183
0.00212504
-0.000383489
0.00201149
-0.000342032
0.00194567
-0.000241476
0.00204573
-0.000100267
0.00209454
-4.90112e-05
0.00212325
-2.89078e-05
0.00214095
-1.78924e-05
0.00214596
-5.20558e-06
0.00212761
1.81607e-05
0.00206329
6.41226e-05
0.00191285
0.000150251
0.00160966
0.000303003
0.00148347
0.000591192
0.00122049
0.000873
0.000678447
0.00106475
0.00112397
-0.000720687
0.00968917
-0.00120432
0.00449961
-0.00131352
0.00311697
-0.00135896
0.00201218
-0.00118266
0.000627031
-0.000693784
-0.00110711
-8.88429e-05
-0.00265669
0.000454725
-0.00365769
0.000880903
-0.00403291
0.00118368
-0.00393311
0.00139231
-0.00347183
0.00153495
-0.00277493
0.00164673
-0.00195726
0.00176259
-0.00113041
0.00192162
-0.000387383
0.00215917
0.000198567
0.00250961
0.00054642
0.00250879
0.000416078
0.00246615
0.000154157
0.0023367
-4.29951e-05
0.00216475
-0.000159295
0.00198574
-0.000204545
0.0018319
-0.000188249
0.00171983
-0.000129457
0.00167589
-5.63775e-05
0.0016414
-1.45624e-05
0.001614
-1.55091e-06
0.00159885
-2.7789e-06
0.00159798
-4.37091e-06
0.00160612
9.98309e-06
0.00160999
6.02281e-05
0.001593
0.000167211
0.00155082
0.000345152
0.00153352
0.000608461
0.00151059
0.000895911
0.00139792
0.00117742
0.00137205
0.00114991
0.000328862
0.00104307
-0.000795362
0.00112422
-0.00075225
-0.000601442
0.0106956
-0.000883927
0.00478198
-0.000435654
0.00266859
-1.22894e-05
0.00158871
0.000629513
-1.4878e-05
0.00137693
-0.00185463
0.00191253
-0.00319239
0.00220135
-0.00394662
0.00231254
-0.0041442
0.00228108
-0.00390174
0.00215886
-0.0033497
0.00199861
-0.00261476
0.00184548
-0.00180421
0.00173862
-0.00102363
0.00170692
-0.000355756
0.00175872
0.000146692
0.00188034
0.000424723
0.00190229
0.000394059
0.00182147
0.000234896
0.00168858
8.98167e-05
0.00153324
-4.0175e-06
0.00137385
-4.52196e-05
0.00122967
-4.4132e-05
0.00111401
-1.38549e-05
0.0010347
2.2886e-05
0.000981578
3.85169e-05
0.000950681
2.93091e-05
0.000942975
4.89545e-06
0.000962307
-2.3726e-05
0.00101306
-4.07862e-05
0.00109256
-1.92891e-05
0.00119133
6.84188e-05
0.00130698
0.000229469
0.00146716
0.000448246
0.00168581
0.000677233
0.00197701
0.000886193
0.00222737
0.000899547
0.00241667
0.000853738
0.00235622
0.00118472
0.001656
-0.000607865
0.0117538
-0.000372218
0.00454622
0.000910378
0.00138588
0.00202939
0.000469583
0.00304481
-0.0010304
0.00371341
-0.00252334
0.00400647
-0.00348555
0.00395332
-0.00389356
0.00364726
-0.00383823
0.00318237
-0.00343693
0.00265011
-0.00281751
0.00212959
-0.00209431
0.00167176
-0.00134646
0.00131933
-0.000671269
0.00108815
-0.000124653
0.000988988
0.000245774
0.000993317
0.000420312
0.000982949
0.000404343
0.000916278
0.000301485
0.000811259
0.000194757
0.000688852
0.000118315
0.00056464
7.89222e-05
0.000449709
7.07362e-05
0.000356036
7.97621e-05
0.000289537
8.93394e-05
0.000244338
8.36787e-05
0.000215765
5.78521e-05
0.000205064
1.55727e-05
0.000218571
-3.72504e-05
0.000268176
-9.04075e-05
0.000371896
-0.000123029
0.000541148
-0.000100862
0.000760457
1.01199e-05
0.00103307
0.000175582
0.00136884
0.00034142
0.00179513
0.000459862
0.00229504
0.000399581
0.00277849
0.000370237
0.00249906
0.00146413
0.0042063
0.00283015
0.00942751
0.00366078
0.00371548
0.0042335
0.000813055
0.00535912
-0.000656144
0.00619436
-0.00186575
0.0064154
-0.00274448
0.0061151
-0.00318534
0.00543603
-0.00321457
0.00452862
-0.0029309
0.00352231
-0.00243068
0.00253425
-0.00182953
0.00165881
-0.00121894
0.000932707
-0.000620424
0.000398892
-0.000137532
8.82387e-05
0.000185919
-2.22746e-05
0.000356198
-2.17096e-05
0.000419653
-1.32648e-05
0.000395806
-3.86503e-05
0.000326781
-9.72355e-05
0.000253258
-0.00017579
0.000196792
-0.000260394
0.000163456
-0.000340077
0.000150358
-0.000409407
0.000149039
-0.00046894
0.00014883
-0.000524267
0.000138972
-0.000579091
0.00011265
-0.000631231
6.7688e-05
-0.000676835
8.32012e-06
-0.000709098
-5.8184e-05
-0.00071218
-0.000119999
-0.000660949
-0.000152155
-0.000527954
-0.00012294
-0.0003483
-4.1361e-06
-0.000182171
0.000175235
-7.91585e-05
0.000356803
-0.000142518
0.000462914
-0.000451733
0.000679441
-0.00091378
0.00192616
0.00353473
0.00997847
0.0136849
0.0122989
0.00219902
0.0114608
0.000181773
0.0103833
-0.000788316
0.00901517
-0.00137641
0.00742705
-0.00159728
0.00576002
-0.00154759
0.00413945
-0.00131037
0.00263741
-0.000928707
0.00133062
-0.000522812
0.000270527
-0.000158924
-0.000473437
0.000123461
-0.000874613
0.000263552
-0.00102142
0.000332623
-0.00103763
0.000372307
-0.00100014
0.000382061
-0.000962326
0.000357886
-0.000948864
0.000313222
-0.000961959
0.000266263
-0.000994186
0.000228937
-0.001037
0.000206201
-0.00108488
0.000198164
-0.00113776
0.000201869
-0.00120187
0.000212893
-0.00128908
0.000226151
-0.00141281
0.000236352
-0.00158241
0.000237248
-0.00179798
0.000223816
-0.00205631
0.000200035
-0.00236048
0.000184019
-0.00271597
0.000203175
-0.00312578
0.00028671
-0.00358697
0.000456896
-0.00413693
0.000725057
-0.00487063
0.00109037
-0.00593761
0.00152977
-0.00720893
0.00195064
-0.00679968
0.00151678
-0.00301877
0.00489038
0.00403922
0.00352039
0.00155178
0.0036125
-0.000880396
0.00328519
-0.0010491
0.00247457
-0.000786671
0.00145133
-0.000524391
0.000375399
-0.000234496
-0.000606121
5.27542e-05
-0.0013403
0.000211286
-0.00177825
0.00027893
-0.00196801
0.000313115
-0.00202359
0.000319022
-0.00200764
0.00031655
-0.00194995
0.000314507
-0.0018766
0.000308602
-0.00181118
0.000292353
-0.00176583
0.000267763
-0.00174134
0.000241679
-0.00173274
0.000220248
-0.0017339
0.000207284
-0.00174019
0.000204384
-0.00174974
0.000211349
-0.00176352
0.000226627
-0.00178482
0.000247406
-0.00181796
0.000269455
-0.00186793
0.000287158
-0.00194039
0.000296197
-0.00203959
0.000299123
-0.00216436
0.000308632
-0.00230632
0.000344954
-0.00244997
0.00043016
-0.00257293
0.000579659
-0.0026476
0.000799529
-0.00264601
0.0010886
-0.0024523
0.00133587
-0.00165958
0.00115772
-0.000191851
4.88191e-05
-0.0031523
2.53789e-05
0.0040848
0.000913543
0.00066368
2.69555e-05
6.27344e-06
-0.000971056
-5.10417e-05
-0.00178832
3.05651e-05
-0.00243229
0.000119517
-0.00286413
0.000197265
-0.00306493
0.000253448
-0.0031245
0.000270751
-0.00310602
0.000260332
-0.00303348
0.000240453
-0.00293438
0.000219795
-0.00282311
0.000205154
-0.00270629
0.000197567
-0.00259103
0.000193214
-0.00248631
0.000187523
-0.00239805
0.000179386
-0.00232685
0.000170379
-0.00226939
0.000162688
-0.00222034
0.000158137
-0.00217391
0.000157874
-0.00212491
0.000162272
-0.00206932
0.000170969
-0.0020049
0.000182919
-0.00193188
0.00019638
-0.00185378
0.000208989
-0.00177657
0.000218911
-0.0017048
0.000227256
-0.0016361
0.000239801
-0.00155759
0.000266288
-0.00144434
0.00031672
-0.00125658
0.000391687
-0.000939039
0.000481772
-0.000377203
0.000526536
0.000583007
0.000375421
0.00192143
-0.000180977
0.00322698
-0.00125698
0.000137788
-0.00720772
-0.0100503
-0.00592561
-0.00525067
-0.00524307
-0.00529709
-0.00527235
-0.00516084
-0.00497352
-0.00473179
-0.00447433
-0.00422861
-0.0040038
-0.00380046
-0.00361239
-0.00343247
-0.00325743
-0.00308861
-0.00292846
-0.00277785
-0.00263544
-0.00249803
-0.00236127
-0.00222044
-0.00207118
-0.00191014
-0.00173574
-0.00154877
-0.00135181
-0.00114637
-0.000928156
-0.000683156
-0.000387344
-1.61413e-05
0.000445601
0.000952188
0.00130686
0.00110295
-0.000178984
)
;

boundaryField
{
    floor
    {
        type            calculated;
        value           nonuniform List<scalar> 
29
(
0
0
0
0
0
0
0
0
0
0
0
0
0
0
0
0
0
0
0
0
-2.92035e-06
-8.12471e-06
-1.05994e-05
-1.38428e-05
-1.48332e-06
-2.27086e-06
-6.62031e-06
-1.00356e-05
-6.68187e-06
)
;
    }
    ceiling
    {
        type            calculated;
        value           nonuniform List<scalar> 
43
(
-4.21278e-05
-4.11433e-05
-4.00279e-05
-1.13645e-05
-1.42573e-06
2.88876e-06
5.71762e-06
7.88942e-06
9.82908e-06
1.15948e-05
1.316e-05
1.44755e-05
1.55124e-05
1.6315e-05
1.69579e-05
1.75141e-05
1.80422e-05
1.85758e-05
1.91185e-05
1.96536e-05
2.0159e-05
2.06162e-05
2.10136e-05
2.1345e-05
2.16066e-05
2.17944e-05
2.19038e-05
2.19306e-05
2.18725e-05
2.1728e-05
2.14958e-05
2.1175e-05
2.07742e-05
2.03229e-05
1.98393e-05
1.9741e-05
2.05219e-05
2.27316e-05
2.47531e-05
2.37467e-05
1.20902e-05
8.92e-06
-7.09568e-05
)
;
    }
    sWall
    {
        type            calculated;
        value           uniform -0.000276169;
    }
    nWall
    {
        type            calculated;
        value           nonuniform List<scalar> 6(-4.31467e-05 -5.19909e-05 -5.1207e-05 -5.85427e-05 -6.33579e-05 -6.50705e-05);
    }
    sideWalls
    {
        type            empty;
        value           nonuniform 0();
    }
    glass1
    {
        type            calculated;
        value           nonuniform List<scalar> 9(-5.42279e-05 -0.000147434 -0.000227178 -0.000296053 -0.000355127 -0.000405132 -0.000450394 -0.000503968 -0.000563155);
    }
    glass2
    {
        type            calculated;
        value           nonuniform List<scalar> 2(-0.00024214 -0.000246327);
    }
    sun
    {
        type            calculated;
        value           uniform 0;
    }
    heatsource1
    {
        type            calculated;
        value           nonuniform List<scalar> 3(2.03691e-07 2.03797e-07 2.03889e-07);
    }
    heatsource2
    {
        type            calculated;
        value           nonuniform List<scalar> 4(5.0953e-08 5.10561e-08 0 0);
    }
    Table_master
    {
        type            calculated;
        value           nonuniform List<scalar> 9(-1.52757e-07 -1.52845e-07 -1.52865e-07 -1.5287e-07 -1.52869e-07 -1.52866e-07 -1.52863e-07 -1.52857e-07 -1.52837e-07);
    }
    Table_slave
    {
        type            calculated;
        value           nonuniform List<scalar> 9(1.52421e-07 1.52442e-07 1.52425e-07 1.5241e-07 1.52401e-07 1.52395e-07 1.52397e-07 1.52418e-07 1.52472e-07);
    }
    inlet
    {
        type            calculated;
        value           uniform -0.00673058;
    }
    outlet
    {
        type            calculated;
        value           nonuniform List<scalar> 2(0.00752593 0.00288369);
    }
}


// ************************************************************************* //
