/*--------------------------------*- C++ -*----------------------------------*\
  =========                 |
  \\      /  F ield         | OpenFOAM: The Open Source CFD Toolbox
   \\    /   O peration     | Website:  https://openfoam.org
    \\  /    A nd           | Version:  6
     \\/     M anipulation  |
\*---------------------------------------------------------------------------*/
FoamFile
{
    version     2.0;
    format      ascii;
    class       surfaceScalarField;
    location    "400";
    object      phi;
}
// * * * * * * * * * * * * * * * * * * * * * * * * * * * * * * * * * * * * * //

dimensions      [1 0 -1 0 0 0 0];

internalField   nonuniform List<scalar> 
852
(
-0.00312484
0.00317855
-0.00442091
0.00129593
-0.00528507
0.000864011
-0.00579751
0.000512305
-0.00591514
0.000117495
-0.00559407
-0.000321209
-0.00482646
-0.000767741
-0.0036998
-0.00112678
-0.00237499
-0.00132494
-0.00103171
-0.00134341
0.000152523
-0.00118436
0.000933728
-0.000781332
0.00128259
-0.000348994
0.00108382
0.000198636
0.00108514
-0.000804622
0.000806527
-0.00106305
0.000258378
-0.000917025
-0.000146082
-0.000572425
-0.000344665
-0.00020198
-0.000370511
0.000130305
-0.000332345
0.000324249
-0.000193985
0.000374405
-5.01572e-05
0.000359964
1.44811e-05
0.000325524
3.44997e-05
0.000283847
4.17387e-05
0.000236055
4.78498e-05
0.000182012
5.40986e-05
0.000126247
5.58208e-05
8.3364e-05
4.29411e-05
0.000103061
-1.96346e-05
0.000267049
-0.000163933
0.000449325
-0.000182212
0.000452045
-0.00224451
0.00556961
-0.00341757
0.00246884
-0.00427944
0.00172574
-0.00479699
0.00102972
-0.00493059
0.000250957
-0.00463646
-0.000615483
-0.00392977
-0.00147456
-0.00293382
-0.00212287
-0.00182188
-0.00243701
-0.000756547
-0.00240886
0.000131303
-0.00207233
0.000811933
-0.00146208
0.0012323
-0.00076948
0.00146371
-3.28965e-05
0.00188745
0.000661255
0.00102285
0.000864423
0.00102266
-0.000356219
0.00116846
-0.000254038
0.000156148
6.09086e-05
-0.000461097
0.000324449
-0.000608282
0.000524079
-0.00057022
0.000663322
-0.000471664
0.000716285
-0.000247017
0.000756553
-9.04806e-05
0.000794212
-2.32194e-05
0.00081888
9.80352e-06
0.000831853
2.87467e-05
0.00083829
4.14006e-05
0.000841067
5.13149e-05
0.000834209
6.26782e-05
0.000759494
0.000117663
0.000425135
0.000314735
-0.000195256
0.000456493
-0.000591336
0.000213923
-0.000132134
-0.0015679
0.00736374
-0.00252751
0.00342831
-0.00328636
0.00248443
-0.00373842
0.00148164
-0.00384457
0.00035696
-0.00352701
-0.000933182
-0.00283033
-0.00217137
-0.00193467
-0.00301866
-0.0010117
-0.0033601
-0.000184773
-0.0032359
0.000478193
-0.00273541
0.000998387
-0.00198239
0.00137074
-0.00114194
0.00162939
-0.000291665
0.00176892
0.000521596
0.00140808
0.00122513
0.00243061
0.000793475
0.000383984
0.00116574
-0.00021618
0.00125119
-0.000546634
0.00131082
-0.000667996
0.00135227
-0.000611761
0.00135933
-0.000478813
0.00111239
0.00102199
0.000998854
0.00100875
0.0010376
0.00107911
0.00113054
0.00119334
0.00131112
0.00112964
0.000496195
0.000935537
0.000650579
0.000542336
0.000607112
0.000419755
-0.00107546
0.00873445
-0.00178435
0.00413705
-0.00229505
0.00299498
-0.00258732
0.00177376
-0.0025649
0.000334403
-0.00213312
-0.00136511
-0.00143144
-0.00287317
-0.000673701
-0.00377653
1.65948e-05
-0.00405051
0.000578339
-0.00379777
0.0010124
-0.00316958
0.00135343
-0.00232354
0.00161331
-0.00140194
0.00182231
-0.000500771
0.00201925
0.000324533
0.00226767
0.000976601
0.00329741
0.00140073
0.00257989
0.000724184
0.00264892
0.000314837
0.00252991
-9.7288e-05
0.00235574
-0.000372572
0.00218326
-0.000495621
0.00205155
-0.000480149
0.00194019
-0.000367542
0.00210173
-0.000161786
0.00217356
-7.20619e-05
0.00220626
-3.29332e-05
0.00221382
-7.77811e-06
0.00219804
1.55562e-05
0.00215475
4.30761e-05
0.002069
8.55374e-05
0.00190732
0.00016148
0.00160685
0.000300264
0.0015173
0.000585698
0.00131501
0.00085283
0.000890402
0.00103168
0.00132263
-0.000728424
0.00981754
-0.00121472
0.00462319
-0.00133241
0.00311253
-0.00136979
0.00181098
-0.00102365
-1.18906e-05
-0.000380239
-0.00200866
0.000264932
-0.00351847
0.000790733
-0.00430245
0.00116924
-0.00442913
0.00142729
-0.00405593
0.00159666
-0.00333907
0.00170598
-0.00243297
0.00178606
-0.00148213
0.00187922
-0.00059404
0.00203693
0.000166709
0.00228832
0.000725098
0.00267288
0.00101606
0.00265762
0.000739319
0.00264233
0.000330005
0.00252916
1.57654e-05
0.0023482
-0.000191723
0.0021452
-0.000292723
0.00196088
-0.000295933
0.00181917
-0.000225921
0.00177237
-0.000115065
0.00173438
-3.41455e-05
0.00169233
9.03815e-06
0.00165308
3.14128e-05
0.00162217
4.6409e-05
0.0015986
6.65954e-05
0.00157595
0.000108137
0.00154571
0.000191672
0.00150843
0.000337505
0.00152092
0.000573154
0.00153736
0.000836345
0.00148056
0.00108843
0.00169093
0.00111224
0.000816729
0.000874007
-0.000483266
0.00129991
-0.000440882
-0.000595601
0.0108183
-0.000856381
0.00488382
-0.000369042
0.00262503
0.000207708
0.00123408
0.0009816
-0.000785931
0.00167231
-0.00269951
0.00211721
-0.00396349
0.0023295
-0.00451486
0.00235812
-0.00445786
0.00225588
-0.0039538
0.00208393
-0.00316723
0.00189318
-0.00224233
0.00172874
-0.0013178
0.00163095
-0.000496359
0.00163194
0.000165601
0.00174079
0.000616133
0.00194486
0.000811871
0.00203482
0.000649237
0.0019968
0.000367907
0.00188507
0.00012738
0.00172816
-3.49176e-05
0.00155067
-0.000115334
0.00138057
-0.00012593
0.00123922
-8.46496e-05
0.00114118
-1.71065e-05
0.00107092
3.60387e-05
0.00102015
5.97447e-05
0.000989332
6.21767e-05
0.000980743
5.49472e-05
0.000997425
4.98678e-05
0.00104168
6.384e-05
0.00111515
0.000118155
0.00122306
0.000229554
0.00139014
0.000406025
0.00162333
0.000603101
0.00193072
0.000781
0.00222631
0.000816606
0.00233147
0.000768789
0.0023558
0.00127557
0.0019638
-0.000559553
0.0118292
-0.000282011
0.00460613
0.00105237
0.0012905
0.00226032
2.59808e-05
0.00329518
-0.00182093
0.0038856
-0.00329006
0.00403613
-0.00411414
0.00383785
-0.00431668
0.00340344
-0.00402355
0.00284404
-0.0033945
0.00226061
-0.00258391
0.00172198
-0.00170381
0.0012867
-0.000882636
0.000986027
-0.000195802
0.0008543
0.000297212
0.000887553
0.000582761
0.00101735
0.00068195
0.00109393
0.000572545
0.00107777
0.000383951
0.000995774
0.000209263
0.000874796
8.59536e-05
0.000735819
2.35433e-05
0.000595702
1.40934e-05
0.000472928
3.804e-05
0.000382404
7.33408e-05
0.000321901
9.64748e-05
0.000282357
9.92302e-05
0.000261694
8.27877e-05
0.00026487
5.17245e-05
0.000300167
1.45269e-05
0.000377608
-1.36447e-05
0.000504133
-8.42006e-06
0.000685205
4.84249e-05
0.00093241
0.000158758
0.00124743
0.000288015
0.00165223
0.000376138
0.0021471
0.000321665
0.00256228
0.000353544
0.00228342
0.00155439
0.00429623
0.00293404
0.00940051
0.00382986
0.00371017
0.004536
0.000584212
0.00574063
-0.00117879
0.00638699
-0.00246742
0.00638787
-0.00329103
0.0058672
-0.00359356
0.00499525
-0.00344482
0.00393542
-0.0029638
0.00283557
-0.00229476
0.00182576
-0.00157421
0.000967506
-0.000845672
0.000325772
-0.000241022
-4.68791e-05
0.00017673
-0.000164792
0.000415003
-0.000117665
0.00053551
-1.57409e-06
0.000565736
7.91175e-05
0.000491733
9.11317e-05
0.000371822
4.3355e-05
0.000256932
-4.36218e-05
0.00017283
-0.000147001
0.000126828
-0.00024696
0.000113965
-0.000331399
0.000122398
-0.000396485
0.000138353
-0.000448389
0.000148314
-0.00049428
0.000145064
-0.000536523
0.000124978
-0.000571517
8.66657e-05
-0.000591739
3.46894e-05
-0.000588913
-1.65387e-05
-0.000551872
-4.5537e-05
-0.000479704
-2.38285e-05
-0.000391824
7.0787e-05
-0.000335815
0.000231921
-0.000386813
0.000427059
-0.000655187
0.000589977
-0.00120542
0.00090372
-0.0015755
0.00192443
0.00294944
0.00995373
0.0136551
0.0122293
0.0020098
0.011259
-0.000208561
0.00999777
-0.00120628
0.00843982
-0.00173315
0.00668529
-0.00183909
0.0048949
-0.00165452
0.00318505
-0.00125405
0.00165016
-0.000759978
0.000384193
-0.000308377
-0.000520424
5.88174e-05
-0.00101575
0.000254176
-0.00119109
0.000351943
-0.001193
0.00041678
-0.00111108
0.000453464
-0.000998899
0.000453426
-0.000914032
0.000406746
-0.000878413
0.000336089
-0.000888417
0.000266828
-0.000929602
0.000213914
-0.000985527
0.000182656
-0.00104336
0.000171708
-0.00109713
0.000176085
-0.0011485
0.000189646
-0.00120689
0.00020663
-0.00128547
0.000223589
-0.00139852
0.000237962
-0.00155888
0.000246948
-0.00177377
0.000249482
-0.00204282
0.00025237
-0.00236447
0.000275939
-0.00273827
0.000349784
-0.00317107
0.000503389
-0.00369912
0.000759776
-0.00440294
0.00113069
-0.00542404
0.00161089
-0.00658395
0.00206345
-0.00625174
0.00159201
-0.00307827
0.00495931
0.00381204
0.00353971
0.00121105
0.00344695
-0.00111352
0.00288458
-0.00117083
0.00187262
-0.000827206
0.00068944
-0.000471448
-0.000458643
-0.000106087
-0.00136602
0.000147267
-0.00192855
0.000254023
-0.00217975
0.000309882
-0.00224927
0.000323559
-0.00222602
0.00032855
-0.00214542
0.000336044
-0.0020349
0.000342819
-0.00192012
0.000338511
-0.00182888
0.000315392
-0.00177303
0.000280117
-0.00174983
0.000243522
-0.00174959
0.000213562
-0.00176138
0.000194343
-0.00177673
0.000186964
-0.00179127
0.00019053
-0.00180473
0.000203014
-0.00182016
0.000221974
-0.00184179
0.000245138
-0.00187386
0.000269947
-0.00192053
0.000293521
-0.00198592
0.000314751
-0.00207268
0.000338967
-0.00217829
0.000381363
-0.0022926
0.000463873
-0.00239617
0.000606729
-0.00246095
0.000824301
-0.00246268
0.00113218
-0.00229817
0.00144613
-0.00150112
0.00126615
-0.000145484
0.000236084
-0.00317204
0.000132438
0.00375318
0.000774303
0.000569243
-0.000314377
-2.48115e-05
-0.00144003
-4.52456e-05
-0.00232041
5.30671e-05
-0.00294578
0.000153795
-0.00328225
0.000230245
-0.00340055
0.000265425
-0.00340854
0.000261868
-0.00334271
0.000243911
-0.00324098
0.000221678
-0.00311939
0.00020682
-0.00298493
0.000201442
-0.00284412
0.000201875
-0.00270741
0.000201677
-0.00258796
0.000195812
-0.00249295
0.000184984
-0.002422
0.000172446
-0.00236984
0.000161285
-0.00232931
0.000153699
-0.00229342
0.000150959
-0.00225643
0.000153427
-0.00221418
0.000160663
-0.00216402
0.000171706
-0.00210444
0.000185457
-0.00203531
0.000200706
-0.00195818
0.00021627
-0.00187543
0.000231875
-0.00178672
0.000250094
-0.00168362
0.000278089
-0.00154651
0.000326547
-0.00134051
0.000400494
-0.00100446
0.000487996
-0.000415653
0.000543093
0.000575171
0.000455006
0.00184042
5.63665e-07
0.00314091
-0.00106473
2.44976e-05
-0.00704313
-0.00983614
-0.00604667
-0.00547006
-0.00549717
-0.005549
-0.00550535
-0.00536323
-0.0051467
-0.00489679
-0.00465192
-0.00442618
-0.00422354
-0.00403645
-0.00385532
-0.00367431
-0.00349407
-0.00332032
-0.00315804
-0.00300895
-0.00287164
-0.00274248
-0.00261656
-0.00248862
-0.00235382
-0.0022083
-0.00204929
-0.00187524
-0.00168574
-0.00148068
-0.00125736
-0.00100593
-0.000705818
-0.000331486
0.000130616
0.000647764
0.00107592
0.00104691
-4.94415e-05
)
;

boundaryField
{
    floor
    {
        type            calculated;
        value           nonuniform List<scalar> 
29
(
0
0
0
0
0
0
0
0
0
0
0
0
0
0
0
0
0
0
0
0
-2.64353e-06
-7.11485e-06
-9.53713e-06
-1.24719e-05
-1.45108e-06
-1.94723e-06
-5.75323e-06
-9.04192e-06
-6.78847e-06
)
;
    }
    ceiling
    {
        type            calculated;
        value           nonuniform List<scalar> 
43
(
-3.83059e-05
-3.74537e-05
-3.64145e-05
-7.50299e-06
2.17693e-06
6.44092e-06
9.26636e-06
1.15245e-05
1.35635e-05
1.53582e-05
1.68491e-05
1.80099e-05
1.88913e-05
1.95795e-05
2.01637e-05
2.07189e-05
2.12973e-05
2.19193e-05
2.25709e-05
2.32211e-05
2.38396e-05
2.44056e-05
2.49098e-05
2.53518e-05
2.57346e-05
2.60594e-05
2.6323e-05
2.65188e-05
2.66394e-05
2.66787e-05
2.66314e-05
2.64919e-05
2.62597e-05
2.59622e-05
2.56662e-05
2.56871e-05
2.65679e-05
2.93052e-05
3.13555e-05
2.99614e-05
1.17749e-05
8.69972e-06
-7.35771e-05
)
;
    }
    sWall
    {
        type            calculated;
        value           uniform -0.000270497;
    }
    nWall
    {
        type            calculated;
        value           nonuniform List<scalar> 6(-4.24509e-05 -4.889e-05 -4.90155e-05 -5.20199e-05 -5.59588e-05 -5.50593e-05);
    }
    sideWalls
    {
        type            empty;
        value           nonuniform 0();
    }
    glass1
    {
        type            calculated;
        value           nonuniform List<scalar> 9(-5.38525e-05 -0.000146689 -0.000226363 -0.000295389 -0.000354801 -0.000405292 -0.000451441 -0.000505539 -0.000565122);
    }
    glass2
    {
        type            calculated;
        value           nonuniform List<scalar> 2(-0.000228701 -0.000224278);
    }
    sun
    {
        type            calculated;
        value           uniform 0;
    }
    heatsource1
    {
        type            calculated;
        value           nonuniform List<scalar> 3(2.03204e-07 2.03375e-07 2.03676e-07);
    }
    heatsource2
    {
        type            calculated;
        value           nonuniform List<scalar> 4(5.08873e-08 5.10191e-08 0 0);
    }
    Table_master
    {
        type            calculated;
        value           nonuniform List<scalar> 9(-1.526e-07 -1.52712e-07 -1.52735e-07 -1.52733e-07 -1.52717e-07 -1.52699e-07 -1.5268e-07 -1.52659e-07 -1.52622e-07);
    }
    Table_slave
    {
        type            calculated;
        value           nonuniform List<scalar> 9(1.52256e-07 1.52264e-07 1.52239e-07 1.52221e-07 1.52208e-07 1.52202e-07 1.52208e-07 1.52232e-07 1.52286e-07);
    }
    inlet
    {
        type            calculated;
        value           uniform -0.00676154;
    }
    outlet
    {
        type            calculated;
        value           nonuniform List<scalar> 2(0.00735181 0.00283035);
    }
}


// ************************************************************************* //
