/*--------------------------------*- C++ -*----------------------------------*\
  =========                 |
  \\      /  F ield         | OpenFOAM: The Open Source CFD Toolbox
   \\    /   O peration     | Website:  https://openfoam.org
    \\  /    A nd           | Version:  6
     \\/     M anipulation  |
\*---------------------------------------------------------------------------*/
FoamFile
{
    version     2.0;
    format      ascii;
    class       volScalarField;
    location    "1100";
    object      nut;
}
// * * * * * * * * * * * * * * * * * * * * * * * * * * * * * * * * * * * * * //

dimensions      [0 2 -1 0 0 0 0];

internalField   nonuniform List<scalar> 
459
(
0.00106512
0.0011611
0.00118307
0.0012395
0.00129178
0.0013411
0.00139009
0.00143684
0.00146962
0.00148213
0.00146838
0.00142411
0.00134732
0.00124026
0.00111481
0.000460829
0.000548832
0.00061976
0.000625882
0.000607483
0.000581295
0.00054498
0.000508021
0.000474458
0.00044479
0.000418635
0.000395503
0.000374964
0.000356644
0.000339874
0.000323823
0.000307399
0.000297927
0.000273578
0.00145032
0.0034333
0.00324688
0.00376505
0.0042734
0.00478339
0.00522697
0.00557298
0.00589485
0.00616284
0.00634026
0.00638943
0.00626506
0.00585939
0.0047174
0.00113465
0.000704693
0.000480265
0.00100924
0.00141181
0.00171558
0.00189465
0.00190194
0.00150112
0.00128717
0.0011353
0.00101943
0.000927914
0.000853804
0.000791481
0.000733739
0.000678075
0.000628665
0.000585143
0.000702198
0.000366129
0.00177118
0.00465841
0.00395867
0.0049252
0.00537008
0.00569528
0.00595098
0.00617762
0.00644042
0.00672454
0.00699679
0.00720697
0.00730986
0.00722944
0.00674333
0.00517349
0.00116883
0.000899949
0.00130894
0.00170233
0.00208446
0.00236806
0.00233996
0.000776898
0.000686521
0.000613165
0.000553653
0.000505034
0.000464952
0.000431654
0.000404003
0.000381466
0.000410351
0.000471015
0.000796599
0.00042954
0.00207985
0.00596272
0.00390952
0.00514065
0.00547377
0.00555696
0.00562978
0.00576249
0.0059851
0.00628127
0.00662014
0.00693056
0.00716389
0.00725439
0.00715181
0.00659186
0.00442079
0.00136662
0.00163144
0.0020727
0.00255602
0.00298618
0.0032817
0.00312783
0.000880296
0.000803922
0.000749218
0.000707613
0.000672331
0.000639578
0.000608118
0.000575024
0.000536612
0.000504096
0.000509405
0.000933758
0.000479612
0.00239484
0.00766562
0.00422932
0.00490404
0.00535875
0.00531264
0.00527568
0.00538035
0.00558956
0.00589189
0.00626581
0.00660682
0.00684532
0.00693762
0.0068846
0.00666049
0.00609135
0.00515328
0.00482406
0.0047584
0.0047899
0.00483113
0.00482584
0.00466686
0.00396979
0.00362521
0.00342436
0.00327015
0.00310854
0.00287836
0.00256003
0.00216791
0.00173016
0.00129596
0.000961063
0.000947538
0.000656771
0.00059594
0.000717443
0.000805876
0.00272951
0.00953453
0.00582286
0.00474931
0.00518873
0.00533262
0.00520132
0.0052982
0.00547102
0.00575065
0.00611391
0.00646898
0.0067057
0.00675853
0.00664269
0.00644124
0.00624536
0.00611119
0.00610211
0.00611135
0.0060697
0.00596929
0.00581463
0.00559469
0.00526809
0.00497357
0.00471125
0.00445874
0.00420175
0.0039276
0.00358583
0.0031618
0.00265569
0.0020966
0.00159581
0.00117077
0.00091343
0.000782855
0.0011084
0.000842946
0.0030438
0.0108856
0.00835548
0.0060417
0.0056397
0.00567034
0.00553325
0.00545594
0.00553911
0.00580429
0.00618665
0.00655905
0.0067841
0.00678673
0.00660222
0.00638123
0.00632056
0.00647829
0.00667396
0.0067281
0.00661664
0.00638904
0.00608769
0.00573805
0.00536335
0.00501231
0.00469049
0.00439114
0.00411434
0.00386619
0.00364891
0.00338763
0.00301707
0.00255299
0.00210195
0.00167445
0.00137683
0.0012678
0.00125457
0.000955226
0.00311183
0.00988027
0.00857211
0.00759604
0.00700045
0.00633953
0.00578509
0.00555245
0.00565706
0.0060141
0.00647532
0.00686663
0.00703631
0.00693481
0.00665703
0.00643936
0.00651034
0.00678003
0.0068854
0.00674261
0.006424
0.00599867
0.00552258
0.00504855
0.00462206
0.00426292
0.00396254
0.00371265
0.00351405
0.00337184
0.00329106
0.00325781
0.00314187
0.00286782
0.00262255
0.00249806
0.0025728
0.00284222
0.0035348
0.00145303
0.003037
0.00362643
0.00409579
0.0042435
0.00425603
0.00435488
0.00464017
0.00513925
0.00580736
0.00651238
0.00708789
0.00739003
0.00732299
0.00695386
0.00655893
0.00647291
0.00651732
0.00649923
0.00629274
0.00590489
0.00539546
0.00483964
0.00430895
0.00385651
0.00349952
0.00322418
0.00300796
0.00283457
0.0026932
0.0025745
0.00246953
0.00237165
0.00229627
0.00224145
0.0022197
0.00222639
0.00221127
0.00212896
0.00198763
0.00135054
0.00182856
0.00325995
0.00451455
0.00556064
0.0064127
0.00717922
0.0077769
0.00807833
0.00804165
0.00768699
0.0070624
0.00635435
0.00591622
0.00574405
0.00556425
0.00525077
0.0048074
0.00429352
0.00377936
0.00331948
0.00294812
0.00267276
0.0024755
0.00233461
0.00223396
0.00216365
0.00211778
0.00209294
0.00208914
0.00210993
0.00214176
0.00218179
0.00222576
0.00225714
0.00224818
0.00218288
0.00193081
0.00107849
0.00212886
0.00456268
0.0062547
0.00705191
0.00759027
0.00796566
0.00793838
0.00743834
0.00667167
0.00585021
0.00515798
0.00465546
0.0043184
0.00402017
0.00366884
0.00327609
0.00288674
0.00254507
0.00227738
0.00208627
0.00195775
0.00187188
0.00181643
0.00178748
0.00178179
0.00179573
0.00182616
0.00186922
0.00192921
0.00200344
0.0020895
0.00218202
0.00226789
0.00232656
0.00234366
0.00231806
0.00166842
0.00110286
0.00183103
0.00192818
0.00200008
0.00206964
0.00187753
0.00172534
0.00165265
0.00157823
0.00146987
0.00133624
0.00118411
0.00103345
0.000900321
0.000794809
0.000718435
0.00066443
0.000625357
0.000596883
0.00057725
0.000565724
0.000561484
0.000563486
0.000570778
0.000582729
0.00059916
0.00061954
0.000643722
0.000671983
0.000704863
0.000743354
0.000787003
0.000835842
0.000890298
0.000950692
0.00101652
0.00108697
0.00110125
0.000984109
0.000933879
0.00110505
)
;

boundaryField
{
    floor
    {
        type            nutkWallFunction;
        Cmu             0.09;
        kappa           0.41;
        E               9.8;
        value           nonuniform List<scalar> 
29
(
0.000134147
5.46784e-05
6.59157e-05
7.48103e-05
7.5572e-05
7.328e-05
7.00031e-05
6.54287e-05
6.07346e-05
5.6435e-05
5.26028e-05
4.91976e-05
4.61634e-05
4.34505e-05
4.10144e-05
3.87702e-05
3.66089e-05
3.43827e-05
3.30916e-05
2.97474e-05
2.97473e-05
4.2277e-05
5.06199e-05
5.7097e-05
0.000134147
5.46783e-05
5.71813e-05
0.00010888
0.000163066
)
;
    }
    ceiling
    {
        type            nutkWallFunction;
        Cmu             0.09;
        kappa           0.41;
        E               9.8;
        value           nonuniform List<scalar> 
43
(
0.000214787
0.000225429
0.000233269
0.000240917
0.000220003
0.000203252
0.000195195
0.000186903
0.000174745
0.000159612
0.000142174
0.000124653
0.000108925
9.6268e-05
8.69836e-05
8.03479e-05
7.55067e-05
7.19558e-05
6.94955e-05
6.80463e-05
6.75124e-05
6.77646e-05
6.86822e-05
7.0183e-05
7.22404e-05
7.47828e-05
7.77864e-05
8.12796e-05
8.53217e-05
9.00251e-05
9.53241e-05
0.000101212
0.000107731
0.000114906
0.000122667
0.00013091
0.000132573
0.000118854
0.000112914
0.000133018
0.000343981
0.000404907
0.00024713
)
;
    }
    sWall
    {
        type            nutkWallFunction;
        Cmu             0.09;
        kappa           0.41;
        E               9.8;
        value           uniform 0.000214847;
    }
    nWall
    {
        type            nutkWallFunction;
        Cmu             0.09;
        kappa           0.41;
        E               9.8;
        value           nonuniform List<scalar> 6(9.76052e-05 0.000102067 0.000115446 0.00012993 0.00013277 0.000133026);
    }
    sideWalls
    {
        type            empty;
    }
    glass1
    {
        type            nutkWallFunction;
        Cmu             0.09;
        kappa           0.41;
        E               9.8;
        value           nonuniform List<scalar> 9(0.000128459 0.00017276 0.000208642 0.000242492 0.00027648 0.000312078 0.000345093 0.000352202 0.000344409);
    }
    glass2
    {
        type            nutkWallFunction;
        Cmu             0.09;
        kappa           0.41;
        E               9.8;
        value           nonuniform List<scalar> 2(0.000172923 0.000161306);
    }
    sun
    {
        type            nutkWallFunction;
        Cmu             0.09;
        kappa           0.41;
        E               9.8;
        value           nonuniform List<scalar> 
14
(
0.000128361
0.000139516
0.000142054
0.00014855
0.00015454
0.000160165
0.000165731
0.000171021
0.000174719
0.000176128
0.000174578
0.000169581
0.000160872
0.000148637
)
;
    }
    heatsource1
    {
        type            nutkWallFunction;
        Cmu             0.09;
        kappa           0.41;
        E               9.8;
        value           nonuniform List<scalar> 3(7.18394e-05 8.68626e-05 9.76043e-05);
    }
    heatsource2
    {
        type            nutkWallFunction;
        Cmu             0.09;
        kappa           0.41;
        E               9.8;
        value           nonuniform List<scalar> 4(0.000136447 8.53023e-05 8.53023e-05 0.000140405);
    }
    Table_master
    {
        type            nutkWallFunction;
        Cmu             0.09;
        kappa           0.41;
        E               9.8;
        value           nonuniform List<scalar> 9(9.41006e-05 8.30712e-05 7.39912e-05 6.65283e-05 6.03585e-05 5.52168e-05 5.09032e-05 4.72893e-05 4.43207e-05);
    }
    Table_slave
    {
        type            nutkWallFunction;
        Cmu             0.09;
        kappa           0.41;
        E               9.8;
        value           nonuniform List<scalar> 9(0.000106536 9.73684e-05 9.07395e-05 8.56596e-05 8.13238e-05 7.72744e-05 7.33613e-05 6.92183e-05 6.43728e-05);
    }
    inlet
    {
        type            calculated;
        value           uniform 0.000100623;
    }
    outlet
    {
        type            calculated;
        value           nonuniform List<scalar> 2(0.00183103 0.00192818);
    }
}


// ************************************************************************* //
