/*--------------------------------*- C++ -*----------------------------------*\
  =========                 |
  \\      /  F ield         | OpenFOAM: The Open Source CFD Toolbox
   \\    /   O peration     | Website:  https://openfoam.org
    \\  /    A nd           | Version:  6
     \\/     M anipulation  |
\*---------------------------------------------------------------------------*/
FoamFile
{
    version     2.0;
    format      ascii;
    class       surfaceScalarField;
    location    "1000";
    object      phi;
}
// * * * * * * * * * * * * * * * * * * * * * * * * * * * * * * * * * * * * * //

dimensions      [1 0 -1 0 0 0 0];

internalField   nonuniform List<scalar> 
852
(
-0.00295496
0.00301239
-0.00398835
0.0010334
-0.00478709
0.000798737
-0.00541252
0.000625438
-0.00583132
0.000418801
-0.00601577
0.000184452
-0.0059379
-7.78741e-05
-0.00557468
-0.000363209
-0.00493901
-0.000635671
-0.00409238
-0.00084663
-0.0031317
-0.000960682
-0.00216723
-0.000964468
-0.0012993
-0.000867927
-0.00058617
-0.000713126
-0.000584501
-0.000771396
0.000774409
-0.000509341
-0.000262053
8.62011e-05
-0.000595539
0.000582664
-0.000496461
0.000925187
-0.00034252
0.00114727
-0.00022208
0.00127059
-0.000123315
0.00133022
-5.96295e-05
0.00136311
-3.28883e-05
0.00138319
-2.0077e-05
0.00139439
-1.12017e-05
0.00139823
-3.83124e-06
0.00139337
4.86409e-06
0.00137235
2.10244e-05
0.00131421
5.81438e-05
0.00118383
0.000130377
0.000969825
0.000214009
0.000711072
0.000258757
0.000715112
-0.00211686
0.00528398
-0.00313326
0.0020498
-0.00396169
0.00162718
-0.00458333
0.00124708
-0.00500009
0.000835561
-0.00519354
0.000377903
-0.0051324
-0.000139011
-0.00479732
-0.000698286
-0.00421319
-0.0012198
-0.0034526
-0.00160722
-0.0026115
-0.00180178
-0.00178481
-0.00179116
-0.00105348
-0.00159926
-0.000495783
-0.00127082
-0.000232252
-0.00084803
9.21492e-05
-0.00032445
9.21004e-05
0.000270381
0.000512783
0.000673123
-0.000664792
0.000934912
-0.000857326
0.00115578
-0.000717324
0.00133076
-0.000517502
0.0014429
-0.000334215
0.00146242
-0.000142832
0.00146728
-6.44807e-05
0.00147321
-3.88197e-05
0.00147822
-2.50789e-05
0.00148155
-1.45304e-05
0.00148333
-5.6147e-06
0.00148294
5.26295e-06
0.00147717
2.67928e-05
0.00143841
9.6909e-05
0.00127218
0.000296615
0.000983352
0.000502835
0.000622506
0.000619606
0.00134787
-0.00148833
0.00700898
-0.00236935
0.00293083
-0.00311016
0.00236799
-0.00364804
0.00178495
-0.00401843
0.00120596
-0.00419829
0.000557765
-0.00413419
-0.000203107
-0.00379685
-0.00103562
-0.00323565
-0.001781
-0.00254214
-0.00230073
-0.00180998
-0.00253394
-0.00111409
-0.00248705
-0.000507329
-0.00220601
-2.89399e-05
-0.0017492
0.00028782
-0.00116479
0.0004413
-0.000477928
0.000533402
0.00149255
-0.000970229
0.00171135
-0.000883596
0.0016693
-0.000815268
0.00165838
-0.000706404
0.00168295
-0.000542066
0.00172179
-0.000373051
0.00157911
0.00151479
0.00147612
0.0014512
0.00143683
0.00143137
0.00143679
0.00146374
0.0015608
0.00128946
0.00056796
0.000956955
0.000835341
0.000537389
0.00103918
0.00190077
-0.001043
0.00835838
-0.00174546
0.0036333
-0.00224414
0.00286667
-0.00260538
0.00214619
-0.00286211
0.00146269
-0.00298046
0.000676117
-0.00286437
-0.000319197
-0.00248891
-0.00141108
-0.00195063
-0.00231928
-0.00135303
-0.00289833
-0.000771657
-0.00311531
-0.000249931
-0.00300877
0.000195199
-0.00265114
0.000562291
-0.00211629
0.0008874
-0.00148989
0.00125481
-0.000845333
0.00209162
-0.00030341
0.00247264
-0.000372568
0.00211444
-0.000612031
0.00198394
-0.000753093
0.00186177
-0.000693095
0.00175243
-0.000597064
0.00168522
-0.000474852
0.00163515
-0.000322976
0.00177708
-0.000142079
0.00186687
-8.99437e-05
0.00194009
-7.3373e-05
0.0019979
-5.79538e-05
0.0020257
-2.79533e-05
0.00200133
2.42233e-05
0.00189915
0.000102024
0.00168588
0.000213117
0.00130675
0.00037898
0.00114509
0.000729626
0.000830427
0.00115001
0.000357864
0.00151174
0.00227884
-0.000729339
0.00945331
-0.00126498
0.00416894
-0.00138883
0.00299053
-0.00148559
0.00224295
-0.00155274
0.00152984
-0.0015305
0.000653879
-0.00127641
-0.000573283
-0.000846552
-0.00184093
-0.000372973
-0.00279286
6.33096e-05
-0.00333461
0.000423983
-0.00347598
0.000702112
-0.0032869
0.000916096
-0.00286512
0.00109686
-0.00229706
0.00127783
-0.00167086
0.00150757
-0.00107507
0.00182945
-0.000625286
0.00194107
-0.000484184
0.00186127
-0.000532233
0.00168856
-0.000580381
0.00153574
-0.000540271
0.00140653
-0.000467851
0.00131411
-0.000382428
0.00127432
-0.000283176
0.00132234
-0.000190102
0.00138105
-0.000148651
0.00144395
-0.000136271
0.0015073
-0.000121298
0.00156015
-8.07978e-05
0.0015816
2.77332e-06
0.00154986
0.000133769
0.00145337
0.000309611
0.0012936
0.000538754
0.00114433
0.000878891
0.000976429
0.00131792
0.000615012
0.00187316
0.000504601
0.00238926
-0.000997602
0.001502
-0.0014605
0.000462698
-0.00141186
-0.000631902
0.0105007
-0.00100152
0.00453855
-0.000610407
0.00259942
-0.000324713
0.00195726
-0.000119213
0.00132434
0.00018247
0.000352199
0.000646004
-0.00103681
0.0010833
-0.00227822
0.00140357
-0.00311313
0.00158792
-0.00351896
0.00165711
-0.00354517
0.00164495
-0.00327474
0.00158158
-0.00280176
0.00150436
-0.00221983
0.00144682
-0.00161332
0.0014346
-0.00106285
0.00146226
-0.00065294
0.00142998
-0.000451902
0.0013064
-0.000408651
0.00112993
-0.000403914
0.000969752
-0.000380089
0.000844258
-0.000342354
0.000761158
-0.000299325
0.000730744
-0.00025276
0.000755492
-0.000214847
0.000810352
-0.000203509
0.000881359
-0.000207275
0.000962554
-0.00020249
0.00104763
-0.000165876
0.00112475
-7.4341e-05
0.00117501
8.35144e-05
0.00119315
0.000291478
0.00118879
0.000543116
0.00120716
0.000860523
0.00129482
0.00123025
0.00146772
0.00170027
0.00190598
0.001951
0.00216484
0.00124314
0.00177453
0.000853011
0.000421109
-0.000722053
0.0116827
-0.000611494
0.004428
0.000457626
0.0015303
0.00111726
0.00129764
0.00165729
0.000784312
0.00228609
-0.000276603
0.00285059
-0.00160131
0.00317046
-0.00259809
0.00323799
-0.00318067
0.00309711
-0.00337807
0.0028095
-0.00325756
0.00243916
-0.0029044
0.00203974
-0.00240233
0.00165941
-0.0018395
0.0013321
-0.001286
0.00107798
-0.000808736
0.000895774
-0.000470731
0.000741191
-0.000297316
0.000579512
-0.00024697
0.00041843
-0.00024283
0.00028132
-0.000242976
0.000179174
-0.000240205
0.000115894
-0.000236042
9.53433e-05
-0.000232207
0.000115247
-0.000234748
0.000161873
-0.000250132
0.000224787
-0.000270186
0.000302185
-0.000279886
0.000398053
-0.000261742
0.000517125
-0.00019341
0.000646793
-4.61503e-05
0.000775363
0.00016291
0.000913308
0.000405173
0.00109982
0.000674013
0.00138166
0.000948419
0.00182537
0.00125656
0.00249568
0.00128069
0.00303935
0.000699479
0.00306005
0.000832307
0.00354409
0.00259487
0.00960169
0.00326721
0.00375566
0.00341932
0.00137819
0.00385011
0.000866846
0.00451457
0.000119859
0.00520587
-0.000967904
0.00550313
-0.00189858
0.00540085
-0.00249581
0.00497974
-0.00275955
0.00434096
-0.0027393
0.0035854
-0.002502
0.00280033
-0.00211933
0.00204441
-0.00164641
0.00137294
-0.00116802
0.000815468
-0.000728531
0.000392518
-0.000385784
0.000106532
-0.000184743
-8.5051e-05
-0.00010573
-0.000230765
-0.000101253
-0.000351892
-0.0001217
-0.000450237
-0.000144628
-0.000524315
-0.000166124
-0.000573743
-0.000186611
-0.000598497
-0.00020745
-0.000601954
-0.000231288
-0.000592826
-0.000259257
-0.000576919
-0.00028609
-0.000553512
-0.00030329
-0.000514265
-0.000300986
-0.000440046
-0.000267626
-0.000299713
-0.000186481
-0.000110048
-2.67535e-05
0.000110218
0.00018491
0.000383241
0.000400994
0.000719637
0.000612026
0.00116025
0.000815954
0.001635
0.00080594
0.00182437
0.000510113
0.00107216
0.00158453
0.00487589
0.0101657
0.0139142
0.0122146
0.00307774
0.0112808
0.00180068
0.0105438
0.000856846
0.00967863
-0.000102724
0.00855582
-0.000775769
0.00728102
-0.00122101
0.00594785
-0.00142638
0.00462306
-0.00141451
0.00336839
-0.00124733
0.0022381
-0.000989031
0.00123851
-0.000646819
0.000413675
-0.000343187
-0.00020175
-0.000113104
-0.000592727
5.19652e-06
-0.000808545
3.10776e-05
-0.000933075
1.88031e-05
-0.00102497
-9.35817e-06
-0.00110565
-4.1013e-05
-0.00117848
-7.17928e-05
-0.00124387
-0.000100731
-0.00130263
-0.000127853
-0.00135643
-0.000153648
-0.00140932
-0.000178392
-0.00146844
-0.000200132
-0.00154105
-0.00021348
-0.00163433
-0.00021001
-0.00175708
-0.000178236
-0.00192052
-0.000104182
-0.00213188
2.48845e-05
-0.00237666
0.000218028
-0.00268147
0.000489723
-0.00313625
0.000855776
-0.00383642
0.0013122
-0.00484594
0.00182548
-0.0062783
0.00223831
-0.00800118
0.002233
-0.0074912
0.00107454
-0.00232748
0.0051119
0.0045886
0.00413306
0.00277952
0.00455468
0.000435216
0.00460556
-0.000153605
0.00421061
-0.000380816
0.00354277
-0.000553177
0.00270572
-0.000589337
0.00179053
-0.000499315
0.00087385
-0.000330647
5.25899e-06
-0.000120437
-0.000714697
7.31402e-05
-0.00119705
0.000139168
-0.00146559
0.000155441
-0.00159828
0.000137887
-0.00167093
0.000103726
-0.00172172
6.96052e-05
-0.00176911
3.80342e-05
-0.00182097
1.08445e-05
-0.00188021
-1.25442e-05
-0.00194657
-3.43665e-05
-0.00201989
-5.45373e-05
-0.00210104
-7.24891e-05
-0.00219139
-8.80445e-05
-0.00229294
-9.85808e-05
-0.00240661
-9.98059e-05
-0.00253101
-8.56056e-05
-0.00266126
-4.79786e-05
-0.00278833
2.28902e-05
-0.0029002
0.000136752
-0.0029947
0.000312527
-0.00308078
0.000575813
-0.00316625
0.00094124
-0.00324967
0.00139563
-0.00328461
0.00186042
-0.00321149
0.0021652
-0.00285083
0.00187234
-0.00157811
-0.000198181
-0.00383019
-0.00042434
0.00506905
0.00087076
0.00148441
0.000872188
0.000433785
0.000635586
8.29964e-05
0.000292344
-3.75736e-05
-0.000210468
-5.03623e-05
-0.000801498
1.69479e-06
-0.00136888
6.80693e-05
-0.00182625
0.000126722
-0.00211904
0.00017236
-0.00224211
0.000196209
-0.00228725
0.000184311
-0.00229127
0.000159466
-0.00228408
0.000130701
-0.00228397
0.000103617
-0.00229487
8.05101e-05
-0.00231679
5.99618e-05
-0.00234717
4.12266e-05
-0.00238432
2.46037e-05
-0.00242829
9.61025e-06
-0.00247881
-4.01328e-06
-0.00253566
-1.56422e-05
-0.00259847
-2.52235e-05
-0.00266542
-3.16315e-05
-0.00273248
-3.27477e-05
-0.00279272
-2.53626e-05
-0.00283543
-5.26358e-06
-0.00284818
3.56408e-05
-0.00281798
0.000106556
-0.00272141
0.000215959
-0.0025254
0.00037981
-0.0022029
0.000618739
-0.00173977
0.000932507
-0.00111323
0.00123388
-0.000142551
0.00119452
0.00116223
0.000567558
0.0015724
-0.000608346
-0.00217504
0.000216206
-0.010815
-0.00570191
-0.00419428
-0.00374589
-0.00365315
-0.00368414
-0.00373022
-0.003726
-0.0036567
-0.0035298
-0.00335817
-0.00316347
-0.00298133
-0.00282457
-0.002697
-0.00259685
-0.00252005
-0.00246399
-0.00242678
-0.00240626
-0.00240075
-0.00240886
-0.00242855
-0.00245778
-0.00249333
-0.00252993
-0.00255903
-0.00256793
-0.0025358
-0.00243263
-0.00221993
-0.00184325
-0.00122755
-0.000297995
0.000932941
0.00212442
0.00268877
0.00207697
)
;

boundaryField
{
    floor
    {
        type            calculated;
        value           nonuniform List<scalar> 
29
(
0
0
0
0
0
0
0
0
0
0
0
0
0
0
0
0
0
0
0
0
-4.03685e-06
-1.02498e-05
-1.55032e-05
-2.02089e-05
-1.66658e-06
-3.01008e-06
-8.75274e-06
-9.53323e-06
-8.44319e-06
)
;
    }
    ceiling
    {
        type            calculated;
        value           nonuniform List<scalar> 
43
(
-2.36414e-05
-4.37508e-05
-4.39963e-05
-2.32148e-05
-1.4604e-05
-9.74045e-06
-6.58265e-06
-4.27822e-06
-2.52306e-06
-1.23368e-06
-1.71295e-07
7.33553e-07
1.51473e-06
2.17469e-06
2.71037e-06
3.13335e-06
3.4644e-06
3.71798e-06
3.90115e-06
4.02016e-06
4.08478e-06
4.10676e-06
4.0951e-06
4.05757e-06
4.00196e-06
3.9308e-06
3.84584e-06
3.74819e-06
3.63817e-06
3.5146e-06
3.38585e-06
3.25897e-06
3.13934e-06
3.03443e-06
2.9578e-06
2.94233e-06
3.0419e-06
3.21882e-06
3.45398e-06
4.47627e-06
1.02469e-05
7.19837e-06
-5.61124e-05
)
;
    }
    sWall
    {
        type            calculated;
        value           uniform -0.000230322;
    }
    nWall
    {
        type            calculated;
        value           nonuniform List<scalar> 6(-4.88434e-05 -5.84362e-05 -6.29216e-05 -7.53931e-05 -8.27503e-05 -0.000102544);
    }
    sideWalls
    {
        type            empty;
        value           nonuniform 0();
    }
    glass1
    {
        type            calculated;
        value           nonuniform List<scalar> 9(-5.74324e-05 -0.000154726 -0.000236676 -0.000306408 -0.000365582 -0.000415443 -0.000459968 -0.000513889 -0.000574259);
    }
    glass2
    {
        type            calculated;
        value           nonuniform List<scalar> 2(-0.000259641 -0.000287821);
    }
    sun
    {
        type            calculated;
        value           uniform 0;
    }
    heatsource1
    {
        type            calculated;
        value           nonuniform List<scalar> 3(2.04223e-07 2.04162e-07 2.04178e-07);
    }
    heatsource2
    {
        type            calculated;
        value           nonuniform List<scalar> 4(5.11932e-08 5.12845e-08 0 0);
    }
    Table_master
    {
        type            calculated;
        value           nonuniform List<scalar> 9(-1.53161e-07 -1.53249e-07 -1.53281e-07 -1.53303e-07 -1.53318e-07 -1.53329e-07 -1.53334e-07 -1.53329e-07 -1.533e-07);
    }
    Table_slave
    {
        type            calculated;
        value           nonuniform List<scalar> 9(1.53039e-07 1.53056e-07 1.53033e-07 1.53015e-07 1.53007e-07 1.53011e-07 1.53025e-07 1.53068e-07 1.53149e-07);
    }
    inlet
    {
        type            calculated;
        value           uniform -0.00662276;
    }
    outlet
    {
        type            calculated;
        value           nonuniform List<scalar> 2(3.77594e-05 0.0110749);
    }
}


// ************************************************************************* //
