/*--------------------------------*- C++ -*----------------------------------*\
  =========                 |
  \\      /  F ield         | OpenFOAM: The Open Source CFD Toolbox
   \\    /   O peration     | Website:  https://openfoam.org
    \\  /    A nd           | Version:  6
     \\/     M anipulation  |
\*---------------------------------------------------------------------------*/
FoamFile
{
    version     2.0;
    format      ascii;
    class       surfaceScalarField;
    location    "100";
    object      phi;
}
// * * * * * * * * * * * * * * * * * * * * * * * * * * * * * * * * * * * * * //

dimensions      [1 0 -1 0 0 0 0];

internalField   nonuniform List<scalar> 
852
(
-0.0022703
0.00233072
-0.00227089
7.59534e-07
-0.00221344
-5.72651e-05
-0.00225126
3.7988e-05
-0.00232512
7.40394e-05
-0.00239796
7.30108e-05
-0.00244806
5.02765e-05
-0.00245893
1.10344e-05
-0.00241508
-4.3689e-05
-0.00230017
-0.000114745
-0.00209916
-0.000200856
-0.00179921
-0.000299792
-0.00138038
-0.000418677
-0.000790594
-0.000589642
-0.000788718
-0.000634758
0.000638417
-0.000621712
-1.30295e-05
-0.000446951
-0.000174747
-0.000358965
-8.79737e-05
-0.000337004
-2.19452e-05
-0.000348945
1.19612e-05
-0.000352776
3.85134e-06
-0.000334053
-1.87066e-05
-0.000286939
-4.71031e-05
-0.000210499
-7.64266e-05
-0.000124272
-8.62047e-05
-5.68412e-05
-6.73982e-05
-2.77047e-05
-2.90951e-05
-2.07945e-05
-6.85722e-06
3.30977e-05
-5.38071e-05
0.000185554
-0.000152324
0.000452935
-0.000267219
0.000584476
-0.000131391
0.000587802
-0.00162713
0.00410999
-0.00204367
0.000417472
-0.00217951
7.87498e-05
-0.00227388
0.000132543
-0.00236441
0.000164735
-0.00244238
0.000151156
-0.00249679
0.00010485
-0.00251675
3.11548e-05
-0.00249167
-6.86065e-05
-0.00241079
-0.000195465
-0.00226116
-0.000350335
-0.00202764
-0.000533164
-0.00169923
-0.000746934
-0.00130214
-0.000986593
-0.000898975
-0.00119174
0.000209701
-0.00110859
0.000209784
0.000260359
0.000387702
-3.56079e-05
0.000282965
-0.000350462
0.000140131
-0.000466729
2.83155e-05
-0.000477341
-1.13097e-05
-0.000505131
3.97629e-05
-0.000494193
-7.08267e-06
-0.000465244
-4.76474e-05
-0.000436058
-7.62626e-05
-0.000414688
-9.77387e-05
-0.000407393
-9.34087e-05
-0.000412395
-6.22783e-05
-0.000427575
-1.3776e-05
-0.000454494
2.0229e-05
-0.00045804
-5.0065e-05
-0.000358211
-0.000251922
-0.000280544
-0.000344654
-0.000231245
-0.000180506
0.000365721
-0.00118152
0.00551415
-0.00175002
0.000986152
-0.00200981
0.000338723
-0.00216274
0.000285645
-0.00227463
0.000276799
-0.00236099
0.000237692
-0.00242417
0.000168195
-0.00246147
6.86137e-05
-0.00246875
-6.11668e-05
-0.00244225
-0.000221812
-0.00237796
-0.00041446
-0.00227258
-0.000638395
-0.00212939
-0.000889966
-0.00196647
-0.00114936
-0.00180286
-0.00135519
-0.0015048
-0.0014065
-0.00129488
-0.000650894
0.00105022
-0.000860889
0.000493047
-0.000947632
0.000226991
-0.000953886
3.47149e-05
-0.000865304
-9.97174e-05
-0.000579317
-0.000246062
-0.000586221
-0.000633669
-0.000709681
-0.000807103
-0.000900134
-0.000961995
-0.000975326
-0.000954631
-0.00100421
-0.000811713
-0.000444081
-0.000900586
-0.000255449
-0.000881038
-0.000199733
-0.00050617
-0.00085699
0.0066513
-0.00147986
0.00160921
-0.00178472
0.000643761
-0.00197549
0.0004766
-0.00209684
0.00039832
-0.00217767
0.000318699
-0.00223371
0.000224402
-0.00227264
0.000107709
-0.00229826
-3.53841e-05
-0.00231513
-0.000204782
-0.00233119
-0.000398234
-0.00235707
-0.000612352
-0.00240979
-0.000837068
-0.00251295
-0.00104603
-0.00267648
-0.00119149
-0.0028782
-0.00120462
-0.00326881
-0.000904109
-0.00291249
-0.000347024
-0.00216074
0.0002986
-0.00206315
0.000395615
-0.00207227
0.000236309
-0.00210975
7.24127e-05
-0.0021345
-7.47396e-05
-0.00221252
-0.000167809
-0.00205418
-0.000158245
-0.00188642
-0.000167658
-0.00170433
-0.000181968
-0.00151578
-0.000188421
-0.00133
-0.000185643
-0.00115527
-0.000174564
-0.000993393
-0.000161682
-0.000827687
-0.000165493
-0.00060005
-0.000227412
-0.000645464
-0.000398301
-0.000427844
-0.00047271
-8.41038e-05
-0.000543128
-0.000582649
-0.000621309
0.00760213
-0.00126165
0.00224974
-0.00150988
0.000892188
-0.00169596
0.000662864
-0.00181955
0.000522096
-0.00188029
0.000379617
-0.00190333
0.000247609
-0.00191016
0.00011471
-0.00191501
-3.03671e-05
-0.00193004
-0.000189584
-0.00196911
-0.00035899
-0.00204496
-0.000536331
-0.00216813
-0.000713725
-0.00234279
-0.00087119
-0.0025613
-0.000972792
-0.00280677
-0.000958959
-0.0029648
-0.000745895
-0.00293408
-0.000377553
-0.00261751
-1.77806e-05
-0.00233993
0.000118244
-0.00218733
8.39263e-05
-0.0021069
-7.78606e-06
-0.0020696
-0.000111794
-0.00204935
-0.000187812
-0.00198162
-0.000225716
-0.00189516
-0.000253847
-0.00180198
-0.000274872
-0.00170566
-0.000284449
-0.00161053
-0.000280465
-0.00151909
-0.000265694
-0.00142769
-0.000252753
-0.00132315
-0.000269697
-0.00119523
-0.000355005
-0.00107137
-0.000521837
-0.000803442
-0.000740333
-0.000312276
-0.001034
0.000403351
-0.00129799
0.00119085
-0.00078741
3.70209e-05
0.001154
7.47324e-05
-0.00058928
0.00856453
-0.00115885
0.00281951
-0.00110535
0.000838895
-0.00117819
0.000735915
-0.00134264
0.000686744
-0.00141366
0.000450822
-0.00140228
0.000236414
-0.0013592
7.18111e-05
-0.00131858
-7.08138e-05
-0.00130354
-0.000204451
-0.00132942
-0.000332935
-0.00140668
-0.000458885
-0.00153879
-0.000581433
-0.00172016
-0.00068963
-0.001935
-0.00075776
-0.00214974
-0.000744021
-0.00228424
-0.000611197
-0.00227766
-0.000383928
-0.00212868
-0.000166542
-0.00195441
-5.58101e-05
-0.00182318
-4.70649e-05
-0.00174195
-8.87851e-05
-0.00170371
-0.000149793
-0.00168625
-0.000205023
-0.00166724
-0.000244478
-0.00164683
-0.000273988
-0.00162892
-0.000292514
-0.00161671
-0.000296381
-0.00161342
-0.00028347
-0.00162113
-0.000257686
-0.00163877
-0.000234821
-0.00166158
-0.000246595
-0.00168406
-0.000332244
-0.00168734
-0.000518279
-0.001605
-0.000822409
-0.00136752
-0.00127122
-0.000839063
-0.0018262
0.000537211
-0.00216343
0.00223027
-0.000538743
0.00234202
-0.000803129
0.00978154
-0.000767111
0.0027837
-0.000146094
0.000218098
-5.39407e-05
0.000643991
-0.000348693
0.000981719
-0.000536617
0.000638958
-0.000565004
0.000265003
-0.000520004
2.70054e-05
-0.000465378
-0.000125252
-0.00044045
-0.000229194
-0.000459416
-0.000313785
-0.000533094
-0.000385019
-0.00066267
-0.000451666
-0.000838611
-0.000513492
-0.00104004
-0.000556127
-0.0012314
-0.000552457
-0.0013626
-0.000479794
-0.00139391
-0.000352403
-0.00133633
-0.000223907
-0.00124709
-0.000144826
-0.00117244
-0.000121489
-0.00112652
-0.000134475
-0.0011099
-0.000166177
-0.00111362
-0.000201061
-0.00112766
-0.000230197
-0.00114967
-0.000251729
-0.00118043
-0.000261489
-0.00122283
-0.000253725
-0.00128245
-0.000223582
-0.00136832
-0.000171541
-0.00149269
-0.000110177
-0.00166721
-7.18178e-05
-0.00189556
-0.000103634
-0.00216497
-0.000248617
-0.00244468
-0.000542463
-0.00270184
-0.00101383
-0.00286392
-0.00166389
-0.00269005
-0.00233706
-0.000933768
-0.00229477
0.00145286
0.00173653
0.00851092
0.00254086
0.00197956
0.00266527
9.3914e-05
0.00211753
0.00119196
0.00154633
0.00155317
0.00119041
0.000995112
0.000977335
0.000478299
0.000839319
0.000165239
0.00075327
-3.89946e-05
0.000697909
-0.000173631
0.000632233
-0.000247908
0.000534458
-0.000287043
0.00039811
-0.000315115
0.000226044
-0.000341221
3.25611e-05
-0.000362434
-0.000152398
-0.000367285
-0.000291902
-0.000340074
-0.000362389
-0.000281697
-0.000371067
-0.000215008
-0.000349341
-0.000166328
-0.000326434
-0.000144169
-0.000316987
-0.000143693
-0.000325727
-0.000157205
-0.000350381
-0.000176172
-0.000386314
-0.000194026
-0.000430831
-0.00020697
-0.000481971
-0.000210103
-0.000538545
-0.000196901
-0.000601514
-0.00016036
-0.000676857
-9.59426e-05
-0.000780913
-5.86566e-06
-0.000955746
0.000103267
-0.00126683
0.000207694
-0.0017624
0.000247198
-0.00244146
0.000136826
-0.00329697
-0.00015809
-0.0044328
-0.000527836
-0.00589812
-0.000871526
-0.00607077
-0.00212191
-0.00442783
0.00902516
0.0109951
0.00870939
0.00237985
0.00574486
0.00415673
0.00436877
0.0029295
0.00356271
0.00180141
0.00302174
0.0010195
0.00264694
0.000540265
0.00235765
0.00025052
0.00211555
6.87011e-05
0.00191162
-4.37564e-05
0.00173381
-0.000109009
0.0015645
-0.000145583
0.00139149
-0.000167993
0.00121398
-0.000184699
0.00104286
-0.000195937
0.000897895
-0.000194885
0.000794569
-0.000178143
0.000732408
-0.000152618
0.000696493
-0.000130183
0.000670172
-0.000117618
0.0006423
-0.00011559
0.000607103
-0.000121775
0.000563063
-0.000131899
0.000511037
-0.000141765
0.000452953
-0.000148649
0.000392067
-0.000148978
0.000333238
-0.000137832
0.000282609
-0.000109488
0.00024576
-5.885e-05
0.000223887
1.62515e-05
0.000217789
0.000109609
0.000227316
0.000198409
0.000247633
0.00022712
0.000251421
0.000133274
0.000213009
-0.000119448
0.000171827
-0.00048643
0.000221862
-0.000921344
-5.79075e-06
-0.00189404
-0.00422621
-0.00178044
0.00283027
0.000171031
0.00220557
0.00177366
0.00132713
0.0025019
0.00107342
0.0027809
0.00074075
0.00288331
0.000438098
0.00290106
0.000233015
0.00286542
0.000104588
0.00279678
2.51315e-05
0.00271125
-2.32266e-05
0.00261439
-4.84805e-05
0.00250601
-5.93635e-05
0.00238566
-6.41092e-05
0.00225657
-6.66004e-05
0.00212799
-6.60636e-05
0.00201128
-6.1193e-05
0.00191291
-5.401e-05
0.00183174
-4.87681e-05
0.00176254
-4.81866e-05
0.00169973
-5.25364e-05
0.0016388
-6.06174e-05
0.00157658
-6.94425e-05
0.00151148
-7.64324e-05
0.00144405
-8.09804e-05
0.00137659
-8.12786e-05
0.0013137
-7.47116e-05
0.00126266
-5.82119e-05
0.0012326
-2.85458e-05
0.001231
1.8086e-05
0.00126828
7.25683e-05
0.00134891
0.000118017
0.00146398
0.000112283
0.00158415
1.33274e-05
0.00167085
-0.000205917
0.0017231
-0.000538456
0.00179182
-0.000989843
0.00165146
-0.00175347
-0.00252944
-0.000597215
0.00341143
0.00114204
0.000466658
0.00193864
0.000530849
0.00256364
0.000448709
0.00303537
0.000269316
0.00332636
0.000147398
0.00348348
7.61759e-05
0.00355523
3.31209e-05
0.00357111
9.5349e-06
0.0035446
3.55737e-06
0.00348748
8.91563e-06
0.00340982
1.8576e-05
0.00331744
2.85306e-05
0.00321482
3.62851e-05
0.00310813
4.08937e-05
0.00300504
4.21524e-05
0.00291137
3.99084e-05
0.00282864
3.42066e-05
0.00275496
2.57418e-05
0.002687
1.56629e-05
0.00262147
5.14703e-06
0.00255643
-4.1614e-06
0.00249145
-1.12221e-05
0.00242663
-1.59226e-05
0.00236325
-1.76683e-05
0.00230472
-1.59417e-05
0.00225696
-1.02258e-05
0.00222866
-1.51767e-08
0.00222962
1.73661e-05
0.00226439
3.80234e-05
0.00233463
4.80086e-05
0.00242201
2.51311e-05
0.00248569
-5.01177e-05
0.00245559
-0.000175596
0.00228064
-0.000363281
0.00188906
-0.000598056
0.00106552
-0.00092972
-0.00141073
0.00393243
-0.0011972
0.00219052
0.00263421
0.00314051
0.00356269
0.00380334
0.00392
0.00396354
0.00396234
0.00393615
0.00390291
0.00387436
0.00385523
0.00384621
0.00384544
0.00385006
0.00385689
0.0038625
0.00386342
0.00385683
0.00384105
0.00381557
0.00378155
0.00374122
0.00369692
0.0036516
0.00360874
0.00357234
0.00354693
0.00353973
0.00355407
0.00357921
0.00358214
0.00351028
0.0033133
0.00292882
0.00230959
0.00135956
)
;

boundaryField
{
    floor
    {
        type            calculated;
        value           nonuniform List<scalar> 
29
(
0
0
0
0
0
0
0
0
0
0
0
0
0
0
0
0
0
0
0
0
-3.20203e-06
-9.0309e-06
-8.83616e-06
-7.29277e-06
-1.73101e-06
-3.64084e-06
-9.62163e-06
-1.15714e-05
-9.15051e-06
)
;
    }
    ceiling
    {
        type            calculated;
        value           nonuniform List<scalar> 
43
(
6.16821e-05
4.28224e-05
2.41002e-05
2.33681e-05
2.49332e-05
2.6916e-05
2.90362e-05
3.10938e-05
3.29892e-05
3.46655e-05
3.60663e-05
3.71228e-05
3.77805e-05
3.80194e-05
3.78562e-05
3.73434e-05
3.65611e-05
3.56064e-05
3.45779e-05
3.35562e-05
3.25905e-05
3.16997e-05
3.0881e-05
3.01074e-05
2.93539e-05
2.86165e-05
2.78854e-05
2.71493e-05
2.63986e-05
2.56265e-05
2.47869e-05
2.39127e-05
2.30862e-05
2.24298e-05
2.19538e-05
2.1602e-05
2.14108e-05
2.13824e-05
2.05132e-05
2.17722e-05
1.20432e-05
9.79814e-06
1.64507e-05
)
;
    }
    sWall
    {
        type            calculated;
        value           uniform -0.000128651;
    }
    nWall
    {
        type            calculated;
        value           nonuniform List<scalar> 6(-3.75138e-05 -3.6713e-05 -4.42806e-05 -4.51095e-05 -5.29953e-05 -7.27526e-05);
    }
    sideWalls
    {
        type            empty;
        value           nonuniform 0();
    }
    glass1
    {
        type            calculated;
        value           nonuniform List<scalar> 9(-6.0251e-05 -0.000151971 -0.000222479 -0.000279997 -0.000329365 -0.000372957 -0.000413715 -0.00046576 -0.000526122);
    }
    glass2
    {
        type            calculated;
        value           nonuniform List<scalar> 2(-0.000189883 -0.000207221);
    }
    sun
    {
        type            calculated;
        value           uniform 0;
    }
    heatsource1
    {
        type            calculated;
        value           nonuniform List<scalar> 3(2.03009e-07 2.03227e-07 2.04147e-07);
    }
    heatsource2
    {
        type            calculated;
        value           nonuniform List<scalar> 4(5.10033e-08 5.1166e-08 0 0);
    }
    Table_master
    {
        type            calculated;
        value           nonuniform List<scalar> 9(-1.5383e-07 -1.53819e-07 -1.53771e-07 -1.53692e-07 -1.53592e-07 -1.53484e-07 -1.53379e-07 -1.53265e-07 -1.53102e-07);
    }
    Table_slave
    {
        type            calculated;
        value           nonuniform List<scalar> 9(1.52498e-07 1.52553e-07 1.52604e-07 1.52659e-07 1.52712e-07 1.52759e-07 1.52792e-07 1.52806e-07 1.52773e-07);
    }
    inlet
    {
        type            calculated;
        value           uniform 0.00133045;
    }
    outlet
    {
        type            calculated;
        value           nonuniform List<scalar> 2(-0.0038651 0.00508718);
    }
}


// ************************************************************************* //
