// -*- C++ -*-
// File generated by PyFoam - sorry for the ugliness

FoamFile
{
 version 2.0;
 format ascii;
 class volScalarField;
 location "1000";
 object T;
}

dimensions [ 0 0 0 1 0 0 0 ];

internalField nonuniform List<scalar> 459
(
  303.374
  303.111
  303.098
  303.094
  303.091
  303.087
  303.082
  303.077
  303.068
  303.056
  303.044
  303.034
  303.027
  303.026
  303.033
  303.119
  303.099
  303.092
  303.094
  303.097
  303.101
  303.105
  303.109
  303.113
  303.117
  303.121
  303.125
  303.128
  303.132
  303.136
  303.14
  303.144
  303.149
  303.169
  303.553
  303.153
  303.13
  303.133
  303.136
  303.137
  303.135
  303.127
  303.111
  303.086
  303.058
  303.035
  303.02
  303.013
  303.012
  303.009
  303.005
  303.121
  303.084
  303.077
  303.079
  303.084
  303.088
  303.09
  303.091
  303.092
  303.093
  303.095
  303.096
  303.097
  303.098
  303.1
  303.104
  303.11
  303.119
  303.152
  303.74
  303.203
  303.166
  303.178
  303.193
  303.204
  303.208
  303.201
  303.174
  303.13
  303.082
  303.042
  303.017
  303.007
  303.006
  303.008
  303.007
  303.074
  303.067
  303.069
  303.077
  303.087
  303.094
  303.094
  303.094
  303.094
  303.094
  303.094
  303.094
  303.094
  303.094
  303.094
  303.097
  303.101
  303.109
  303.145
  303.928
  303.265
  303.203
  303.222
  303.252
  303.281
  303.3
  303.294
  303.251
  303.18
  303.105
  303.047
  303.013
  303.002
  303.003
  303.008
  303.013
  303.023
  303.035
  303.052
  303.07
  303.088
  303.104
  303.117
  303.127
  303.136
  303.144
  303.152
  303.158
  303.163
  303.167
  303.169
  303.17
  303.148
  303.128
  303.118
  303.145
  304.112
  303.343
  303.242
  303.258
  303.301
  303.35
  303.391
  303.384
  303.319
  303.218
  303.116
  303.044
  303.005
  302.994
  303
  303.012
  303.025
  303.04
  303.058
  303.079
  303.101
  303.123
  303.141
  303.157
  303.171
  303.183
  303.193
  303.201
  303.207
  303.209
  303.209
  303.205
  303.198
  303.18
  303.153
  303.132
  303.142
  303.218
  303.263
  303.269
  304.278
  303.443
  303.307
  303.299
  303.34
  303.402
  303.464
  303.441
  303.347
  303.224
  303.109
  303.028
  302.988
  302.983
  302.999
  303.022
  303.046
  303.07
  303.095
  303.121
  303.146
  303.169
  303.188
  303.204
  303.217
  303.228
  303.237
  303.244
  303.248
  303.248
  303.243
  303.235
  303.223
  303.204
  303.178
  303.152
  303.146
  303.177
  303.194
  303.229
  304.427
  303.604
  303.46
  303.425
  303.444
  303.501
  303.527
  303.46
  303.329
  303.18
  303.057
  302.982
  302.957
  302.97
  303.005
  303.046
  303.084
  303.118
  303.148
  303.175
  303.2
  303.221
  303.238
  303.251
  303.263
  303.271
  303.278
  303.283
  303.284
  303.281
  303.273
  303.261
  303.246
  303.226
  303.203
  303.177
  303.164
  303.171
  303.181
  303.21
  304.645
  304.028
  303.864
  303.762
  303.714
  303.695
  303.593
  303.417
  303.217
  303.049
  302.942
  302.902
  302.919
  302.968
  303.032
  303.094
  303.144
  303.183
  303.212
  303.236
  303.255
  303.271
  303.284
  303.295
  303.303
  303.308
  303.312
  303.313
  303.312
  303.308
  303.301
  303.289
  303.273
  303.255
  303.237
  303.219
  303.211
  303.222
  303.24
  303.372
  304.955
  304.667
  304.402
  304.171
  303.983
  303.754
  303.419
  303.1
  302.876
  302.767
  302.757
  302.815
  302.912
  303.012
  303.108
  303.18
  303.223
  303.251
  303.272
  303.289
  303.303
  303.315
  303.324
  303.33
  303.335
  303.337
  303.338
  303.338
  303.336
  303.334
  303.332
  303.332
  303.334
  303.34
  303.353
  303.375
  303.406
  303.438
  303.463
  303.525
  297.018
  299.127
  300.232
  300.696
  301.147
  301.594
  302.006
  302.355
  302.635
  302.862
  303.053
  303.159
  303.224
  303.264
  303.29
  303.308
  303.322
  303.334
  303.342
  303.349
  303.354
  303.358
  303.361
  303.362
  303.363
  303.364
  303.365
  303.366
  303.368
  303.369
  303.373
  303.381
  303.393
  303.41
  303.432
  303.454
  303.474
  303.514
  297.454
  299.318
  300.261
  300.968
  301.573
  302.111
  302.516
  302.798
  302.995
  303.128
  303.214
  303.267
  303.3
  303.322
  303.337
  303.349
  303.358
  303.365
  303.37
  303.374
  303.376
  303.378
  303.38
  303.381
  303.383
  303.384
  303.385
  303.386
  303.387
  303.389
  303.393
  303.398
  303.406
  303.417
  303.431
  303.448
  303.467
  303.492
  299.528
  299.458
  299.454
  301.234
  302.099
  302.541
  302.791
  302.967
  303.094
  303.183
  303.246
  303.289
  303.317
  303.336
  303.349
  303.358
  303.364
  303.369
  303.372
  303.375
  303.378
  303.38
  303.382
  303.383
  303.385
  303.387
  303.388
  303.39
  303.392
  303.393
  303.395
  303.397
  303.399
  303.403
  303.407
  303.414
  303.423
  303.429
  303.484
  303.574
)
;

boundaryField
{
  floor
  {
    type wallHeatTransfer;
    Tinf uniform 305.2;
    alphaWall uniform 0.24;
    value nonuniform List<scalar> 29
(
  303.256
  303.52
  303.46
  303.425
  303.424
  303.434
  303.448
  303.466
  303.487
  303.508
  303.528
  303.547
  303.566
  303.584
  303.601
  303.618
  303.636
  303.654
  303.668
  303.708
  303.708
  303.609
  303.559
  303.531
  303.256
  303.52
  303.512
  303.331
  303.215
)
;
  }
  ceiling
  {
    type wallHeatTransfer;
    Tinf uniform 303.2;
    alphaWall uniform 0.24;
    value nonuniform List<scalar> 43
(
  299.783
  299.707
  299.695
  301.358
  302.174
  302.589
  302.822
  302.986
  303.103
  303.184
  303.241
  303.279
  303.303
  303.318
  303.328
  303.334
  303.338
  303.341
  303.344
  303.346
  303.348
  303.349
  303.351
  303.353
  303.355
  303.357
  303.359
  303.362
  303.364
  303.366
  303.369
  303.372
  303.375
  303.379
  303.384
  303.392
  303.4
  303.403
  303.451
  303.535
  304.874
  304.609
  297.804
)
;
  }
  sWall
  {
    type wallHeatTransfer;
    Tinf uniform 315.2;
    alphaWall uniform 0.36;
    value uniform 301.107;
  }
  nWall
  {
    type wallHeatTransfer;
    Tinf uniform 307.2;
    alphaWall uniform 0.36;
    value nonuniform List<scalar> 6
(
  303.996
  303.941
  303.865
  304.07
  304.042
  304.111
)
;
  }
  sideWalls
  {
    type empty;
  }
  glass1
  {
    type wallHeatTransfer;
    Tinf uniform 315.2;
    alphaWall uniform 4.3;
    value nonuniform List<scalar> 9
(
  311.489
  310.853
  310.451
  310.144
  309.888
  309.655
  309.474
  309.54
  309.762
)
;
  }
  glass2
  {
    type wallHeatTransfer;
    Tinf uniform 307.2;
    alphaWall uniform 4.3;
    value nonuniform List<scalar> 2
(
  305.757
  305.868
)
;
  }
  sun
  {
    type wallHeatTransfer;
    Tinf uniform 305.2;
    alphaWall uniform 0.24;
    value nonuniform List<scalar> 14
(
  303.569
  303.319
  303.305
  303.294
  303.285
  303.276
  303.266
  303.256
  303.245
  303.233
  303.223
  303.218
  303.221
  303.233
)
;
  }
  heatsource1
  {
    type fixedGradient;
    gradient uniform 0;
  }
  heatsource2
  {
    type fixedGradient;
    gradient uniform 0;
  }
  Table_master
  {
    type zeroGradient;
  }
  Table_slave
  {
    type zeroGradient;
  }
  inlet
  {
    type fixedValue;
    value uniform 293.15;
  }
  outlet
  {
    type zeroGradient;
  }
} 	// ************************************************************************* //

