// -*- C++ -*-
// File generated by PyFoam - sorry for the ugliness

FoamFile
{
 version 2.0;
 format ascii;
 class volVectorField;
 location "1000";
 object U;
}

dimensions [ 0 1 -1 0 0 0 0 ];

internalField nonuniform List<vector> 459
(
  (0.0342382 0.0859116 0)
  (-0.16714 0.025474 0)
  (-0.191888 0.0178301 0)
  (-0.222883 0.0121168 0)
  (-0.245288 0.00581343 0)
  (-0.257993 -0.000896624 0)
  (-0.259293 -0.00808067 0)
  (-0.247933 -0.0157605 0)
  (-0.224524 -0.0232198 0)
  (-0.191007 -0.0291186 0)
  (-0.151154 -0.0323551 0)
  (-0.109392 -0.0323974 0)
  (-0.0699748 -0.0294048 0)
  (-0.0380607 -0.0245246 0)
  (-0.0276067 -0.0196228 0)
  (-0.00647689 0.00912487 0)
  (-0.0300014 -0.0163732 0)
  (-0.00896155 -0.0261972 0)
  (0.0147765 -0.0203025 0)
  (0.0298547 -0.0139396 0)
  (0.0424957 -0.00904944 0)
  (0.0505457 -0.00525597 0)
  (0.0547765 -0.00326468 0)
  (0.0567074 -0.00247055 0)
  (0.0576742 -0.00213194 0)
  (0.0582827 -0.00192395 0)
  (0.0586401 -0.00175808 0)
  (0.0586931 -0.00156241 0)
  (0.0582702 -0.00117565 0)
  (0.0568734 -0.000247553 0)
  (0.0534264 0.00170379 0)
  (0.0467545 0.00375659 0)
  (0.0411142 0.00536527 0)
  (-0.0141006 0.0201087 0)
  (0.208883 0.176052 0)
  (-0.156374 0.0674473 0)
  (-0.154834 0.0530448 0)
  (-0.187001 0.0411805 0)
  (-0.209275 0.0277075 0)
  (-0.222296 0.0124984 0)
  (-0.224308 -0.00476322 0)
  (-0.213907 -0.0234558 0)
  (-0.192308 -0.0409384 0)
  (-0.161874 -0.0540959 0)
  (-0.126499 -0.0608164 0)
  (-0.090272 -0.0604973 0)
  (-0.0567478 -0.0537594 0)
  (-0.0293194 -0.0422571 0)
  (-0.0119548 -0.0285589 0)
  (0.00180824 -0.0106541 0)
  (0.000489246 0.0155521 0)
  (0.0616692 0.0368653 0)
  (0.0232534 -0.0172755 0)
  (0.0319782 -0.0308898 0)
  (0.0429291 -0.0277017 0)
  (0.0516803 -0.0200306 0)
  (0.058185 -0.0126354 0)
  (0.0610286 -0.0054454 0)
  (0.0616067 -0.00129616 0)
  (0.0615786 0.000439852 0)
  (0.0616958 0.00121032 0)
  (0.0619035 0.00168399 0)
  (0.0620556 0.00207109 0)
  (0.062115 0.00253535 0)
  (0.0620401 0.00336772 0)
  (0.0613492 0.00539389 0)
  (0.0578258 0.0110367 0)
  (0.0488226 0.0157162 0)
  (0.045368 0.0187585 0)
  (-0.051247 0.0437364 0)
  (0.36917 0.2635 0)
  (-0.173311 0.107488 0)
  (-0.11631 0.0858851 0)
  (-0.147723 0.0647129 0)
  (-0.167625 0.0425081 0)
  (-0.179818 0.0177878 0)
  (-0.181528 -0.0102906 0)
  (-0.170471 -0.0402238 0)
  (-0.149155 -0.0672962 0)
  (-0.120848 -0.0864521 0)
  (-0.0896399 -0.0950321 0)
  (-0.0590198 -0.0930097 0)
  (-0.0312566 -0.0818299 0)
  (-0.00839717 -0.0637907 0)
  (0.0085657 -0.0403066 0)
  (0.0196533 -0.0140071 0)
  (0.0238714 0.0229551 0)
  (0.110443 -0.0248099 0)
  (0.0740458 -0.0361687 0)
  (0.0682589 -0.0373087 0)
  (0.0695068 -0.0322786 0)
  (0.070647 -0.024602 0)
  (0.0718276 -0.0178544 0)
  (0.070517 -0.0143424 0)
  (0.0658716 -0.0101535 0)
  (0.0624863 -0.00786303 0)
  (0.0609366 -0.00655235 0)
  (0.0602561 -0.00571275 0)
  (0.0598929 -0.00513602 0)
  (0.0598259 -0.00464115 0)
  (0.0604686 -0.00386826 0)
  (0.0628688 -0.000923974 0)
  (0.0608767 0.0153356 0)
  (0.0481792 0.0265966 0)
  (0.051902 0.0340367 0)
  (-0.0841062 0.0680505 0)
  (0.513879 0.333865 0)
  (-0.20814 0.143008 0)
  (-0.0753593 0.113889 0)
  (-0.105487 0.0848198 0)
  (-0.119984 0.056338 0)
  (-0.129021 0.0238754 0)
  (-0.12776 -0.0148895 0)
  (-0.113654 -0.0566534 0)
  (-0.0919999 -0.0925404 0)
  (-0.0668036 -0.116026 0)
  (-0.0415771 -0.124947 0)
  (-0.0186525 -0.120663 0)
  (0.00174961 -0.105304 0)
  (0.0185151 -0.0824566 0)
  (0.0327274 -0.0556206 0)
  (0.0478746 -0.0266383 0)
  (0.0691953 0.00514638 0)
  (0.0994839 0.0171289 0)
  (0.104488 -0.0216442 0)
  (0.0910269 -0.0323225 0)
  (0.0821314 -0.0317536 0)
  (0.0769738 -0.0278396 0)
  (0.0729913 -0.0219888 0)
  (0.0702087 -0.0145071 0)
  (0.071103 -0.00872497 0)
  (0.0756154 -0.00652318 0)
  (0.079442 -0.00532452 0)
  (0.081933 -0.00450012 0)
  (0.0834563 -0.00358747 0)
  (0.0836107 -0.00228842 0)
  (0.0813002 -0.000336728 0)
  (0.0752582 0.00257746 0)
  (0.063018 0.0069576 0)
  (0.0511724 0.0256304 0)
  (0.0390879 0.0414365 0)
  (0.0562426 0.0538652 0)
  (-0.119348 0.0896052 0)
  (0.639175 0.388378 0)
  (-0.250757 0.172021 0)
  (-0.0345683 0.130087 0)
  (-0.0612394 0.0963648 0)
  (-0.0677259 0.0644012 0)
  (-0.0707747 0.0267867 0)
  (-0.0606787 -0.021763 0)
  (-0.0414103 -0.0743945 0)
  (-0.0208352 -0.115468 0)
  (-0.0015827 -0.139485 0)
  (0.0146088 -0.14576 0)
  (0.0269845 -0.137816 0)
  (0.0366789 -0.119812 0)
  (0.0444942 -0.0953238 0)
  (0.0517159 -0.0678746 0)
  (0.0602902 -0.0412336 0)
  (0.0729169 -0.0216172 0)
  (0.0834269 -0.020556 0)
  (0.0845045 -0.0279985 0)
  (0.0782199 -0.0287188 0)
  (0.0700492 -0.0258423 0)
  (0.0632001 -0.0220554 0)
  (0.0578892 -0.0175801 0)
  (0.0544888 -0.0123096 0)
  (0.0538759 -0.00662934 0)
  (0.0557721 -0.00388729 0)
  (0.058074 -0.00296278 0)
  (0.060325 -0.00233003 0)
  (0.0624804 -0.000969008 0)
  (0.0642526 0.00175295 0)
  (0.0644396 0.00600151 0)
  (0.0623805 0.0119665 0)
  (0.0574392 0.020227 0)
  (0.051036 0.0349176 0)
  (0.0411077 0.0524324 0)
  (0.064526 0.0722751 0)
  (-0.0238721 0.101331 0)
  (0.0464653 0.0309272 0)
  (-0.0619693 -0.0341768 0)
  (-0.27272 -0.0569082 0)
  (0.73032 0.433834 0)
  (-0.29236 0.191558 0)
  (-0.00332452 0.126675 0)
  (-0.0160571 0.0976457 0)
  (-0.0119827 0.0668593 0)
  (-0.0063203 0.0237238 0)
  (0.0225933 -0.0390677 0)
  (0.0443814 -0.0947622 0)
  (0.0598539 -0.132794 0)
  (0.0691948 -0.151966 0)
  (0.073079 -0.154267 0)
  (0.0729189 -0.143308 0)
  (0.070219 -0.123136 0)
  (0.0664868 -0.0977519 0)
  (0.0632013 -0.0708198 0)
  (0.0617536 -0.0459875 0)
  (0.0629839 -0.0274761 0)
  (0.0637899 -0.0200314 0)
  (0.0605425 -0.0194676 0)
  (0.0535982 -0.0194548 0)
  (0.0456717 -0.0179823 0)
  (0.0389231 -0.0157094 0)
  (0.0338891 -0.0129827 0)
  (0.0308757 -0.00986811 0)
  (0.0301651 -0.00697283 0)
  (0.0314379 -0.00589929 0)
  (0.0336899 -0.00589913 0)
  (0.0365033 -0.00576785 0)
  (0.039734 -0.00451873 0)
  (0.0431529 -0.0012496 0)
  (0.0465638 0.00453399 0)
  (0.0486256 0.0125611 0)
  (0.0495009 0.0228693 0)
  (0.0505313 0.0368379 0)
  (0.0497997 0.0540976 0)
  (0.0732098 0.0767681 0)
  (0.0525119 0.0947502 0)
  (0.0936607 0.0668255 0)
  (0.116331 0.0442125 0)
  (-0.128731 -0.00676202 0)
  (0.782345 0.47515 0)
  (-0.313295 0.177017 0)
  (0.0235325 0.0771573 0)
  (0.0426657 0.0738179 0)
  (0.057847 0.0521374 0)
  (0.0848332 0.000687987 0)
  (0.118902 -0.0634535 0)
  (0.138077 -0.112155 0)
  (0.144373 -0.141475 0)
  (0.140489 -0.15289 0)
  (0.129179 -0.149394 0)
  (0.113366 -0.134757 0)
  (0.0956258 -0.112867 0)
  (0.0781985 -0.0876301 0)
  (0.0627633 -0.0622461 0)
  (0.050548 -0.0398074 0)
  (0.0419829 -0.0233794 0)
  (0.0355353 -0.0150188 0)
  (0.0290316 -0.0125204 0)
  (0.0219558 -0.0120125 0)
  (0.0152032 -0.0113468 0)
  (0.0096842 -0.0104016 0)
  (0.00571961 -0.00933306 0)
  (0.00350018 -0.00821919 0)
  (0.00312342 -0.00747598 0)
  (0.004249 -0.00774999 0)
  (0.00625242 -0.00857143 0)
  (0.0088677 -0.00911173 0)
  (0.0121401 -0.00853572 0)
  (0.0162283 -0.00587008 0)
  (0.0219619 -1.09254e-05 0)
  (0.0285196 0.0087844 0)
  (0.0347592 0.0192228 0)
  (0.0424557 0.0315806 0)
  (0.050941 0.0456694 0)
  (0.0738878 0.063908 0)
  (0.087738 0.0719929 0)
  (0.119751 0.051167 0)
  (0.158917 0.0434625 0)
  (-0.0355035 0.092772 0)
  (0.887049 0.477831 0)
  (-0.0706242 0.156676 0)
  (0.106138 0.00383445 0)
  (0.169371 -0.0167554 0)
  (0.182493 -0.0358774 0)
  (0.218254 -0.0699344 0)
  (0.239968 -0.102599 0)
  (0.242333 -0.125847 0)
  (0.228197 -0.137197 0)
  (0.202525 -0.136902 0)
  (0.170196 -0.126747 0)
  (0.135438 -0.109371 0)
  (0.101291 -0.0874842 0)
  (0.0702436 -0.0643433 0)
  (0.0437477 -0.0423537 0)
  (0.0231423 -0.0240871 0)
  (0.0088709 -0.0120005 0)
  (-0.000434487 -0.00650695 0)
  (-0.00703075 -0.00539234 0)
  (-0.0125569 -0.00573795 0)
  (-0.0173183 -0.00617177 0)
  (-0.0211362 -0.00652174 0)
  (-0.0239268 -0.00686508 0)
  (-0.0256283 -0.00729754 0)
  (-0.0262842 -0.00802989 0)
  (-0.0261975 -0.00922942 0)
  (-0.0257498 -0.0106497 0)
  (-0.0250799 -0.0118646 0)
  (-0.0240548 -0.0123991 0)
  (-0.0222977 -0.0116975 0)
  (-0.0189424 -0.00905353 0)
  (-0.0112749 -0.00366878 0)
  (-0.000672745 0.00412346 0)
  (0.0106103 0.0122719 0)
  (0.0232754 0.0187569 0)
  (0.0442912 0.0255732 0)
  (0.0642539 0.0200137 0)
  (0.0835307 -0.00177243 0)
  (0.141223 0.0482885 0)
  (-0.432762 0.205029 0)
  (1.03219 0.430106 0)
  (0.497046 0.285148 0)
  (0.503317 0.191476 0)
  (0.511867 0.119885 0)
  (0.487344 0.0682892 0)
  (0.444341 0.0147866 0)
  (0.394187 -0.0334634 0)
  (0.34054 -0.0675074 0)
  (0.283119 -0.0849257 0)
  (0.22436 -0.0878098 0)
  (0.167581 -0.0802209 0)
  (0.115534 -0.0661613 0)
  (0.0692496 -0.0484102 0)
  (0.0306065 -0.030367 0)
  (-0.000859904 -0.0141917 0)
  (-0.0216443 -0.0041533 0)
  (-0.0327106 -0.000350341 0)
  (-0.0388189 0.000249921 0)
  (-0.0427392 -0.000592586 0)
  (-0.0460207 -0.00178845 0)
  (-0.0490818 -0.00292366 0)
  (-0.0518536 -0.00400507 0)
  (-0.0543202 -0.00508136 0)
  (-0.0564839 -0.00619876 0)
  (-0.0584711 -0.00742406 0)
  (-0.0605642 -0.00876139 0)
  (-0.0630956 -0.0100243 0)
  (-0.0663573 -0.0108742 0)
  (-0.0706531 -0.0108318 0)
  (-0.0763863 -0.00926015 0)
  (-0.0840602 -0.00539534 0)
  (-0.0941085 0.00150079 0)
  (-0.104703 0.0111015 0)
  (-0.11838 0.0233335 0)
  (-0.140048 0.0382482 0)
  (-0.171884 0.0552721 0)
  (-0.217801 0.0714477 0)
  (-0.274157 0.084646 0)
  (-0.350336 0.0931666 0)
  (-0.617611 0.0904124 0)
  (-0.147562 0.0828735 0)
  (0.134741 0.0615384 0)
  (0.217791 0.00556514 0)
  (0.201272 -0.029197 0)
  (0.185455 -0.0433777 0)
  (0.162812 -0.047856 0)
  (0.130224 -0.0460557 0)
  (0.0916126 -0.0395226 0)
  (0.0517537 -0.0296747 0)
  (0.0137818 -0.0173281 0)
  (-0.0233479 -0.00359303 0)
  (-0.0469313 0.00405441 0)
  (-0.0612655 0.00749986 0)
  (-0.068139 0.00795871 0)
  (-0.0715023 0.00724417 0)
  (-0.0736735 0.0063388 0)
  (-0.0755095 0.00547979 0)
  (-0.0773592 0.00476142 0)
  (-0.0793119 0.0041028 0)
  (-0.0815042 0.00335761 0)
  (-0.0839759 0.00242391 0)
  (-0.0866971 0.00138696 0)
  (-0.0897474 0.000337299 0)
  (-0.0932443 -0.000584853 0)
  (-0.0972721 -0.0011433 0)
  (-0.101843 -0.00103298 0)
  (-0.106889 8.97056e-05 0)
  (-0.112235 0.00257876 0)
  (-0.11742 0.00682819 0)
  (-0.121496 0.0134412 0)
  (-0.124908 0.0235312 0)
  (-0.127609 0.0376115 0)
  (-0.130099 0.0552563 0)
  (-0.132165 0.0741346 0)
  (-0.130594 0.0872976 0)
  (-0.113063 0.0804141 0)
  (-0.072644 0.0261127 0)
  (-0.198265 -0.17643 0)
  (-0.0230334 0.231034 0)
  (0.0633956 0.0994236 0)
  (0.0372936 0.0188631 0)
  (0.0251577 -0.0044826 0)
  (0.0156274 -0.00975358 0)
  (-0.0032119 -0.0109773 0)
  (-0.0282135 -0.0084172 0)
  (-0.0538723 -0.00378988 0)
  (-0.0755241 0.000754818 0)
  (-0.0903581 0.00378364 0)
  (-0.0973901 0.00404661 0)
  (-0.0998365 0.00184758 0)
  (-0.100076 -0.00107893 0)
  (-0.099332 -0.00438897 0)
  (-0.0986865 -0.0077638 0)
  (-0.098529 -0.0109847 0)
  (-0.0988988 -0.0139488 0)
  (-0.0997059 -0.0164765 0)
  (-0.100811 -0.0184128 0)
  (-0.102115 -0.0196952 0)
  (-0.103594 -0.0203455 0)
  (-0.105317 -0.0204778 0)
  (-0.107267 -0.0201065 0)
  (-0.109436 -0.0193728 0)
  (-0.111762 -0.018282 0)
  (-0.114073 -0.0166431 0)
  (-0.116057 -0.0141241 0)
  (-0.117271 -0.0102116 0)
  (-0.117241 -0.00466981 0)
  (-0.115144 0.00290254 0)
  (-0.109685 0.0132048 0)
  (-0.0995415 0.0268773 0)
  (-0.0841434 0.0437277 0)
  (-0.0638991 0.0606618 0)
  (-0.0401271 0.0696315 0)
  (0.0284573 0.037777 0)
  (0.147214 -0.0414866 0)
  (-0.0495478 -0.0651789 0)
  (-0.103995 -0.348939 0)
  (-0.439524 -0.120378 0)
  (-0.310915 0.0956574 0)
  (-0.226794 -0.02037 0)
  (-0.180358 -0.041557 0)
  (-0.166003 -0.0294628 0)
  (-0.163606 -0.0165792 0)
  (-0.164889 -0.00633963 0)
  (-0.165359 0.00218588 0)
  (-0.163045 0.00966012 0)
  (-0.158274 0.016518 0)
  (-0.151177 0.0227524 0)
  (-0.142683 0.0281117 0)
  (-0.134211 0.0326276 0)
  (-0.126595 0.0368661 0)
  (-0.12016 0.0410435 0)
  (-0.114907 0.0452476 0)
  (-0.110661 0.0493097 0)
  (-0.107274 0.0528959 0)
  (-0.104647 0.0556752 0)
  (-0.102705 0.0574291 0)
  (-0.101389 0.0580875 0)
  (-0.100641 0.0577047 0)
  (-0.100425 0.0564172 0)
  (-0.100701 0.0543295 0)
  (-0.101391 0.0517806 0)
  (-0.102368 0.0490149 0)
  (-0.103419 0.0461384 0)
  (-0.104189 0.0432275 0)
  (-0.104102 0.0403408 0)
  (-0.102102 0.0381869 0)
  (-0.0965894 0.0374201 0)
  (-0.0853937 0.0387015 0)
  (-0.0665856 0.042785 0)
  (-0.0402434 0.0501639 0)
  (-0.00528314 0.0598907 0)
  (0.0325078 0.0564492 0)
  (0.0902914 0.0195051 0)
  (0.118764 -0.0190122 0)
  (-0.505012 0.0595279 0)
)
;

boundaryField
{
  floor
  {
    type noSlip;
  }
  ceiling
  {
    type noSlip;
  }
  sWall
  {
    type noSlip;
  }
  nWall
  {
    type noSlip;
  }
  sideWalls
  {
    type empty;
  }
  glass1
  {
    type noSlip;
  }
  glass2
  {
    type noSlip;
  }
  sun
  {
    type noSlip;
  }
  heatsource1
  {
    type noSlip;
  }
  heatsource2
  {
    type noSlip;
  }
  Table_master
  {
    type noSlip;
  }
  Table_slave
  {
    type noSlip;
  }
  inlet
  {
    type fixedValue;
    value uniform (0.3 0 0);
  }
  outlet
  {
    type zeroGradient;
  }
} 	// ************************************************************************* //

