/*--------------------------------*- C++ -*----------------------------------*\
  =========                 |
  \\      /  F ield         | OpenFOAM: The Open Source CFD Toolbox
   \\    /   O peration     | Website:  https://openfoam.org
    \\  /    A nd           | Version:  6
     \\/     M anipulation  |
\*---------------------------------------------------------------------------*/
FoamFile
{
    version     2.0;
    format      ascii;
    class       volScalarField;
    location    "1100";
    object      nut;
}
// * * * * * * * * * * * * * * * * * * * * * * * * * * * * * * * * * * * * * //

dimensions      [0 2 -1 0 0 0 0];

internalField   nonuniform List<scalar> 
459
(
0.00105932
0.00115432
0.00117561
0.00123139
0.00128297
0.0013315
0.00137953
0.00142601
0.00145906
0.00147252
0.00146039
0.00141832
0.00134448
0.00124164
0.00112215
0.000460974
0.000551114
0.000621702
0.000625717
0.000607215
0.000581123
0.000545523
0.000509351
0.000476432
0.000447252
0.000421453
0.000398572
0.000378242
0.000360044
0.000343327
0.000327263
0.000310716
0.000300756
0.000275545
0.00144448
0.00341242
0.00322611
0.00374175
0.00424545
0.00475215
0.00519661
0.00553807
0.00585659
0.00612311
0.00630054
0.00634909
0.00622017
0.0057987
0.0046051
0.00114105
0.000692028
0.000482704
0.00100826
0.00140706
0.00170774
0.00188431
0.00189462
0.00150675
0.00129815
0.00114968
0.00103608
0.000946111
0.000873087
0.000810723
0.000752585
0.000696271
0.000646368
0.000601996
0.00071514
0.000368684
0.00176544
0.00463026
0.00393193
0.00491013
0.00535711
0.00568124
0.00593381
0.00615143
0.00640515
0.00668161
0.00694884
0.00715517
0.00725394
0.00717372
0.00669385
0.0051518
0.00116407
0.000914582
0.00132122
0.00171071
0.00208665
0.00236616
0.00233928
0.000776113
0.00068729
0.000615111
0.000556475
0.000508507
0.000468911
0.000435987
0.000408628
0.000386343
0.000417378
0.000481734
0.000806192
0.000431293
0.00207442
0.00593276
0.00387769
0.00513272
0.00547701
0.00555781
0.00561949
0.00573703
0.00594618
0.00623065
0.00656308
0.00686926
0.00709982
0.00719486
0.00709759
0.00655868
0.00446892
0.00136531
0.00163716
0.00208363
0.00256722
0.00299591
0.00329286
0.00314043
0.000878277
0.000804626
0.000752377
0.000712796
0.000678997
0.000647097
0.000616337
0.000583779
0.000545688
0.000512733
0.000517676
0.000935531
0.000480795
0.00238974
0.00763462
0.00419195
0.00488744
0.00536689
0.00531923
0.00526338
0.00534599
0.00554283
0.00583166
0.00620023
0.00653933
0.00678003
0.0068755
0.00682405
0.00660326
0.00604673
0.00511024
0.00478946
0.00473248
0.00477398
0.00482809
0.00483884
0.00469634
0.00400737
0.0036769
0.0034869
0.00333889
0.0031799
0.0029506
0.00262771
0.00222766
0.00177895
0.00133007
0.000981523
0.000960891
0.000655192
0.000593801
0.000716009
0.000804133
0.00272468
0.00950168
0.00577654
0.00470569
0.00516593
0.00531742
0.00516656
0.00525129
0.00541687
0.00568653
0.00604165
0.00639524
0.00663694
0.00669613
0.00658122
0.00637303
0.00616804
0.00603137
0.00603241
0.00605921
0.00603798
0.00595806
0.00582107
0.00561433
0.00529871
0.00501481
0.00476273
0.00452094
0.00427573
0.00401426
0.00367896
0.00325226
0.00273254
0.00215061
0.0016233
0.00118974
0.000910231
0.000775802
0.0011024
0.000840866
0.00303976
0.010854
0.00830677
0.00597265
0.00555124
0.0056055
0.00548061
0.00540662
0.00548174
0.00573398
0.00610662
0.00647804
0.00671062
0.00672213
0.00653752
0.00630235
0.00621954
0.00637099
0.00658554
0.00666545
0.00657379
0.00635563
0.00605406
0.00570236
0.00533537
0.00500401
0.00470918
0.00443965
0.00419224
0.003971
0.00377515
0.00350445
0.00310764
0.00261196
0.00212396
0.00166835
0.00134561
0.00124946
0.00127682
0.000962604
0.00310831
0.00986761
0.00855015
0.00755837
0.00693589
0.00631117
0.00576074
0.00551326
0.00559561
0.00593245
0.00638299
0.00677635
0.00695791
0.00686675
0.00658276
0.0063407
0.00638409
0.00666314
0.00679928
0.00666922
0.00634684
0.00591017
0.00542935
0.00496955
0.00457704
0.00426173
0.00400535
0.00379409
0.00362631
0.00350764
0.00344595
0.0034211
0.0032304
0.00291553
0.00263062
0.00248489
0.00259141
0.00299191
0.00365624
0.00149488
0.00303383
0.0036241
0.00409628
0.00424954
0.00426877
0.00434995
0.00460881
0.00507484
0.00571299
0.00640125
0.00697698
0.00729392
0.00724939
0.00688906
0.00646058
0.00635486
0.00640306
0.00640423
0.00620374
0.0057994
0.00527245
0.0047163
0.00421268
0.00380723
0.00350176
0.00327124
0.00308849
0.00293614
0.00280361
0.00268236
0.00256473
0.00245025
0.00235782
0.00228878
0.00226178
0.0022695
0.00225179
0.00215513
0.0020101
0.001399
0.00183985
0.00327203
0.00447848
0.00547775
0.00629068
0.00702576
0.00762542
0.0079519
0.00794698
0.00761949
0.00701444
0.0062922
0.00582123
0.00564937
0.00547534
0.00515944
0.00470653
0.0041859
0.0036728
0.00323629
0.002906
0.00267118
0.00250614
0.00238739
0.00229971
0.00223487
0.00218883
0.00216011
0.00215155
0.0021658
0.00218918
0.00221855
0.00224613
0.00224684
0.00218049
0.00203463
0.00182424
0.00114744
0.0021338
0.00453206
0.00615977
0.00693992
0.00745917
0.00781226
0.00786915
0.00741785
0.00666918
0.00583524
0.00511946
0.00459719
0.00424906
0.00394743
0.00358566
0.00318267
0.00279384
0.00246643
0.00222213
0.00205162
0.00193562
0.00185985
0.00181816
0.00180252
0.0018081
0.00183175
0.00187048
0.00192013
0.00198646
0.00206669
0.00215822
0.00225462
0.00234053
0.00239738
0.00237863
0.0023922
0.00236267
0.00116658
0.00183419
0.00193159
0.0020039
0.00207297
0.0018776
0.00171913
0.00164009
0.0015676
0.00146183
0.0013333
0.00118212
0.00102983
0.000893715
0.000785766
0.000708184
0.000654374
0.000616756
0.000590882
0.000574744
0.000567227
0.000567146
0.000573184
0.000584407
0.000600141
0.000619404
0.000642143
0.000668486
0.000698751
0.000733542
0.000773971
0.000819438
0.000870094
0.000926563
0.000989433
0.00105856
0.00114165
0.00116849
0.001139
0.00106666
0.000989938
)
;

boundaryField
{
    floor
    {
        type            nutkWallFunction;
        Cmu             0.09;
        kappa           0.41;
        E               9.8;
        value           nonuniform List<scalar> 
29
(
0.000135001
5.46967e-05
6.62035e-05
7.50516e-05
7.55509e-05
7.32458e-05
6.99807e-05
6.54967e-05
6.09036e-05
5.66883e-05
5.29214e-05
4.95652e-05
4.65667e-05
4.38841e-05
4.14672e-05
3.92329e-05
3.70727e-05
3.4833e-05
3.34773e-05
3.00185e-05
3.00184e-05
4.26163e-05
5.0848e-05
5.72488e-05
0.000135001
5.46966e-05
5.74942e-05
0.000110622
0.000162917
)
;
    }
    ceiling
    {
        type            nutkWallFunction;
        Cmu             0.09;
        kappa           0.41;
        E               9.8;
        value           nonuniform List<scalar> 
43
(
0.000215135
0.000225802
0.000233685
0.000241277
0.000220009
0.000202563
0.000193797
0.000185713
0.000173838
0.000159277
0.000141944
0.000124227
0.000108137
9.51733e-05
8.57277e-05
7.91041e-05
7.44352e-05
7.12039e-05
6.91799e-05
6.82349e-05
6.82249e-05
6.89844e-05
7.03933e-05
7.23629e-05
7.47659e-05
7.75907e-05
8.08484e-05
8.45721e-05
8.8829e-05
9.37458e-05
9.92394e-05
0.000105318
0.000112046
0.000119481
0.000127593
0.000137266
0.000140373
0.000136959
0.00012854
0.000119541
0.000343652
0.000404669
0.000247667
)
;
    }
    sWall
    {
        type            nutkWallFunction;
        Cmu             0.09;
        kappa           0.41;
        E               9.8;
        value           uniform 0.000215195;
    }
    nWall
    {
        type            nutkWallFunction;
        Cmu             0.09;
        kappa           0.41;
        E               9.8;
        value           nonuniform List<scalar> 6(9.73948e-05 0.000101817 0.000116319 0.000137947 0.000140163 0.000119547);
    }
    sideWalls
    {
        type            empty;
    }
    glass1
    {
        type            nutkWallFunction;
        Cmu             0.09;
        kappa           0.41;
        E               9.8;
        value           nonuniform List<scalar> 9(0.000127779 0.0001721 0.000208008 0.000241901 0.000275935 0.000311569 0.000344672 0.000351836 0.000344079);
    }
    glass2
    {
        type            nutkWallFunction;
        Cmu             0.09;
        kappa           0.41;
        E               9.8;
        value           nonuniform List<scalar> 2(0.000177641 0.000166812);
    }
    sun
    {
        type            nutkWallFunction;
        Cmu             0.09;
        kappa           0.41;
        E               9.8;
        value           nonuniform List<scalar> 
14
(
0.000127684
0.000138731
0.000141193
0.000147619
0.000153533
0.000159073
0.000164533
0.000169798
0.000173529
0.000175046
0.000173679
0.000168926
0.00016055
0.000148795
)
;
    }
    heatsource1
    {
        type            nutkWallFunction;
        Cmu             0.09;
        kappa           0.41;
        E               9.8;
        value           nonuniform List<scalar> 3(7.15719e-05 8.66873e-05 9.7394e-05);
    }
    heatsource2
    {
        type            nutkWallFunction;
        Cmu             0.09;
        kappa           0.41;
        E               9.8;
        value           nonuniform List<scalar> 4(0.00013719 8.37473e-05 8.37473e-05 0.000139854);
    }
    Table_master
    {
        type            nutkWallFunction;
        Cmu             0.09;
        kappa           0.41;
        E               9.8;
        value           nonuniform List<scalar> 9(9.40047e-05 8.31651e-05 7.42332e-05 6.68838e-05 6.08011e-05 5.57265e-05 5.14664e-05 4.78955e-05 4.49645e-05);
    }
    Table_slave
    {
        type            nutkWallFunction;
        Cmu             0.09;
        kappa           0.41;
        E               9.8;
        value           nonuniform List<scalar> 9(0.000106294 9.74528e-05 9.11233e-05 8.62939e-05 8.21447e-05 7.82058e-05 7.43855e-05 7.03167e-05 6.55211e-05);
    }
    inlet
    {
        type            calculated;
        value           uniform 0.000100623;
    }
    outlet
    {
        type            calculated;
        value           nonuniform List<scalar> 2(0.00183419 0.00193159);
    }
}


// ************************************************************************* //
