// -*- C++ -*-
// File generated by PyFoam - sorry for the ugliness

FoamFile
{
 version 2.0;
 format ascii;
 class volScalarField;
 location "600";
 object T;
}

dimensions [ 0 0 0 1 0 0 0 ];

internalField nonuniform List<scalar> 459
(
  303.305
  303.049
  303.035
  303.03
  303.026
  303.021
  303.015
  303.006
  302.995
  302.985
  302.981
  302.983
  302.999
  303.013
  303.036
  303.302
  303.268
  303.244
  303.241
  303.251
  303.262
  303.273
  303.285
  303.297
  303.309
  303.322
  303.335
  303.348
  303.362
  303.376
  303.392
  303.41
  303.434
  303.474
  303.472
  303.088
  303.063
  303.063
  303.063
  303.06
  303.051
  303.031
  303.004
  302.981
  302.969
  302.971
  302.983
  302.996
  303.012
  303.015
  303.021
  303.311
  303.233
  303.208
  303.21
  303.223
  303.239
  303.249
  303.259
  303.269
  303.28
  303.291
  303.302
  303.314
  303.327
  303.341
  303.358
  303.38
  303.411
  303.463
  303.649
  303.138
  303.101
  303.111
  303.122
  303.126
  303.114
  303.076
  303.025
  302.982
  302.96
  302.962
  302.976
  302.991
  303.003
  303.01
  303.017
  303.243
  303.191
  303.178
  303.192
  303.218
  303.244
  303.249
  303.257
  303.266
  303.275
  303.285
  303.297
  303.309
  303.322
  303.336
  303.354
  303.376
  303.407
  303.462
  303.832
  303.201
  303.144
  303.166
  303.197
  303.217
  303.2
  303.133
  303.047
  302.981
  302.95
  302.953
  302.972
  302.993
  303.007
  303.016
  303.022
  303.032
  303.056
  303.093
  303.14
  303.191
  303.241
  303.282
  303.315
  303.341
  303.364
  303.384
  303.404
  303.422
  303.438
  303.453
  303.466
  303.439
  303.421
  303.424
  303.467
  304.013
  303.281
  303.193
  303.219
  303.273
  303.318
  303.285
  303.177
  303.057
  302.973
  302.938
  302.944
  302.973
  303.006
  303.029
  303.041
  303.053
  303.073
  303.106
  303.152
  303.207
  303.264
  303.318
  303.365
  303.406
  303.439
  303.466
  303.489
  303.507
  303.52
  303.528
  303.53
  303.525
  303.5
  303.466
  303.448
  303.471
  303.583
  303.646
  303.647
  304.179
  303.384
  303.268
  303.282
  303.351
  303.402
  303.327
  303.186
  303.045
  302.95
  302.917
  302.936
  302.983
  303.035
  303.074
  303.1
  303.123
  303.156
  303.2
  303.254
  303.313
  303.37
  303.423
  303.467
  303.505
  303.535
  303.56
  303.579
  303.592
  303.599
  303.599
  303.593
  303.579
  303.551
  303.513
  303.481
  303.481
  303.532
  303.561
  303.601
  304.337
  303.547
  303.428
  303.435
  303.502
  303.468
  303.322
  303.135
  302.978
  302.892
  302.884
  302.933
  303.013
  303.093
  303.155
  303.2
  303.236
  303.279
  303.33
  303.384
  303.439
  303.491
  303.536
  303.573
  303.603
  303.627
  303.646
  303.659
  303.667
  303.667
  303.66
  303.648
  303.628
  303.599
  303.562
  303.526
  303.511
  303.527
  303.545
  303.578
  304.557
  303.968
  303.831
  303.79
  303.698
  303.476
  303.201
  302.965
  302.825
  302.796
  302.853
  302.96
  303.089
  303.201
  303.284
  303.338
  303.376
  303.421
  303.472
  303.522
  303.568
  303.609
  303.643
  303.67
  303.69
  303.706
  303.717
  303.723
  303.724
  303.72
  303.71
  303.695
  303.676
  303.649
  303.618
  303.589
  303.577
  303.594
  303.615
  303.731
  304.874
  304.592
  304.344
  304.097
  303.597
  303.073
  302.712
  302.555
  302.572
  302.709
  302.89
  303.074
  303.26
  303.377
  303.439
  303.48
  303.518
  303.561
  303.605
  303.646
  303.682
  303.71
  303.733
  303.749
  303.76
  303.767
  303.769
  303.768
  303.763
  303.756
  303.748
  303.74
  303.734
  303.733
  303.739
  303.755
  303.783
  303.814
  303.836
  303.895
  296.382
  297.547
  298.842
  300.124
  301.127
  301.895
  302.47
  302.927
  303.216
  303.374
  303.472
  303.535
  303.578
  303.613
  303.647
  303.683
  303.717
  303.747
  303.771
  303.788
  303.8
  303.807
  303.81
  303.81
  303.807
  303.802
  303.796
  303.79
  303.784
  303.78
  303.778
  303.779
  303.786
  303.8
  303.82
  303.844
  303.87
  303.932
  296.78
  298.424
  299.975
  301.506
  302.329
  302.834
  303.159
  303.367
  303.493
  303.574
  303.628
  303.667
  303.699
  303.727
  303.754
  303.779
  303.801
  303.819
  303.832
  303.839
  303.843
  303.843
  303.841
  303.838
  303.833
  303.828
  303.823
  303.817
  303.813
  303.809
  303.806
  303.806
  303.809
  303.816
  303.828
  303.851
  303.883
  303.911
  299.812
  299.735
  299.729
  301.882
  302.779
  303.154
  303.359
  303.496
  303.592
  303.659
  303.707
  303.742
  303.769
  303.79
  303.809
  303.824
  303.837
  303.848
  303.855
  303.86
  303.862
  303.861
  303.859
  303.856
  303.853
  303.849
  303.845
  303.841
  303.837
  303.833
  303.83
  303.827
  303.824
  303.823
  303.823
  303.826
  303.835
  303.849
  303.912
  304.017
)
;

boundaryField
{
  floor
  {
    type wallHeatTransfer;
    Tinf uniform 305.2;
    alphaWall uniform 0.24;
    value nonuniform List<scalar> 29
(
  303.291
  303.647
  303.582
  303.528
  303.51
  303.518
  303.532
  303.555
  303.581
  303.607
  303.632
  303.658
  303.682
  303.707
  303.731
  303.755
  303.781
  303.809
  303.842
  303.901
  303.901
  303.852
  303.825
  303.81
  303.291
  303.647
  303.656
  303.515
  303.224
)
;
  }
  ceiling
  {
    type wallHeatTransfer;
    Tinf uniform 303.2;
    alphaWall uniform 0.24;
    value nonuniform List<scalar> 43
(
  300.055
  299.973
  299.961
  301.966
  302.807
  303.158
  303.348
  303.473
  303.56
  303.619
  303.66
  303.688
  303.71
  303.728
  303.743
  303.755
  303.766
  303.773
  303.778
  303.781
  303.78
  303.778
  303.775
  303.771
  303.767
  303.762
  303.758
  303.755
  303.752
  303.75
  303.748
  303.748
  303.748
  303.75
  303.753
  303.758
  303.766
  303.773
  303.826
  303.932
  304.797
  304.536
  297.195
)
;
  }
  sWall
  {
    type wallHeatTransfer;
    Tinf uniform 315.2;
    alphaWall uniform 0.36;
    value uniform 301.414;
  }
  nWall
  {
    type wallHeatTransfer;
    Tinf uniform 307.2;
    alphaWall uniform 0.36;
    value nonuniform List<scalar> 6
(
  304.322
  304.266
  304.183
  304.434
  304.408
  304.489
)
;
  }
  sideWalls
  {
    type empty;
  }
  glass1
  {
    type wallHeatTransfer;
    Tinf uniform 315.2;
    alphaWall uniform 4.3;
    value nonuniform List<scalar> 9
(
  311.255
  310.662
  310.292
  310.013
  309.78
  309.567
  309.413
  309.489
  309.718
)
;
  }
  glass2
  {
    type wallHeatTransfer;
    Tinf uniform 307.2;
    alphaWall uniform 4.3;
    value nonuniform List<scalar> 2
(
  305.918
  306.027
)
;
  }
  sun
  {
    type wallHeatTransfer;
    Tinf uniform 305.2;
    alphaWall uniform 0.24;
    value nonuniform List<scalar> 14
(
  303.492
  303.247
  303.23
  303.218
  303.207
  303.196
  303.185
  303.173
  303.161
  303.153
  303.153
  303.164
  303.198
  303.238
)
;
  }
  heatsource1
  {
    type fixedGradient;
    gradient uniform 0;
  }
  heatsource2
  {
    type fixedGradient;
    gradient uniform 0;
  }
  Table_master
  {
    type zeroGradient;
  }
  Table_slave
  {
    type zeroGradient;
  }
  inlet
  {
    type fixedValue;
    value uniform 293.15;
  }
  outlet
  {
    type zeroGradient;
  }
} 	// ************************************************************************* //

