/*--------------------------------*- C++ -*----------------------------------*\
  =========                 |
  \\      /  F ield         | OpenFOAM: The Open Source CFD Toolbox
   \\    /   O peration     | Website:  https://openfoam.org
    \\  /    A nd           | Version:  6
     \\/     M anipulation  |
\*---------------------------------------------------------------------------*/
FoamFile
{
    version     2.0;
    format      ascii;
    class       volScalarField;
    location    "1100";
    object      alphat;
}
// * * * * * * * * * * * * * * * * * * * * * * * * * * * * * * * * * * * * * //

dimensions      [1 -1 -1 0 0 0 0];

internalField   nonuniform List<scalar> 
459
(
0.00123817
0.0013506
0.00137534
0.0014408
0.00150153
0.00155886
0.00161589
0.00166994
0.00170748
0.00172114
0.00170393
0.00165096
0.00155985
0.00143323
0.0012858
0.000538822
0.000642283
0.000725007
0.000732557
0.000712208
0.000682487
0.000640734
0.00059805
0.000559163
0.000524692
0.000494224
0.000467213
0.000443246
0.000421796
0.000402096
0.000383179
0.000363744
0.000352703
0.000323786
0.00168757
0.00400476
0.00378735
0.00439205
0.00498334
0.00557565
0.00608839
0.00648954
0.00686097
0.00716794
0.00736823
0.00741862
0.00726801
0.006795
0.00548347
0.00130793
0.000815082
0.00056161
0.00118126
0.00165744
0.0020221
0.00224001
0.00225254
0.00177841
0.00152745
0.00134974
0.00121418
0.00110709
0.0010203
0.000946002
0.000877046
0.000810546
0.000751637
0.000699406
0.000840144
0.000434221
0.00206077
0.0054336
0.00461479
0.00574722
0.00626246
0.0066376
0.00693223
0.00719473
0.00749811
0.00782466
0.00813552
0.00837165
0.00848115
0.0083772
0.00780484
0.00597792
0.00135197
0.00104883
0.00153127
0.00200041
0.00246209
0.00280903
0.00277663
0.00090945
0.000804347
0.000719053
0.000649867
0.00059335
0.000546757
0.000508068
0.000475972
0.000449932
0.000486807
0.000562129
0.000954425
0.000509488
0.00241881
0.00695398
0.00455758
0.00599887
0.00638436
0.00647844
0.00656265
0.00671647
0.00697377
0.00731526
0.00770439
0.0080561
0.00831408
0.00840459
0.00827238
0.00761349
0.00509077
0.00157889
0.00189684
0.00242613
0.00301006
0.00353464
0.00389894
0.00371283
0.00103029
0.000943634
0.000882402
0.000836067
0.000796353
0.000758557
0.000722025
0.000683269
0.000637844
0.000597731
0.00060504
0.0011204
0.00056789
0.00278314
0.00893385
0.00493086
0.00572502
0.00625299
0.00619726
0.00615461
0.00627498
0.00651639
0.00686541
0.00729581
0.00768225
0.00794456
0.00803452
0.00795773
0.00768932
0.00703104
0.00596039
0.00559812
0.00554692
0.00561136
0.00568619
0.00570196
0.00552605
0.0046984
0.00430112
0.00407179
0.00389275
0.00370111
0.00342765
0.00304291
0.00256967
0.00204391
0.00152562
0.00112823
0.00112837
0.000774909
0.000701141
0.000842578
0.000946576
0.00316945
0.0111016
0.00677959
0.00554471
0.00606198
0.00622811
0.00606727
0.00617574
0.00637562
0.00669998
0.00711765
0.00751976
0.00777835
0.0078202
0.00766853
0.00742723
0.00720808
0.00707538
0.00709448
0.00713326
0.00710795
0.0070082
0.00683744
0.00658112
0.00619349
0.00584622
0.00553971
0.00524778
0.00495408
0.00464396
0.00424762
0.00374433
0.00313496
0.00246022
0.00185753
0.00136906
0.00106703
0.000919764
0.00131172
0.000991841
0.00353152
0.0126625
0.00971548
0.00703069
0.00657207
0.00660641
0.00644035
0.00634994
0.006449
0.00675742
0.00719624
0.00761643
0.007859
0.00783999
0.00760666
0.00734413
0.00729048
0.00750798
0.0077662
0.0078479
0.00772566
0.00745772
0.00709421
0.00667012
0.00622317
0.00581724
0.00545699
0.00513083
0.0048356
0.00457587
0.00434947
0.00403616
0.0035748
0.00299846
0.00243728
0.00192175
0.00156948
0.00148224
0.0015324
0.00114637
0.00360727
0.0114757
0.0099568
0.00881906
0.00812786
0.0073603
0.00672029
0.0064567
0.00658261
0.00699512
0.00752063
0.00795785
0.00813198
0.00798912
0.00764647
0.00739244
0.00750345
0.00785336
0.00798621
0.00781889
0.00743598
0.00692146
0.00634974
0.00579386
0.00531251
0.00492487
0.00461356
0.00436299
0.00417004
0.00403901
0.00397607
0.00395397
0.00374543
0.0033863
0.00307125
0.00293238
0.00311005
0.00364096
0.00443317
0.00176486
0.00351639
0.00420227
0.00475068
0.00492712
0.00494528
0.00506404
0.00540212
0.00598618
0.00675836
0.00756297
0.0082099
0.00853618
0.00843049
0.00797556
0.00750295
0.00740887
0.00748294
0.00747751
0.00723578
0.00676779
0.00615595
0.00549898
0.00489226
0.00439799
0.004027
0.00375309
0.00354339
0.00337511
0.00323353
0.00310711
0.00298627
0.0028692
0.00277609
0.00270894
0.00268747
0.00270005
0.00267435
0.00254949
0.00237077
0.00164252
0.00218019
0.0038549
0.00531828
0.00653676
0.00751552
0.00838048
0.00903477
0.00934144
0.00926324
0.00882465
0.00806433
0.00722453
0.00671657
0.0065271
0.00632884
0.00596499
0.00544084
0.00483575
0.00423666
0.00371543
0.00332122
0.00304823
0.00286602
0.00274394
0.00266093
0.00260488
0.00256926
0.00255132
0.00255352
0.00258
0.00261546
0.00265613
0.00269205
0.00269278
0.00261131
0.00243713
0.00218169
0.00134398
0.00252937
0.00539649
0.00736285
0.00826725
0.00885779
0.00923971
0.00912849
0.00848288
0.00754789
0.00657239
0.00576169
0.00518012
0.00479923
0.00446037
0.00404617
0.00357343
0.00310768
0.00271285
0.00242242
0.0022354
0.00212057
0.00205578
0.00203265
0.00204019
0.00207175
0.002123
0.00218989
0.00226684
0.00236014
0.0024673
0.00258538
0.00270634
0.00281162
0.00288313
0.00285904
0.00287261
0.00279867
0.00136537
0.00230701
0.00232245
0.00236589
0.00243714
0.00219691
0.00200583
0.00191057
0.00181625
0.00168374
0.00152264
0.00134249
0.00116582
0.00101035
0.000886836
0.000797296
0.000734372
0.000689956
0.000659504
0.000641159
0.000633764
0.00063577
0.000645449
0.000661337
0.00068265
0.00070805
0.000737432
0.000770924
0.000808897
0.00085209
0.000901901
0.000957807
0.00101983
0.00108869
0.00116503
0.00124857
0.00135183
0.00137925
0.00134185
0.00125653
0.00116349
)
;

boundaryField
{
    floor
    {
        type            compressible::alphatWallFunction;
        Prt             0.85;
        value           nonuniform List<scalar> 
29
(
0.000181936
7.51551e-05
9.06761e-05
0.000102866
0.00010397
0.000100992
9.66237e-05
9.04474e-05
8.4082e-05
7.82342e-05
7.30083e-05
6.83535e-05
6.41966e-05
6.04828e-05
5.71372e-05
5.40454e-05
5.10582e-05
4.79692e-05
4.62049e-05
4.15496e-05
4.1549e-05
5.90774e-05
7.06894e-05
7.95505e-05
0.000181934
7.51542e-05
7.86023e-05
0.000149148
0.000221562
)
;
    }
    ceiling
    {
        type            compressible::alphatWallFunction;
        Prt             0.85;
        value           nonuniform List<scalar> 
43
(
0.000316806
0.000318673
0.000324231
0.000333448
0.000302696
0.000277962
0.000265539
0.000253167
0.000235656
0.000214154
0.000189806
0.000165564
0.00014388
0.000126375
0.000113506
0.000104359
9.78455e-05
9.33505e-05
9.06301e-05
8.95307e-05
8.98288e-05
9.12664e-05
9.36207e-05
9.67681e-05
0.000100504
0.000104805
0.000109682
0.000115182
0.0001214
0.000128525
0.000136467
0.000145215
0.000154854
0.000165459
0.000176973
0.000191086
0.000194813
0.000189728
0.000178068
0.00016525
0.000468579
0.00055198
0.000344945
)
;
    }
    sWall
    {
        type            compressible::alphatWallFunction;
        Prt             0.85;
        value           uniform 0.000315634;
    }
    nWall
    {
        type            compressible::alphatWallFunction;
        Prt             0.85;
        value           nonuniform List<scalar> 6(0.000134547 0.000140939 0.000162528 0.000189686 0.000192593 0.000164921);
    }
    sideWalls
    {
        type            empty;
    }
    glass1
    {
        type            compressible::alphatWallFunction;
        Prt             0.85;
        value           nonuniform List<scalar> 9(0.000171079 0.000230887 0.000279341 0.000325027 0.000370848 0.000418795 0.000463229 0.000472598 0.000461743);
    }
    glass2
    {
        type            compressible::alphatWallFunction;
        Prt             0.85;
        value           nonuniform List<scalar> 2(0.000244587 0.000228504);
    }
    sun
    {
        type            compressible::alphatWallFunction;
        Prt             0.85;
        value           nonuniform List<scalar> 
14
(
0.000175428
0.000190784
0.000194147
0.000203011
0.000211196
0.000218888
0.000226508
0.000233703
0.000238685
0.000240493
0.000238212
0.000231175
0.000219015
0.000201983
)
;
    }
    heatsource1
    {
        type            compressible::alphatWallFunction;
        Prt             0.85;
        value           nonuniform List<scalar> 3(9.94851e-05 0.00012003 0.000134872);
    }
    heatsource2
    {
        type            compressible::alphatWallFunction;
        Prt             0.85;
        value           nonuniform List<scalar> 4(0.000185096 0.000116072 0.000116071 0.000191098);
    }
    Table_master
    {
        type            compressible::alphatWallFunction;
        Prt             0.85;
        value           nonuniform List<scalar> 9(0.000129595 0.000114519 0.000102111 9.1916e-05 8.34891e-05 7.64675e-05 7.05802e-05 6.56535e-05 6.16254e-05);
    }
    Table_slave
    {
        type            compressible::alphatWallFunction;
        Prt             0.85;
        value           nonuniform List<scalar> 9(0.000146681 0.000134456 0.000125739 0.000119095 0.000113365 0.000107881 0.000102548 9.68557e-05 9.01329e-05);
    }
    inlet
    {
        type            fixedValue;
        value           uniform 1.94e-05;
    }
    outlet
    {
        type            zeroGradient;
    }
}


// ************************************************************************* //
