/*--------------------------------*- C++ -*----------------------------------*\
  =========                 |
  \\      /  F ield         | OpenFOAM: The Open Source CFD Toolbox
   \\    /   O peration     | Website:  https://openfoam.org
    \\  /    A nd           | Version:  6
     \\/     M anipulation  |
\*---------------------------------------------------------------------------*/
FoamFile
{
    version     2.0;
    format      ascii;
    class       volScalarField;
    location    "400";
    object      nut;
}
// * * * * * * * * * * * * * * * * * * * * * * * * * * * * * * * * * * * * * //

dimensions      [0 2 -1 0 0 0 0];

internalField   nonuniform List<scalar> 
459
(
0.00121347
0.00133893
0.00138152
0.00145609
0.00152953
0.00160629
0.00167298
0.00171565
0.00172523
0.00169632
0.00162102
0.00145711
0.00130169
0.00112523
0.000960683
0.000536352
0.000629214
0.000738885
0.000803838
0.000813978
0.000795572
0.000746253
0.000693009
0.000644985
0.000603146
0.000566788
0.000535095
0.000507199
0.00048249
0.000460032
0.000438599
0.000416442
0.000394038
0.000356232
0.00159547
0.00407707
0.00399822
0.00464825
0.00529001
0.00580037
0.0062252
0.00659034
0.00686303
0.00701418
0.00699727
0.00672843
0.00619085
0.00512396
0.00341696
0.00117589
0.000943123
0.000526381
0.00131284
0.00210575
0.00277304
0.00318466
0.00314634
0.00219446
0.00181001
0.00156208
0.00138365
0.00124878
0.00114328
0.00105943
0.000982486
0.000900734
0.000821609
0.000751036
0.000787831
0.00041013
0.0019076
0.00552946
0.00494311
0.00574069
0.00613249
0.00642917
0.00671464
0.00703041
0.00737499
0.00771395
0.00794572
0.00795944
0.00773595
0.00717999
0.0059195
0.00383624
0.00115181
0.000694466
0.00139157
0.00228816
0.00326169
0.00396759
0.00381687
0.00101961
0.00088535
0.000776937
0.000690266
0.00062068
0.000564329
0.000518312
0.000481403
0.000453988
0.000510595
0.0006088
0.000894842
0.000446576
0.00220214
0.00686582
0.00506762
0.00592104
0.00605874
0.00617407
0.00634001
0.00660574
0.00699316
0.00745039
0.00780369
0.00797963
0.00796601
0.00773383
0.00708389
0.00574224
0.00309314
0.00129554
0.00152538
0.00223259
0.00331525
0.0044314
0.0051948
0.00486313
0.00115885
0.00104808
0.000963387
0.000894711
0.000835506
0.000780464
0.000726089
0.000669555
0.000606365
0.000555921
0.000591607
0.00100658
0.000476432
0.00249986
0.00855046
0.00555893
0.00603449
0.00611349
0.0060782
0.0061175
0.00633516
0.00674399
0.00722129
0.00761271
0.00781723
0.00783324
0.00770862
0.0074108
0.00677861
0.00558361
0.00486515
0.00519523
0.00580869
0.00649886
0.00704616
0.00730585
0.007073
0.00574562
0.0050289
0.00455581
0.00414065
0.00369526
0.00321356
0.00269608
0.00215364
0.00161134
0.00113552
0.000864736
0.000996435
0.000600639
0.000561643
0.000680955
0.000766066
0.00281515
0.0104243
0.00735083
0.00661475
0.00656734
0.00627886
0.00614204
0.00628926
0.00670388
0.00721689
0.00762567
0.00780768
0.00778399
0.0076833
0.00762132
0.00759459
0.00748501
0.00765137
0.00820781
0.00867864
0.00896606
0.00902967
0.00886747
0.00846478
0.0077671
0.00709204
0.00647486
0.00586195
0.00523416
0.00458005
0.00389225
0.00317466
0.00245344
0.00179274
0.00133705
0.00113141
0.000838004
0.000724368
0.00103822
0.000800142
0.0030934
0.0116877
0.00986623
0.00818461
0.00728435
0.00652242
0.00621315
0.00636924
0.00685859
0.00744077
0.00786888
0.00802241
0.00798327
0.00800838
0.00833271
0.00881097
0.00925177
0.00973386
0.0101869
0.0103565
0.0102707
0.00997369
0.00951368
0.00892681
0.00823455
0.00753506
0.00685961
0.00620292
0.00554747
0.00490411
0.00426572
0.00362396
0.00298282
0.00236346
0.00188563
0.00154802
0.00126803
0.00119467
0.00121613
0.00092425
0.00314478
0.0100486
0.00909983
0.00792056
0.00677215
0.00611878
0.00606516
0.0065107
0.00723068
0.00791999
0.00832982
0.00842455
0.00844668
0.00888764
0.00959662
0.0100946
0.0104703
0.0107712
0.0109105
0.0107747
0.0103851
0.00981072
0.00911268
0.00833799
0.00752968
0.0067504
0.00602366
0.00534186
0.0047291
0.00421803
0.00381125
0.00345204
0.00310028
0.0027231
0.00246296
0.00236921
0.00248207
0.00286889
0.00354489
0.00142381
0.00306351
0.00361457
0.00396297
0.00405628
0.00430032
0.00493694
0.00591825
0.00705967
0.00809015
0.00871738
0.00884868
0.00885136
0.0092491
0.009775
0.0101879
0.0104232
0.0105445
0.0105392
0.0103385
0.00990451
0.00926804
0.00848755
0.0076179
0.00671488
0.00583511
0.00501125
0.00426146
0.00361414
0.00309213
0.00270775
0.00244837
0.00228718
0.00219
0.00213984
0.00213022
0.00214361
0.0021304
0.00204745
0.00191598
0.00134143
0.00145834
0.00299245
0.00572349
0.00768217
0.00892442
0.00957676
0.00972944
0.00944695
0.00899908
0.00888516
0.00911924
0.00932792
0.00939531
0.00936052
0.00922281
0.00892948
0.00844054
0.00776901
0.00697776
0.00614661
0.00534424
0.00461576
0.00397985
0.00343744
0.0029897
0.00264065
0.00238807
0.00222198
0.00212784
0.00209054
0.00209559
0.00212928
0.00217422
0.00220311
0.00218175
0.00210733
0.00194329
0.00114949
0.00196236
0.00595253
0.00828159
0.00919166
0.00917608
0.00869076
0.00805204
0.00751073
0.00716958
0.00699417
0.00687892
0.006763
0.00664801
0.00651307
0.00631248
0.00600654
0.00559154
0.00510662
0.00461249
0.00416013
0.00377413
0.00345552
0.00319308
0.00297314
0.00278464
0.00262029
0.00247721
0.00235783
0.00226894
0.00221834
0.00220952
0.00223566
0.00227657
0.00231274
0.00227639
0.00232241
0.00241419
0.00118172
0.00177086
0.00186798
0.00193709
0.00207713
0.00194101
0.00184025
0.00173629
0.00161086
0.00147893
0.00136089
0.00126901
0.00120602
0.0011649
0.00113678
0.0011144
0.00109226
0.00106663
0.00103609
0.0010018
0.000966596
0.000933346
0.000903809
0.000878424
0.00085684
0.000838599
0.000823665
0.000812671
0.000806841
0.000807699
0.000816692
0.00083492
0.000863103
0.000901686
0.000950512
0.00100723
0.0010777
0.00109042
0.00105042
0.000996653
0.000943314
)
;

boundaryField
{
    floor
    {
        type            nutkWallFunction;
        Cmu             0.09;
        kappa           0.41;
        E               9.8;
        value           nonuniform List<scalar> 
29
(
0.000116091
6.43385e-05
7.5989e-05
8.94847e-05
9.73641e-05
9.85879e-05
9.6367e-05
9.03844e-05
8.38728e-05
7.7948e-05
7.27428e-05
6.81839e-05
6.41807e-05
6.06328e-05
5.74699e-05
5.45776e-05
5.18009e-05
4.89122e-05
4.5971e-05
4.09587e-05
4.09586e-05
4.80827e-05
5.28315e-05
5.66852e-05
0.000116091
6.43384e-05
6.30728e-05
8.40395e-05
0.000154964
)
;
    }
    ceiling
    {
        type            nutkWallFunction;
        Cmu             0.09;
        kappa           0.41;
        E               9.8;
        value           nonuniform List<scalar> 
43
(
0.000208183
0.00021886
0.000226423
0.000241779
0.000226996
0.000215962
0.000204501
0.000190569
0.000175784
0.000162432
0.000151952
0.000144719
0.000139974
0.000136718
0.000134121
0.000131545
0.000128556
0.000124982
0.000120956
0.000116804
0.000112867
0.000109356
0.000106328
0.000103745
0.000101556
9.97591e-05
9.84336e-05
9.77291e-05
9.7831e-05
9.89135e-05
0.000101105
0.000104484
0.000109089
0.000114885
0.000121576
0.000129828
0.000131311
0.00012664
0.00012033
0.000114033
0.000346726
0.000403665
0.00022902
)
;
    }
    sWall
    {
        type            nutkWallFunction;
        Cmu             0.09;
        kappa           0.41;
        E               9.8;
        value           uniform 0.00020824;
    }
    nWall
    {
        type            nutkWallFunction;
        Cmu             0.09;
        kappa           0.41;
        E               9.8;
        value           nonuniform List<scalar> 6(9.27829e-05 9.69096e-05 0.00011177 0.000138188 0.000141918 0.000114038);
    }
    sideWalls
    {
        type            empty;
    }
    glass1
    {
        type            nutkWallFunction;
        Cmu             0.09;
        kappa           0.41;
        E               9.8;
        value           nonuniform List<scalar> 9(0.000145708 0.00018909 0.000223671 0.000255742 0.000287695 0.000321101 0.000350258 0.000355622 0.000347167);
    }
    glass2
    {
        type            nutkWallFunction;
        Cmu             0.09;
        kappa           0.41;
        E               9.8;
        value           nonuniform List<scalar> 2(0.000169616 0.000160266);
    }
    sun
    {
        type            nutkWallFunction;
        Cmu             0.09;
        kappa           0.41;
        E               9.8;
        value           nonuniform List<scalar> 
14
(
0.000145562
0.000159918
0.000164759
0.000173194
0.000181454
0.000190043
0.000197468
0.0002022
0.00020326
0.000200055
0.000191675
0.000173304
0.00015567
0.00013536
)
;
    }
    heatsource1
    {
        type            nutkWallFunction;
        Cmu             0.09;
        kappa           0.41;
        E               9.8;
        value           nonuniform List<scalar> 3(6.75279e-05 8.23807e-05 9.27834e-05);
    }
    heatsource2
    {
        type            nutkWallFunction;
        Cmu             0.09;
        kappa           0.41;
        E               9.8;
        value           nonuniform List<scalar> 4(0.000141219 0.00011401 0.00011401 0.000138433);
    }
    Table_master
    {
        type            nutkWallFunction;
        Cmu             0.09;
        kappa           0.41;
        E               9.8;
        value           nonuniform List<scalar> 9(0.000123034 0.000107146 9.41108e-05 8.35358e-05 7.49306e-05 6.78764e-05 6.2052e-05 5.73344e-05 5.38011e-05);
    }
    Table_slave
    {
        type            nutkWallFunction;
        Cmu             0.09;
        kappa           0.41;
        E               9.8;
        value           nonuniform List<scalar> 9(0.000139263 0.000126373 0.000116413 0.000108262 0.000101177 9.45373e-05 8.79231e-05 8.09835e-05 7.31428e-05);
    }
    inlet
    {
        type            calculated;
        value           uniform 0.000100623;
    }
    outlet
    {
        type            calculated;
        value           nonuniform List<scalar> 2(0.00177086 0.00186798);
    }
}


// ************************************************************************* //
