/*--------------------------------*- C++ -*----------------------------------*\
  =========                 |
  \\      /  F ield         | OpenFOAM: The Open Source CFD Toolbox
   \\    /   O peration     | Website:  https://openfoam.org
    \\  /    A nd           | Version:  6
     \\/     M anipulation  |
\*---------------------------------------------------------------------------*/
FoamFile
{
    version     2.0;
    format      ascii;
    class       surfaceScalarField;
    location    "400";
    object      phi;
}
// * * * * * * * * * * * * * * * * * * * * * * * * * * * * * * * * * * * * * //

dimensions      [1 0 -1 0 0 0 0];

internalField   nonuniform List<scalar> 
852
(
-0.00310511
0.00316168
-0.00432569
0.00122059
-0.00514533
0.000819655
-0.00563776
0.000492435
-0.00575382
0.000116075
-0.00544884
-0.000304971
-0.00471227
-0.00073656
-0.00362187
-0.00109039
-0.0023315
-0.00129036
-0.00101714
-0.00131435
0.000135795
-0.00115294
0.000881672
-0.000745881
0.00120863
-0.000326962
0.00101701
0.000191615
0.00101899
-0.000937785
0.000940327
-0.000884407
-5.34328e-05
-0.000301926
-0.000582531
0.000361625
-0.000663599
0.00091107
-0.000549493
0.0013127
-0.00040168
0.00154448
-0.000231834
0.00165473
-0.000110295
0.00171752
-6.28472e-05
0.00175991
-4.24476e-05
0.00178841
-2.85571e-05
0.00180582
-1.74693e-05
0.0018106
-4.83332e-06
0.00179253
1.80057e-05
0.00172495
6.75161e-05
0.00156173
0.000163154
0.00127507
0.00028659
0.000852653
0.000422352
0.000855645
-0.00223579
0.00555076
-0.00337921
0.00236402
-0.00422047
0.00166093
-0.00472833
0.0010003
-0.00486482
0.000252585
-0.00458906
-0.000580714
-0.00391507
-0.00141054
-0.00295267
-0.00205277
-0.00187108
-0.00237193
-0.000828182
-0.00235724
5.17574e-05
-0.00203288
0.000726577
-0.00142071
0.00114107
-0.000741461
0.00136195
-2.92694e-05
0.00175558
0.00062535
0.000941514
0.000814005
0.000941451
-0.000101152
0.00104929
0.000305874
-0.000460514
0.000739836
-0.00101654
0.00109009
-0.0010139
0.00138618
-0.00084562
0.00160224
-0.000617794
0.0016525
-0.000282145
0.00166322
-0.000121061
0.00167474
-7.44258e-05
0.00168432
-5.20762e-05
0.00169075
-3.50413e-05
0.00169486
-2.16378e-05
0.00169604
-6.07459e-06
0.00168976
2.42173e-05
0.0016448
0.000112415
0.0014537
0.000354186
0.00112596
0.000614261
0.000698811
0.000849435
0.00156282
-0.0015731
0.00735962
-0.00253636
0.00332729
-0.00329575
0.00242034
-0.00375029
0.00145486
-0.00386523
0.000367535
-0.00356993
-0.000875991
-0.00290962
-0.00207082
-0.00204084
-0.00292153
-0.00113802
-0.00327473
-0.000318842
-0.0031764
0.000345471
-0.00269719
0.000877255
-0.0019525
0.00125945
-0.00112367
0.00152505
-0.000294884
0.00167007
0.000480316
0.0013447
0.00113936
0.00228614
0.00131944
-0.000259079
0.00167935
-0.000820477
0.00172085
-0.00105807
0.00177377
-0.00106687
0.00185201
-0.0009239
0.00198931
-0.000755139
0.00170727
0.00158631
0.00151199
0.00146001
0.00142507
0.00140352
0.00139754
0.00142185
0.00153435
0.0012508
0.000637666
0.000928303
0.00093669
0.000535991
0.00124167
0.00211203
-0.00109167
0.00875819
-0.00182919
0.00406482
-0.00235724
0.0029484
-0.00266739
0.00176503
-0.00266598
0.00036614
-0.00226262
-0.00127933
-0.00159645
-0.00273696
-0.000853352
-0.00366458
-0.00017021
-0.00395783
0.000395929
-0.00374253
0.000841036
-0.0031423
0.00120056
-0.00231204
0.00148023
-0.00140335
0.00170827
-0.000522941
0.00192588
0.000262697
0.00221078
0.000854443
0.00330767
0.00118924
0.002888
0.000428876
0.00277905
-0.000150148
0.00257431
-0.000615751
0.00234729
-0.000831084
0.00214725
-0.000866864
0.00199244
-0.000769134
0.00180219
-0.000564929
0.002021
-0.000219018
0.00209625
-7.5458e-05
0.00211487
-1.88309e-05
0.00209484
1.98185e-05
0.00203415
6.04695e-05
0.00192483
0.000109107
0.00175011
0.000174499
0.00147951
0.000270374
0.00105406
0.000425222
0.000924219
0.000767439
0.000676046
0.00118479
0.000341352
0.00157629
0.00247103
-0.000748391
0.00987466
-0.00127586
0.00459231
-0.00141993
0.00309248
-0.00149087
0.00183598
-0.00119032
6.56008e-05
-0.000586811
-0.00188281
4.51221e-05
-0.00336884
0.000569782
-0.00418919
0.00095502
-0.00434303
0.00122104
-0.00400853
0.00140508
-0.00332635
0.0015356
-0.00244258
0.00163852
-0.0015063
0.00175453
-0.000638981
0.0019385
7.87039e-05
0.00222304
0.000569886
0.00264535
0.00076691
0.00266507
0.00040914
0.00258565
-7.07493e-05
0.00237675
-0.000406876
0.00212345
-0.000577825
0.00187261
-0.000616062
0.00165258
-0.000549154
0.00148552
-0.000397925
0.00145983
-0.000193394
0.00144132
-5.70102e-05
0.00140963
1.27968e-05
0.00137288
5.65003e-05
0.00133228
0.000100996
0.00127844
0.000162873
0.00119755
0.000255313
0.00107598
0.000391867
0.000918159
0.000582964
0.00080182
0.000883701
0.000706423
0.00128011
0.000478506
0.00180413
0.000552208
0.00239725
-0.000940205
0.00149212
-0.0013937
0.000453191
-0.00134872
-0.000619045
0.0109139
-0.000923922
0.00489719
-0.00047204
0.0026406
5.2175e-05
0.00131177
0.000773601
-0.000655824
0.0014467
-0.00255588
0.00189904
-0.00382113
0.00211135
-0.00440144
0.00215013
-0.00438177
0.00206124
-0.00391962
0.00190566
-0.00317078
0.00173334
-0.0022703
0.00158684
-0.00135984
0.00150692
-0.000559097
0.00152889
5.67006e-05
0.00165947
0.000439281
0.00187453
0.000551821
0.00195145
0.000332195
0.00185798
2.2688e-05
0.00166642
-0.000215357
0.00143583
-0.000347281
0.00120189
-0.000382179
0.000991293
-0.000338615
0.000830331
-0.00023703
0.000745158
-0.000108292
0.000703919
-1.58448e-05
0.000685832
3.08076e-05
0.000685933
5.63216e-05
0.000699389
8.74607e-05
0.000720068
0.000142112
0.000741883
0.000233416
0.00076176
0.000371906
0.000780382
0.00056426
0.00083854
0.000825462
0.000984227
0.00113435
0.00122634
0.00156195
0.00174783
0.00187568
0.00205523
0.00118463
0.00170164
0.000806691
0.000407419
-0.000594637
0.0119764
-0.000349379
0.00465194
0.000956113
0.00133512
0.00212895
0.00013893
0.00312919
-0.00165604
0.00370688
-0.00313353
0.00386473
-0.0039789
0.00367833
-0.00421497
0.00325897
-0.00396236
0.00271363
-0.00337428
0.00214161
-0.00259879
0.00161053
-0.00173927
0.00117943
-0.000928805
0.000884738
-0.000264456
0.000763055
0.000178338
0.000801017
0.000401282
0.000916394
0.000436408
0.000957785
0.000290764
0.000888552
9.18752e-05
0.000742652
-6.95128e-05
0.000555885
-0.000160577
0.000359611
-0.000185974
0.000180908
-0.000159986
4.49348e-05
-0.000101135
-2.97398e-05
-3.36986e-05
-5.28098e-05
7.14115e-06
-3.93833e-05
1.72965e-05
2.0639e-06
1.47888e-05
6.88504e-05
2.05874e-05
0.000159266
5.16084e-05
0.000273531
0.000119063
0.000415166
0.000230182
0.000586794
0.000392543
0.000811378
0.000600792
0.00112739
0.00081825
0.00159292
0.00109634
0.00230186
0.00116666
0.00286877
0.000617639
0.00292434
0.000751033
0.00339043
0.00293038
0.00957008
0.00380941
0.00377292
0.00446831
0.000676222
0.00564039
-0.00103314
0.00630355
-0.00231915
0.00632107
-0.00315097
0.00581985
-0.0034776
0.00496666
-0.00336172
0.0039207
-0.00291638
0.00282492
-0.00227853
0.00180979
-0.00158372
0.000937062
-0.000866628
0.000282926
-0.000274755
-9.52058e-05
0.000113599
-0.000220418
0.000303494
-0.000192602
0.000373416
-0.000116696
0.000360451
-9.08412e-05
0.000264853
-0.000140599
0.000141568
-0.000249635
3.94508e-05
-0.000390855
-1.94366e-05
-0.000538549
-3.83639e-05
-0.000669146
-2.94778e-05
-0.000764154
-6.21756e-06
-0.000812011
1.40666e-05
-0.000820045
1.50828e-05
-0.000801474
-1.36735e-06
-0.000760803
-2.59742e-05
-0.000692322
-4.79878e-05
-0.000588301
-5.25073e-05
-0.000446619
-2.2714e-05
-0.000265515
4.8983e-05
-3.04028e-05
0.000157337
0.000265919
0.000304378
0.000609303
0.000474777
0.00103998
0.000665572
0.00151466
0.000691903
0.00168323
0.000448979
0.00092782
0.00150636
0.00455673
0.0101477
0.0139147
0.0124193
0.00217164
0.0114586
-7.23652e-05
0.010192
-0.00105245
0.00862113
-0.00157999
0.00685829
-0.00171468
0.00506101
-0.00156441
0.00334038
-0.00119579
0.00177739
-0.000715605
0.000465334
-0.000271766
-0.000483979
8.25605e-05
-0.00100407
0.000245239
-0.00119362
0.000303069
-0.00121919
0.000329001
-0.00117788
0.000332035
-0.00112429
0.000306797
-0.00110807
0.000248549
-0.0011439
0.000177319
-0.00122026
0.000115718
-0.00131595
7.61589e-05
-0.00141318
5.8769e-05
-0.00149881
5.6053e-05
-0.00156377
5.86426e-05
-0.00160855
5.87391e-05
-0.00164541
5.18441e-05
-0.00168734
4.04566e-05
-0.00174611
3.27012e-05
-0.00183291
3.87033e-05
-0.00195575
7.02337e-05
-0.00211908
0.00014051
-0.00233568
0.00026549
-0.00264188
0.000463445
-0.00308889
0.000751286
-0.00374905
0.00113484
-0.00468117
0.0015976
-0.00600132
0.00201196
-0.00763177
0.00207934
-0.00717409
0.00104859
-0.00235862
0.0049847
0.00394475
0.0035299
0.00138249
0.00340556
-0.000928145
0.00286969
-0.00104421
0.00189747
-0.000742578
0.000742535
-0.000409626
-0.000404465
-4.89579e-05
-0.00132141
0.000201214
-0.00188046
0.000287162
-0.00212104
0.000323043
-0.0021921
0.000316203
-0.00218706
0.000297943
-0.00214221
0.000284061
-0.002084
0.000273742
-0.00203522
0.000257929
-0.00201665
0.000229876
-0.00203363
0.000194207
-0.0020778
0.000159781
-0.00213485
0.000133101
-0.00219197
0.00011578
-0.0022417
0.000105671
-0.00228246
9.92954e-05
-0.00231752
9.36884e-05
-0.00235345
8.76612e-05
-0.00239618
8.30811e-05
-0.00244849
8.48939e-05
-0.00251047
0.000100574
-0.00258033
0.000139996
-0.00265561
0.000215677
-0.00273391
0.000343695
-0.00281457
0.000544008
-0.00289679
0.000833405
-0.00296508
0.00120304
-0.00295827
0.00159069
-0.00281153
0.00186512
-0.0022743
0.001542
-0.00100389
-0.000221922
-0.00329809
-0.000155188
0.00416966
0.00048787
0.000739347
-0.000509335
6.88836e-05
-0.00154642
-7.28013e-06
-0.00236548
7.63247e-05
-0.00294381
0.000168557
-0.003236
0.000243098
-0.00331368
0.000278768
-0.00329748
0.00027085
-0.00321976
0.000245216
-0.00311915
0.000215495
-0.00301456
0.000193251
-0.00291213
0.00018152
-0.00281591
0.000177416
-0.00273286
0.000174771
-0.00267141
0.000168318
-0.00263472
0.0001574
-0.00261924
0.000144189
-0.00261757
0.000131316
-0.00262231
0.000120397
-0.00262855
0.000111797
-0.00263441
0.000105033
-0.00264007
9.92299e-05
-0.00264632
9.37995e-05
-0.00265273
8.93741e-05
-0.00265618
8.82241e-05
-0.00265007
9.43555e-05
-0.00262388
0.000113692
-0.00256256
0.000154244
-0.00244568
0.000226707
-0.00224831
0.000346533
-0.00194809
0.000533086
-0.00152039
0.000775237
-0.000912706
0.000982906
2.78964e-05
0.000924418
0.00122451
0.00034529
0.00165619
-0.000653715
-0.00157167
-0.00754916
-0.0104531
-0.00624371
-0.00549185
-0.00542025
-0.00542902
-0.00535665
-0.00519398
-0.00495841
-0.0046886
-0.0044279
-0.00419381
-0.0039902
-0.00380946
-0.00364101
-0.00347718
-0.00331654
-0.0031629
-0.00302073
-0.00289226
-0.0027771
-0.00267318
-0.00257811
-0.00248998
-0.00240774
-0.00233098
-0.00225861
-0.00218728
-0.00210959
-0.00201223
-0.00187385
-0.00166243
-0.00133052
-0.00081135
-4.93501e-05
0.000920977
0.00183279
0.00216482
0.00149695
)
;

boundaryField
{
    floor
    {
        type            calculated;
        value           nonuniform List<scalar> 
29
(
0
0
0
0
0
0
0
0
0
0
0
0
0
0
0
0
0
0
0
0
-3.06522e-06
-8.44054e-06
-1.32907e-05
-1.77301e-05
-1.99127e-06
-2.60034e-06
-7.87058e-06
-1.11313e-05
-9.22089e-06
)
;
    }
    ceiling
    {
        type            calculated;
        value           nonuniform List<scalar> 
43
(
-4.19748e-05
-4.09713e-05
-3.98876e-05
-1.26624e-05
-2.86413e-06
1.3504e-06
3.82491e-06
5.75536e-06
7.40705e-06
8.83137e-06
1.00367e-05
1.10027e-05
1.17669e-05
1.23932e-05
1.29437e-05
1.34698e-05
1.40047e-05
1.4555e-05
1.50989e-05
1.55997e-05
1.60248e-05
1.63583e-05
1.66022e-05
1.67688e-05
1.68704e-05
1.69116e-05
1.68847e-05
1.67722e-05
1.65529e-05
1.62117e-05
1.57466e-05
1.5171e-05
1.45107e-05
1.38064e-05
1.31271e-05
1.24722e-05
1.24978e-05
1.31497e-05
1.40379e-05
1.59788e-05
8.6672e-06
5.9497e-06
-6.9679e-05
)
;
    }
    sWall
    {
        type            calculated;
        value           uniform -0.000270357;
    }
    nWall
    {
        type            calculated;
        value           nonuniform List<scalar> 6(-4.52846e-05 -5.45981e-05 -5.87672e-05 -6.45326e-05 -7.03476e-05 -9.08227e-05);
    }
    sideWalls
    {
        type            empty;
        value           nonuniform 0();
    }
    glass1
    {
        type            calculated;
        value           nonuniform List<scalar> 9(-5.65597e-05 -0.000153278 -0.000235744 -0.00030689 -0.000368056 -0.000420148 -0.00046784 -0.000524087 -0.000586272);
    }
    glass2
    {
        type            calculated;
        value           nonuniform List<scalar> 2(-0.000238567 -0.000258836);
    }
    sun
    {
        type            calculated;
        value           uniform 0;
    }
    heatsource1
    {
        type            calculated;
        value           nonuniform List<scalar> 3(2.03723e-07 2.03629e-07 2.03666e-07);
    }
    heatsource2
    {
        type            calculated;
        value           nonuniform List<scalar> 4(5.10927e-08 5.12266e-08 0 0);
    }
    Table_master
    {
        type            calculated;
        value           nonuniform List<scalar> 9(-1.52911e-07 -1.53066e-07 -1.53112e-07 -1.53138e-07 -1.53153e-07 -1.5316e-07 -1.53161e-07 -1.53147e-07 -1.53099e-07);
    }
    Table_slave
    {
        type            calculated;
        value           nonuniform List<scalar> 9(1.52706e-07 1.52739e-07 1.52721e-07 1.52709e-07 1.52705e-07 1.52717e-07 1.52746e-07 1.52799e-07 1.52887e-07);
    }
    inlet
    {
        type            calculated;
        value           uniform -0.00675774;
    }
    outlet
    {
        type            calculated;
        value           nonuniform List<scalar> 2(0.00786137 0.00294481);
    }
}


// ************************************************************************* //
