/*--------------------------------*- C++ -*----------------------------------*\
  =========                 |
  \\      /  F ield         | OpenFOAM: The Open Source CFD Toolbox
   \\    /   O peration     | Website:  https://openfoam.org
    \\  /    A nd           | Version:  6
     \\/     M anipulation  |
\*---------------------------------------------------------------------------*/
FoamFile
{
    version     2.0;
    format      ascii;
    class       volScalarField;
    location    "200";
    object      epsilon;
}
// * * * * * * * * * * * * * * * * * * * * * * * * * * * * * * * * * * * * * //

dimensions      [0 2 -3 0 0 0 0];

internalField   nonuniform List<scalar> 
459
(
0.00014269
0.000148694
9.22366e-05
9.98444e-05
0.00011151
0.000124063
0.000137233
0.000151207
0.000166548
0.000183129
0.000198162
0.000210353
0.00021868
0.000222402
0.000217848
1.92266e-05
2.51544e-05
2.69485e-05
1.45726e-05
6.66861e-06
4.79737e-06
4.46795e-06
4.44214e-06
4.8931e-06
6.22473e-06
8.459e-06
1.1486e-05
1.52284e-05
1.96928e-05
2.69691e-05
3.72584e-05
4.41192e-05
4.16748e-05
2.9251e-05
0.000843661
0.00198755
0.000168138
7.83889e-05
7.9473e-05
8.60225e-05
9.36448e-05
0.000102628
0.000113733
0.000127439
0.000143012
0.00016011
0.00017759
0.000192999
0.000209521
0.000279606
9.0568e-05
4.59858e-05
8.47564e-05
6.51867e-05
3.91878e-05
2.18057e-05
1.07658e-05
7.5206e-06
6.36917e-06
8.4233e-06
1.28907e-05
2.01056e-05
2.95599e-05
4.17253e-05
5.82634e-05
7.68096e-05
8.46738e-05
9.28967e-05
0.000117964
5.90928e-05
0.00226853
0.00682366
0.000525232
0.000104424
8.44026e-05
8.96593e-05
9.84799e-05
0.000109312
0.000122255
0.000137536
0.000154322
0.000172215
0.000190923
0.00021019
0.000232296
0.000269624
0.000356121
0.000252903
0.000229428
0.000103084
7.20574e-05
5.96036e-05
5.61119e-05
1.91409e-05
1.06356e-05
1.60025e-05
2.31118e-05
3.23758e-05
4.49137e-05
6.2709e-05
8.97896e-05
0.000134838
0.000103137
0.000118467
0.000140013
0.000131452
0.004503
0.0147117
0.00136495
0.000167734
9.80546e-05
0.000100355
0.000110985
0.000124348
0.000139706
0.000156838
0.000174104
0.000190572
0.000206795
0.000224306
0.000247135
0.000287082
0.000372959
0.0005402
0.000255837
0.000126099
9.39566e-05
8.66423e-05
9.14095e-05
0.000106828
0.000146119
0.00014823
0.000151078
0.000153704
0.000156647
0.000161277
0.000170067
0.00018764
0.000241596
0.000194177
0.0002516
0.000364894
0.000449662
0.0074546
0.0243656
0.00291586
0.00030702
0.000125744
0.000119826
0.000133316
0.00015211
0.000173876
0.000197305
0.000217177
0.000232568
0.000244961
0.000254477
0.000258345
0.000252585
0.000235322
0.000200407
0.000138835
0.000105967
9.09554e-05
8.63366e-05
8.75506e-05
9.24524e-05
9.99597e-05
0.000107675
0.000117483
0.000130178
0.000147008
0.000170286
0.000203675
0.000252082
0.00032068
0.000397565
0.000521286
0.000667259
0.000748384
0.00112473
0.000786558
0.000520938
0.0110754
0.0322941
0.00546067
0.000726363
0.000229131
0.000180346
0.000191064
0.00021643
0.000248766
0.00028135
0.000298787
0.000306754
0.000312495
0.000318637
0.000321359
0.000312166
0.000283387
0.000236905
0.000187223
0.000149802
0.000126414
0.000114698
0.000111007
0.000112954
0.000119153
0.000129317
0.000144317
0.000165239
0.000194138
0.000234977
0.000294168
0.000379883
0.000499556
0.000656245
0.000851603
0.00106804
0.00118864
0.00111399
0.000655126
0.000591268
0.0151197
0.0350746
0.0102519
0.0027303
0.000942658
0.000519404
0.000432881
0.00042971
0.000465057
0.000474132
0.000454296
0.000425336
0.000402223
0.00039042
0.000385799
0.000376443
0.000350311
0.000306672
0.000256592
0.000212154
0.000179245
0.000158442
0.000147856
0.000145595
0.000150549
0.000162974
0.000184046
0.000215188
0.00025828
0.000316396
0.000394592
0.000499542
0.000635126
0.000801885
0.000985219
0.00114444
0.00120728
0.0011402
0.00096999
0.000554219
0.0157318
0.0409015
0.0209219
0.0121851
0.00591535
0.00284587
0.00169527
0.00125627
0.0010666
0.000897664
0.000745234
0.000621627
0.00053046
0.000470762
0.000437686
0.000418698
0.000395619
0.000360039
0.000315959
0.00027206
0.00023503
0.00020783
0.000190817
0.000183482
0.000185711
0.000198837
0.000225616
0.000269572
0.00033489
0.00042528
0.000541458
0.000677807
0.000823836
0.000966832
0.00110362
0.0012429
0.00140543
0.00159564
0.00177134
0.00111773
0.0139528
0.0222654
0.0347984
0.0257089
0.0156487
0.00917484
0.00552345
0.0035185
0.00233764
0.00161941
0.00117283
0.000884783
0.000693578
0.000565932
0.000483373
0.000432854
0.000399745
0.000370604
0.000338893
0.000305144
0.000273137
0.000246329
0.000226728
0.000215306
0.000212905
0.000221502
0.000244799
0.000286355
0.000351801
0.000445203
0.000568603
0.000725892
0.000919469
0.00116058
0.00146604
0.00178567
0.0019305
0.00227865
0.00379389
0.00152722
0.0769473
0.0920362
0.0282353
0.013195
0.00728074
0.00442381
0.00288579
0.00198424
0.00142035
0.00105285
0.000805102
0.000633937
0.000514509
0.00043203
0.000376211
0.000338213
0.000310447
0.000287727
0.000267784
0.000250508
0.000236821
0.00022793
0.000225143
0.000230199
0.000245621
0.0002746
0.00032139
0.000389744
0.000482244
0.000594694
0.000716706
0.000836181
0.000937302
0.00099025
0.000974064
0.000918686
0.00157361
0.00141455
0.0626747
0.0569209
0.0208979
0.0106676
0.00630024
0.00403623
0.00274345
0.0019516
0.00143926
0.00109215
0.000848181
0.000671774
0.000541731
0.000445038
0.000373346
0.000320853
0.000283112
0.000256501
0.000238116
0.000225832
0.000218321
0.000214995
0.000215936
0.000221969
0.000234935
0.000257911
0.000294861
0.000349641
0.000423438
0.000510041
0.000594576
0.000659426
0.000689901
0.000674767
0.000625565
0.000594676
0.001114
0.000965344
0.00715409
0.0137425
0.0293477
0.0229808
0.0128757
0.00802185
0.00537415
0.00378187
0.0027569
0.0020634
0.00158456
0.00124275
0.000990543
0.000800274
0.000654675
0.000542362
0.00045548
0.000388391
0.000336887
0.000297715
0.000268299
0.000246598
0.000231042
0.000220521
0.000214387
0.000212535
0.000215563
0.00022499
0.000243361
0.00027754
0.0003357
0.000417998
0.00051194
0.000593374
0.000638194
0.000632013
0.000601595
0.000555886
0.00054773
0.000460033
)
;

boundaryField
{
    floor
    {
        Cmu             0.09;
        kappa           0.41;
        E               9.8;
        type            epsilonWallFunction;
        value           nonuniform List<scalar> 
29
(
0.000217848
1.92266e-05
2.51544e-05
2.69485e-05
1.45726e-05
6.66861e-06
4.79737e-06
4.46795e-06
4.44214e-06
4.8931e-06
6.22473e-06
8.459e-06
1.1486e-05
1.52284e-05
1.96928e-05
2.69691e-05
3.72584e-05
4.41192e-05
4.16748e-05
2.9251e-05
2.9251e-05
5.90928e-05
0.000131452
0.000449662
0.000217848
1.92266e-05
4.59858e-05
0.000252903
0.0005402
)
;
    }
    ceiling
    {
        Cmu             0.09;
        kappa           0.41;
        E               9.8;
        type            epsilonWallFunction;
        value           nonuniform List<scalar> 
43
(
0.00715409
0.0137425
0.0293477
0.0229808
0.0128757
0.00802185
0.00537415
0.00378187
0.0027569
0.0020634
0.00158456
0.00124275
0.000990543
0.000800274
0.000654675
0.000542362
0.00045548
0.000388391
0.000336887
0.000297715
0.000268299
0.000246598
0.000231042
0.000220521
0.000214387
0.000212535
0.000215563
0.00022499
0.000243361
0.00027754
0.0003357
0.000417998
0.00051194
0.000593374
0.000638194
0.000632013
0.000601595
0.000555886
0.00054773
0.000460033
0.0139528
0.0222654
0.0626747
)
;
    }
    sWall
    {
        Cmu             0.09;
        kappa           0.41;
        E               9.8;
        type            epsilonWallFunction;
        value           uniform 0.00715409;
    }
    nWall
    {
        Cmu             0.09;
        kappa           0.41;
        E               9.8;
        type            epsilonWallFunction;
        value           nonuniform List<scalar> 6(0.000520938 0.000591268 0.000554219 0.00141455 0.000965344 0.000460033);
    }
    sideWalls
    {
        type            empty;
    }
    glass1
    {
        Cmu             0.09;
        kappa           0.41;
        E               9.8;
        type            epsilonWallFunction;
        value           nonuniform List<scalar> 9(0.00014269 0.000843661 0.00226853 0.004503 0.0074546 0.0110754 0.0151197 0.0157318 0.0139528);
    }
    glass2
    {
        Cmu             0.09;
        kappa           0.41;
        E               9.8;
        type            epsilonWallFunction;
        value           nonuniform List<scalar> 2(0.00111773 0.00152722);
    }
    sun
    {
        Cmu             0.09;
        kappa           0.41;
        E               9.8;
        type            epsilonWallFunction;
        value           nonuniform List<scalar> 
14
(
0.00014269
0.000148694
9.22366e-05
9.98444e-05
0.00011151
0.000124063
0.000137233
0.000151207
0.000166548
0.000183129
0.000198162
0.000210353
0.00021868
0.000222402
)
;
    }
    heatsource1
    {
        Cmu             0.09;
        kappa           0.41;
        E               9.8;
        type            epsilonWallFunction;
        value           nonuniform List<scalar> 3(0.00112473 0.000786558 0.000520938);
    }
    heatsource2
    {
        Cmu             0.09;
        kappa           0.41;
        E               9.8;
        type            epsilonWallFunction;
        value           nonuniform List<scalar> 4(0.000279606 9.0568e-05 9.0568e-05 0.000356121);
    }
    Table_master
    {
        Cmu             0.09;
        kappa           0.41;
        E               9.8;
        type            epsilonWallFunction;
        value           nonuniform List<scalar> 9(1.91409e-05 1.06356e-05 1.60025e-05 2.31118e-05 3.23758e-05 4.49137e-05 6.2709e-05 8.97896e-05 0.000134838);
    }
    Table_slave
    {
        Cmu             0.09;
        kappa           0.41;
        E               9.8;
        type            epsilonWallFunction;
        value           nonuniform List<scalar> 9(0.000146119 0.00014823 0.000151078 0.000153704 0.000156647 0.000161277 0.000170067 0.00018764 0.000241596);
    }
    inlet
    {
        type            turbulentMixingLengthDissipationRateInlet;
        mixingLength    0.01;
        phi             phi;
        k               k;
        value           uniform 0.0769473;
    }
    outlet
    {
        type            zeroGradient;
    }
}


// ************************************************************************* //
