/*--------------------------------*- C++ -*----------------------------------*\
  =========                 |
  \\      /  F ield         | OpenFOAM: The Open Source CFD Toolbox
   \\    /   O peration     | Website:  https://openfoam.org
    \\  /    A nd           | Version:  6
     \\/     M anipulation  |
\*---------------------------------------------------------------------------*/
FoamFile
{
    version     2.0;
    format      ascii;
    class       volScalarField;
    location    "1400";
    object      nut;
}
// * * * * * * * * * * * * * * * * * * * * * * * * * * * * * * * * * * * * * //

dimensions      [0 2 -1 0 0 0 0];

internalField   nonuniform List<scalar> 
459
(
0.00106453
0.00116054
0.00118243
0.00123883
0.00129109
0.00134039
0.00138936
0.00143617
0.00146909
0.00148184
0.00146843
0.00142457
0.00134828
0.00124174
0.00111662
0.000463987
0.000553991
0.000626011
0.000632124
0.00061425
0.000588357
0.000552241
0.000515382
0.000481837
0.000452125
0.000425879
0.000402623
0.000381965
0.000363495
0.000346545
0.000330274
0.000313532
0.000303211
0.000277636
0.00145
0.00343689
0.00325257
0.00377275
0.00428225
0.00479326
0.00523763
0.00558327
0.0059046
0.0061721
0.00634917
0.00639799
0.00627286
0.00586524
0.00471792
0.00113678
0.000705098
0.000484011
0.00101962
0.00142936
0.0017401
0.00192437
0.00193478
0.00152945
0.00131421
0.00116163
0.00104518
0.000953118
0.000878473
0.00081507
0.000756009
0.000698763
0.000647952
0.000603197
0.00071725
0.000369645
0.00177095
0.0046629
0.00396734
0.00494303
0.00539049
0.00571563
0.00596968
0.00619328
0.00645308
0.0067349
0.00700583
0.00721546
0.00731813
0.00723803
0.00675187
0.00518143
0.0011704
0.000910346
0.00132699
0.00173059
0.00212282
0.00241513
0.00238714
0.000785281
0.000694606
0.000620951
0.00056116
0.000512287
0.000471976
0.000438487
0.000410695
0.00038811
0.000419213
0.000483869
0.000810677
0.000431988
0.00207964
0.00596713
0.00391681
0.00516326
0.00550148
0.0055822
0.00564954
0.00577588
0.00599358
0.00628648
0.00662389
0.00693403
0.00716779
0.00725988
0.00715926
0.00660193
0.0044324
0.00136978
0.0016432
0.0020987
0.0025985
0.00304487
0.00335391
0.00319629
0.000888985
0.000813521
0.00075981
0.000718982
0.000684084
0.000651301
0.000619735
0.000586412
0.000547561
0.000513874
0.000519188
0.000941939
0.000481328
0.00239459
0.00766946
0.00423504
0.00492347
0.00538929
0.00534025
0.00529361
0.00538904
0.00559319
0.00589221
0.00626499
0.0066061
0.0068455
0.00693891
0.00688717
0.00666576
0.00610189
0.00516986
0.00485472
0.00480639
0.0048566
0.00491577
0.00492541
0.00477287
0.00405946
0.00371399
0.00351401
0.00335888
0.00319399
0.00295753
0.00262843
0.00222372
0.00177238
0.00132334
0.000977047
0.00096459
0.0006551
0.000594449
0.000716537
0.000804638
0.00272916
0.00953732
0.00582706
0.00475946
0.00520903
0.00535454
0.00521156
0.00530174
0.00547108
0.00574837
0.00611056
0.00646595
0.00670386
0.00675778
0.00664253
0.00644313
0.00625468
0.00613611
0.00614943
0.00618152
0.00615935
0.00607317
0.00592593
0.00570589
0.00537397
0.0050766
0.00481444
0.00456469
0.00431222
0.00404227
0.0036967
0.00325971
0.0027312
0.00214389
0.0016158
0.00118898
0.000909462
0.00077578
0.0011046
0.000841465
0.00304328
0.010887
0.00835729
0.00604421
0.0056422
0.00567523
0.0055356
0.00545605
0.00553683
0.00580002
0.00618166
0.00655483
0.00678165
0.00678573
0.0066018
0.00638364
0.00633407
0.00651532
0.00673908
0.00681461
0.00671358
0.00648488
0.00617287
0.00580977
0.00542895
0.00508379
0.00477688
0.00449699
0.00424046
0.004011
0.00380782
0.00352802
0.00312051
0.00261416
0.00211855
0.00166069
0.00133549
0.00123703
0.00126662
0.000961769
0.00311124
0.00988044
0.0085724
0.00759602
0.00699853
0.00634052
0.00578573
0.00555082
0.00565266
0.00600775
0.00646882
0.00686169
0.00703395
0.00693424
0.00665697
0.00644528
0.00653437
0.00683334
0.00696064
0.00682193
0.00649249
0.00604833
0.00555659
0.00508091
0.00466994
0.00433753
0.00406678
0.00384345
0.00366544
0.00353832
0.00347011
0.00344049
0.00324487
0.00291861
0.00262292
0.00246523
0.00256042
0.00296087
0.00363661
0.00149325
0.00303634
0.00362566
0.00409556
0.00424399
0.00425741
0.00435473
0.00463741
0.00513313
0.00579849
0.00650277
0.00707988
0.00738485
0.00732167
0.00695464
0.00656
0.00649006
0.00655779
0.00655804
0.00635347
0.00594656
0.00541562
0.00484839
0.00432624
0.00389937
0.00357441
0.00332787
0.00313164
0.00296715
0.00282331
0.00269166
0.0025651
0.0024437
0.00234686
0.00227508
0.00224614
0.00225254
0.00223517
0.00214123
0.00199932
0.00139735
0.00182903
0.00326066
0.00451083
0.0055521
0.00640021
0.00716397
0.00776278
0.00806817
0.00803587
0.00768275
0.00706392
0.00636297
0.00593507
0.00577954
0.00560712
0.00528965
0.00483494
0.00431225
0.00379209
0.0033387
0.00298937
0.00273764
0.00255874
0.00242832
0.00233021
0.00225581
0.00220109
0.00216492
0.00215042
0.00216011
0.00218009
0.002207
0.00223318
0.00223408
0.00217032
0.00202982
0.00182445
0.00114785
0.00212896
0.00455946
0.00624553
0.00704045
0.00757726
0.00794925
0.00792834
0.00743416
0.00667191
0.00585309
0.00516608
0.00466917
0.0043364
0.00403742
0.00367835
0.00327701
0.00288473
0.00254864
0.0022926
0.00211356
0.00199048
0.00190732
0.00185806
0.00183548
0.00183447
0.00185172
0.00188426
0.0019281
0.00198936
0.00206511
0.00215279
0.00224587
0.00232913
0.00238502
0.00236634
0.00238383
0.00235474
0.00116673
0.00183103
0.00192818
0.00200008
0.00206955
0.00187725
0.00172466
0.00165153
0.00157765
0.00147003
0.00133703
0.00118513
0.0010344
0.000901091
0.000795545
0.000719338
0.000665755
0.000627478
0.00060033
0.000582611
0.000573488
0.000571951
0.000576787
0.000586962
0.000601962
0.000620752
0.000643117
0.000669172
0.000699224
0.000733869
0.000774201
0.000819535
0.000870072
0.000926436
0.000989206
0.00105819
0.00114155
0.00116739
0.0011376
0.00106603
0.000989852
)
;

boundaryField
{
    floor
    {
        type            nutkWallFunction;
        Cmu             0.09;
        kappa           0.41;
        E               9.8;
        value           nonuniform List<scalar> 
29
(
0.000134358
5.50859e-05
6.65671e-05
7.5588e-05
7.63477e-05
7.41238e-05
7.08883e-05
6.63461e-05
6.16727e-05
5.73834e-05
5.35531e-05
5.01432e-05
4.70995e-05
4.43771e-05
4.19271e-05
3.96645e-05
3.7479e-05
3.52155e-05
3.38123e-05
3.03071e-05
3.0307e-05
4.27441e-05
5.09385e-05
5.73173e-05
0.000134358
5.50858e-05
5.76622e-05
0.000110118
0.000163425
)
;
    }
    ceiling
    {
        type            nutkWallFunction;
        Cmu             0.09;
        kappa           0.41;
        E               9.8;
        value           nonuniform List<scalar> 
43
(
0.000214787
0.000225429
0.00023327
0.000240907
0.000219971
0.000203177
0.000195071
0.000186838
0.000174763
0.000159703
0.000142292
0.000124764
0.000109017
9.63569e-05
8.7094e-05
8.05115e-05
7.57704e-05
7.23867e-05
7.01683e-05
6.90229e-05
6.88297e-05
6.94373e-05
7.07137e-05
7.25906e-05
7.49337e-05
7.77115e-05
8.0933e-05
8.46301e-05
8.88688e-05
9.37737e-05
9.9251e-05
0.000105315
0.000112031
0.000119454
0.00012755
0.000137254
0.000140246
0.000136796
0.000128467
0.000119531
0.000343913
0.000404828
0.000247141
)
;
    }
    sWall
    {
        type            nutkWallFunction;
        Cmu             0.09;
        kappa           0.41;
        E               9.8;
        value           uniform 0.000214847;
    }
    nWall
    {
        type            nutkWallFunction;
        Cmu             0.09;
        kappa           0.41;
        E               9.8;
        value           nonuniform List<scalar> 6(9.74558e-05 0.000101889 0.00011622 0.000137995 0.00014018 0.000119537);
    }
    sideWalls
    {
        type            empty;
    }
    glass1
    {
        type            nutkWallFunction;
        Cmu             0.09;
        kappa           0.41;
        E               9.8;
        value           nonuniform List<scalar> 9(0.000128389 0.000172724 0.000208617 0.000242469 0.000276453 0.000312041 0.000345039 0.000352141 0.00034434);
    }
    glass2
    {
        type            nutkWallFunction;
        Cmu             0.09;
        kappa           0.41;
        E               9.8;
        value           nonuniform List<scalar> 2(0.000177458 0.000166625);
    }
    sun
    {
        type            nutkWallFunction;
        Cmu             0.09;
        kappa           0.41;
        E               9.8;
        value           nonuniform List<scalar> 
14
(
0.000128292
0.000139451
0.00014198
0.000148474
0.000154462
0.000160085
0.000165649
0.000170946
0.00017466
0.000176096
0.000174584
0.000169634
0.000160981
0.000148807
)
;
    }
    heatsource1
    {
        type            nutkWallFunction;
        Cmu             0.09;
        kappa           0.41;
        E               9.8;
        value           nonuniform List<scalar> 3(7.16528e-05 8.67517e-05 9.7455e-05);
    }
    heatsource2
    {
        type            nutkWallFunction;
        Cmu             0.09;
        kappa           0.41;
        E               9.8;
        value           nonuniform List<scalar> 4(0.000136694 8.5352e-05 8.5352e-05 0.000140586);
    }
    Table_master
    {
        type            nutkWallFunction;
        Cmu             0.09;
        kappa           0.41;
        E               9.8;
        value           nonuniform List<scalar> 9(9.51157e-05 8.40645e-05 7.49609e-05 6.74748e-05 6.12832e-05 5.61216e-05 5.17916e-05 4.81666e-05 4.51979e-05);
    }
    Table_slave
    {
        type            nutkWallFunction;
        Cmu             0.09;
        kappa           0.41;
        E               9.8;
        value           nonuniform List<scalar> 9(0.000107573 9.8526e-05 9.20273e-05 8.70511e-05 8.27711e-05 7.87266e-05 7.48089e-05 7.06469e-05 6.5758e-05);
    }
    inlet
    {
        type            calculated;
        value           uniform 0.000100623;
    }
    outlet
    {
        type            calculated;
        value           nonuniform List<scalar> 2(0.00183103 0.00192818);
    }
}


// ************************************************************************* //
