// -*- C++ -*-
// File generated by PyFoam - sorry for the ugliness

FoamFile
{
 version 2.0;
 format ascii;
 class volVectorField;
 location "1400";
 object U;
}

dimensions [ 0 1 -1 0 0 0 0 ];

internalField nonuniform List<vector> 459
(
  (0.0342 0.0858878 0)
  (-0.167084 0.0254865 0)
  (-0.191841 0.0178504 0)
  (-0.222855 0.01215 0)
  (-0.245303 0.00586257 0)
  (-0.258091 -0.000826537 0)
  (-0.259529 -0.00798692 0)
  (-0.248343 -0.0156443 0)
  (-0.225123 -0.023103 0)
  (-0.191766 -0.0290317 0)
  (-0.152001 -0.0323277 0)
  (-0.110232 -0.0324515 0)
  (-0.0707062 -0.0295606 0)
  (-0.0385953 -0.0247978 0)
  (-0.0278003 -0.02001 0)
  (-0.00642 0.00893226 0)
  (-0.0291995 -0.0166641 0)
  (-0.00754983 -0.0265703 0)
  (0.0161387 -0.0205729 0)
  (0.0317435 -0.0141746 0)
  (0.0446109 -0.00923076 0)
  (0.052759 -0.00537456 0)
  (0.0570101 -0.00334574 0)
  (0.0589269 -0.00253457 0)
  (0.0598735 -0.00218624 0)
  (0.0604622 -0.00196923 0)
  (0.0607957 -0.0017926 0)
  (0.0608144 -0.00157902 0)
  (0.0603317 -0.0011616 0)
  (0.058821 -0.000174053 0)
  (0.0551502 0.00189192 0)
  (0.0480807 0.0040897 0)
  (0.0416171 0.00587727 0)
  (-0.013075 0.0203879 0)
  (0.208761 0.175978 0)
  (-0.156278 0.0674341 0)
  (-0.154742 0.0530519 0)
  (-0.186908 0.041222 0)
  (-0.209212 0.0277933 0)
  (-0.222306 0.0126464 0)
  (-0.224457 -0.00454049 0)
  (-0.214228 -0.0231767 0)
  (-0.192811 -0.04066 0)
  (-0.162518 -0.0538871 0)
  (-0.127213 -0.060732 0)
  (-0.0909766 -0.0605586 0)
  (-0.0573742 -0.0539712 0)
  (-0.0298349 -0.042598 0)
  (-0.0123348 -0.0289309 0)
  (0.00153212 -0.0109223 0)
  (0.000235019 0.0156611 0)
  (0.0609475 0.0364591 0)
  (0.024606 -0.0180603 0)
  (0.0332562 -0.0314412 0)
  (0.0444522 -0.0280923 0)
  (0.0534794 -0.0203322 0)
  (0.0601645 -0.0128271 0)
  (0.0630964 -0.00547655 0)
  (0.0636721 -0.00124699 0)
  (0.0636239 0.00051055 0)
  (0.0637332 0.00128134 0)
  (0.0639407 0.00175188 0)
  (0.0640925 0.00213957 0)
  (0.0641458 0.00261177 0)
  (0.0640563 0.0034822 0)
  (0.0633193 0.00561683 0)
  (0.0596224 0.0115479 0)
  (0.0502428 0.0165104 0)
  (0.0457301 0.019851 0)
  (-0.0492873 0.044236 0)
  (0.368969 0.263372 0)
  (-0.173191 0.107444 0)
  (-0.116221 0.0858784 0)
  (-0.14761 0.0647688 0)
  (-0.167518 0.0426437 0)
  (-0.179773 0.0180322 0)
  (-0.181633 -0.00992191 0)
  (-0.170758 -0.0397681 0)
  (-0.149608 -0.0668618 0)
  (-0.121411 -0.0861488 0)
  (-0.0902345 -0.0949339 0)
  (-0.0595839 -0.0931255 0)
  (-0.0317443 -0.0821488 0)
  (-0.00880454 -0.0642659 0)
  (0.00828634 -0.0407755 0)
  (0.0194778 -0.0143479 0)
  (0.0237267 0.0228847 0)
  (0.11022 -0.0267245 0)
  (0.0744486 -0.0376515 0)
  (0.0690274 -0.0383912 0)
  (0.0705676 -0.0330612 0)
  (0.0719748 -0.0251822 0)
  (0.0733695 -0.0182686 0)
  (0.0721893 -0.0145782 0)
  (0.0674954 -0.0102707 0)
  (0.0640679 -0.00791653 0)
  (0.062523 -0.00656754 0)
  (0.0618675 -0.00569958 0)
  (0.0615343 -0.00509748 0)
  (0.0615092 -0.00456842 0)
  (0.0622327 -0.00374241 0)
  (0.064819 -0.000669049 0)
  (0.0628162 0.016155 0)
  (0.0497905 0.0278569 0)
  (0.0520056 0.0357767 0)
  (-0.0812288 0.0690501 0)
  (0.513602 0.333685 0)
  (-0.207997 0.142932 0)
  (-0.0752994 0.113858 0)
  (-0.105388 0.0848694 0)
  (-0.119872 0.056505 0)
  (-0.128959 0.0242117 0)
  (-0.127887 -0.0143586 0)
  (-0.113965 -0.0560097 0)
  (-0.0924319 -0.0919673 0)
  (-0.067293 -0.115659 0)
  (-0.042044 -0.124863 0)
  (-0.0190676 -0.120842 0)
  (0.00139937 -0.105733 0)
  (0.0182599 -0.0830145 0)
  (0.0325611 -0.056205 0)
  (0.0478457 -0.0271553 0)
  (0.06944 0.00467024 0)
  (0.100184 0.0161589 0)
  (0.105343 -0.022802 0)
  (0.0917091 -0.0335059 0)
  (0.0827519 -0.0328328 0)
  (0.0776785 -0.0287621 0)
  (0.0738681 -0.0227479 0)
  (0.0712844 -0.0150908 0)
  (0.072501 -0.0091442 0)
  (0.077499 -0.00684602 0)
  (0.0817664 -0.00557771 0)
  (0.0846118 -0.00468301 0)
  (0.0863766 -0.00368318 0)
  (0.086626 -0.0022798 0)
  (0.0842161 -0.000210126 0)
  (0.0778796 0.00283234 0)
  (0.0651002 0.00737732 0)
  (0.0528045 0.0267114 0)
  (0.040652 0.0430362 0)
  (0.0560785 0.0559622 0)
  (-0.114532 0.0913009 0)
  (0.638828 0.388154 0)
  (-0.250592 0.171918 0)
  (-0.0345469 0.130034 0)
  (-0.0611772 0.0964015 0)
  (-0.0676379 0.0645824 0)
  (-0.0707386 0.0272047 0)
  (-0.060939 -0.0210403 0)
  (-0.0417943 -0.0735836 0)
  (-0.0212469 -0.11482 0)
  (-0.0019865 -0.139118 0)
  (0.0142873 -0.145743 0)
  (0.0267242 -0.138076 0)
  (0.0364835 -0.120301 0)
  (0.0443561 -0.0959604 0)
  (0.0516425 -0.0685664 0)
  (0.0603195 -0.0419085 0)
  (0.0731198 -0.0222704 0)
  (0.0838194 -0.0213179 0)
  (0.0849533 -0.029031 0)
  (0.0785787 -0.0298509 0)
  (0.0703715 -0.0269536 0)
  (0.0636034 -0.0230979 0)
  (0.0584775 -0.0185355 0)
  (0.0553484 -0.0131588 0)
  (0.0551134 -0.00736906 0)
  (0.0574644 -0.00456314 0)
  (0.0602063 -0.00356415 0)
  (0.0628301 -0.00279917 0)
  (0.065244 -0.00122889 0)
  (0.0671095 0.00176709 0)
  (0.0671787 0.00630248 0)
  (0.0648268 0.0125355 0)
  (0.0594476 0.0210934 0)
  (0.0525579 0.036317 0)
  (0.0424234 0.0543501 0)
  (0.064445 0.0744677 0)
  (-0.02146 0.103536 0)
  (0.0461407 0.0321555 0)
  (-0.0622522 -0.0346075 0)
  (-0.272462 -0.0572604 0)
  (0.729922 0.433573 0)
  (-0.292175 0.191439 0)
  (-0.00333182 0.126617 0)
  (-0.0160461 0.0976686 0)
  (-0.0119501 0.0670201 0)
  (-0.00640421 0.0242556 0)
  (0.0221073 -0.0381188 0)
  (0.0439406 -0.0939057 0)
  (0.0594872 -0.132194 0)
  (0.0689198 -0.151684 0)
  (0.0728951 -0.15431 0)
  (0.0728094 -0.143633 0)
  (0.0701679 -0.123679 0)
  (0.0664718 -0.0984333 0)
  (0.0632097 -0.0715654 0)
  (0.0617932 -0.0467433 0)
  (0.0630783 -0.0282424 0)
  (0.0639282 -0.0208889 0)
  (0.0606656 -0.0204951 0)
  (0.0536765 -0.0205867 0)
  (0.0457651 -0.019158 0)
  (0.0391342 -0.0169085 0)
  (0.0343191 -0.0141903 0)
  (0.0316119 -0.0110599 0)
  (0.0312784 -0.00812993 0)
  (0.0329639 -0.00700398 0)
  (0.0356125 -0.00689111 0)
  (0.0387662 -0.00654513 0)
  (0.0422401 -0.00494879 0)
  (0.0457607 -0.00120305 0)
  (0.0490158 0.00506011 0)
  (0.0507407 0.0134807 0)
  (0.0511854 0.024187 0)
  (0.0517061 0.0386734 0)
  (0.0505123 0.0564534 0)
  (0.0729304 0.0792284 0)
  (0.0524953 0.0971608 0)
  (0.0931324 0.0679376 0)
  (0.116091 0.0445849 0)
  (-0.129358 -0.00734041 0)
  (0.781914 0.474856 0)
  (-0.313108 0.176912 0)
  (0.0234921 0.0771624 0)
  (0.0425695 0.073953 0)
  (0.057674 0.0525119 0)
  (0.0840591 0.00157654 0)
  (0.118274 -0.0625142 0)
  (0.137614 -0.111389 0)
  (0.144075 -0.140991 0)
  (0.140346 -0.152723 0)
  (0.129164 -0.149532 0)
  (0.113442 -0.135155 0)
  (0.0957517 -0.11345 0)
  (0.0783312 -0.0883199 0)
  (0.0628681 -0.062982 0)
  (0.05061 -0.0405482 0)
  (0.0420004 -0.0241355 0)
  (0.0355094 -0.0158597 0)
  (0.0289684 -0.013511 0)
  (0.0218836 -0.0131483 0)
  (0.0151834 -0.0126107 0)
  (0.00979141 -0.0117803 0)
  (0.0060199 -0.0107982 0)
  (0.00404255 -0.00973402 0)
  (0.00394181 -0.00900331 0)
  (0.00535567 -0.00923466 0)
  (0.00763779 -0.00992207 0)
  (0.0105099 -0.0101997 0)
  (0.0140035 -0.00918811 0)
  (0.0182418 -0.00586822 0)
  (0.0241195 0.000806467 0)
  (0.0302135 0.0100686 0)
  (0.035917 0.0209484 0)
  (0.0430693 0.0339011 0)
  (0.0508339 0.0486209 0)
  (0.0728784 0.0670831 0)
  (0.0860282 0.0748245 0)
  (0.118293 0.0521973 0)
  (0.15804 0.0439621 0)
  (-0.0354613 0.0939412 0)
  (0.886574 0.477548 0)
  (-0.0706695 0.156554 0)
  (0.106034 0.0039065 0)
  (0.169141 -0.0163385 0)
  (0.18208 -0.0350029 0)
  (0.21754 -0.0690681 0)
  (0.239409 -0.101848 0)
  (0.24201 -0.125305 0)
  (0.228105 -0.13692 0)
  (0.202631 -0.1369 0)
  (0.170443 -0.126994 0)
  (0.135768 -0.109831 0)
  (0.101645 -0.088079 0)
  (0.0705625 -0.0649999 0)
  (0.0439875 -0.0430264 0)
  (0.0232867 -0.0247451 0)
  (0.00891974 -0.0126861 0)
  (-0.000452045 -0.00731068 0)
  (-0.00708568 -0.00637305 0)
  (-0.0126428 -0.0069002 0)
  (-0.0173998 -0.00751173 0)
  (-0.0211854 -0.00802213 0)
  (-0.0239204 -0.00848674 0)
  (-0.025555 -0.00899918 0)
  (-0.026134 -0.00976549 0)
  (-0.0259615 -0.010931 0)
  (-0.0254195 -0.0122231 0)
  (-0.0246406 -0.0131929 0)
  (-0.0234823 -0.0133405 0)
  (-0.0215645 -0.0120766 0)
  (-0.0179415 -0.00864531 0)
  (-0.00927477 -0.00226865 0)
  (-0.000259911 0.00622833 0)
  (0.0104308 0.0147357 0)
  (0.0222021 0.0219478 0)
  (0.0420708 0.0293625 0)
  (0.060748 0.022461 0)
  (0.0803301 -0.00514662 0)
  (0.1396 0.0401916 0)
  (-0.414324 0.20685 0)
  (1.03166 0.429958 0)
  (0.496773 0.285079 0)
  (0.503024 0.191477 0)
  (0.511452 0.120112 0)
  (0.48664 0.0686783 0)
  (0.443994 0.0153947 0)
  (0.394114 -0.0328543 0)
  (0.34071 -0.0670808 0)
  (0.283504 -0.0847596 0)
  (0.22491 -0.0878987 0)
  (0.168215 -0.0805193 0)
  (0.1162 -0.0666352 0)
  (0.0698679 -0.0489683 0)
  (0.0311259 -0.0309497 0)
  (-0.00044435 -0.0148015 0)
  (-0.0212955 -0.00476773 0)
  (-0.0324359 -0.000998345 0)
  (-0.0386116 -0.000486734 0)
  (-0.0426399 -0.00145192 0)
  (-0.0461591 -0.00279469 0)
  (-0.0493739 -0.00411557 0)
  (-0.0522956 -0.00535749 0)
  (-0.0549027 -0.00655364 0)
  (-0.057218 -0.00775532 0)
  (-0.059364 -0.00902483 0)
  (-0.0616134 -0.0103392 0)
  (-0.0643014 -0.0114787 0)
  (-0.0677333 -0.0120668 0)
  (-0.0722421 -0.0115734 0)
  (-0.0782946 -0.00929582 0)
  (-0.0865 -0.00440177 0)
  (-0.0969619 0.00375121 0)
  (-0.107611 0.0146683 0)
  (-0.122905 0.0284928 0)
  (-0.147022 0.0452519 0)
  (-0.182481 0.063736 0)
  (-0.232575 0.0798653 0)
  (-0.289624 0.0910107 0)
  (-0.358249 0.0971738 0)
  (-0.620403 0.0990231 0)
  (-0.148336 0.0829841 0)
  (0.134905 0.0621119 0)
  (0.218264 0.00648492 0)
  (0.20179 -0.0284703 0)
  (0.186103 -0.0429279 0)
  (0.163625 -0.0477092 0)
  (0.131178 -0.0461508 0)
  (0.0926421 -0.0397963 0)
  (0.0527649 -0.0300811 0)
  (0.0148326 -0.0178837 0)
  (-0.0225438 -0.0040737 0)
  (-0.0463653 0.00363547 0)
  (-0.0609286 0.00707795 0)
  (-0.0680432 0.00751136 0)
  (-0.0715007 0.00671137 0)
  (-0.0737716 0.00569248 0)
  (-0.0757192 0.00467925 0)
  (-0.0776567 0.00372782 0)
  (-0.0798957 0.00278159 0)
  (-0.0824731 0.00172308 0)
  (-0.0853165 0.000601868 0)
  (-0.0884562 -0.000518013 0)
  (-0.0919682 -0.0015531 0)
  (-0.0959505 -0.00234636 0)
  (-0.100483 -0.00264913 0)
  (-0.105568 -0.0021438 0)
  (-0.111114 -0.000470867 0)
  (-0.116898 0.00273331 0)
  (-0.122321 0.00789932 0)
  (-0.126551 0.0157651 0)
  (-0.130051 0.0274719 0)
  (-0.133058 0.043407 0)
  (-0.136391 0.0626606 0)
  (-0.140557 0.0815443 0)
  (-0.142373 0.0901426 0)
  (-0.124974 0.0675969 0)
  (-0.0809451 -0.0257418 0)
  (-0.278912 -0.203734 0)
  (-0.0236873 0.231088 0)
  (0.0636313 0.099766 0)
  (0.0377677 0.0192211 0)
  (0.0256114 -0.00424533 0)
  (0.0164446 -0.0096976 0)
  (-0.0020495 -0.0111905 0)
  (-0.0269782 -0.00874772 0)
  (-0.0527232 -0.00414588 0)
  (-0.074583 0.00038415 0)
  (-0.0896897 0.00342508 0)
  (-0.0970279 0.00372559 0)
  (-0.0996267 0.001502 0)
  (-0.100029 -0.00147289 0)
  (-0.0994583 -0.00483914 0)
  (-0.0990086 -0.00826707 0)
  (-0.0990854 -0.011501 0)
  (-0.0997169 -0.0144132 0)
  (-0.100808 -0.0168035 0)
  (-0.102224 -0.0185272 0)
  (-0.10389 -0.0195722 0)
  (-0.105851 -0.0200425 0)
  (-0.108078 -0.0199521 0)
  (-0.110569 -0.0195377 0)
  (-0.113294 -0.0188322 0)
  (-0.116143 -0.0177212 0)
  (-0.118885 -0.0159693 0)
  (-0.121154 -0.0131955 0)
  (-0.122438 -0.00882257 0)
  (-0.122194 -0.00261925 0)
  (-0.11945 0.00594193 0)
  (-0.112758 0.017731 0)
  (-0.100826 0.0335024 0)
  (-0.083369 0.052807 0)
  (-0.061284 0.0715161 0)
  (-0.0374602 0.0824685 0)
  (0.00268178 0.0666943 0)
  (0.143543 -0.00455515 0)
  (-0.207365 -0.114343 0)
  (-0.103765 -0.348815 0)
  (-0.439332 -0.120267 0)
  (-0.310803 0.0958307 0)
  (-0.226325 -0.0202049 0)
  (-0.179802 -0.0415111 0)
  (-0.165262 -0.0294198 0)
  (-0.162816 -0.0164694 0)
  (-0.164136 -0.00613247 0)
  (-0.164742 0.00252142 0)
  (-0.162514 0.0100709 0)
  (-0.157849 0.016988 0)
  (-0.15085 0.0232775 0)
  (-0.142444 0.0286758 0)
  (-0.134066 0.0331828 0)
  (-0.126581 0.0373686 0)
  (-0.120322 0.0414453 0)
  (-0.115302 0.04549 0)
  (-0.111354 0.0493077 0)
  (-0.108329 0.0525357 0)
  (-0.106132 0.0548413 0)
  (-0.104679 0.0560348 0)
  (-0.103892 0.0561058 0)
  (-0.103714 0.0551797 0)
  (-0.104086 0.0533722 0)
  (-0.104931 0.0511234 0)
  (-0.106151 0.0486362 0)
  (-0.10759 0.0460261 0)
  (-0.108982 0.0433863 0)
  (-0.109907 0.0407862 0)
  (-0.109688 0.03829 0)
  (-0.107075 0.0367268 0)
  (-0.100175 0.0367949 0)
  (-0.0865127 0.039265 0)
  (-0.064222 0.0450422 0)
  (-0.0339151 0.0546343 0)
  (0.0145623 0.0676939 0)
  (0.0592576 0.0689246 0)
  (0.101877 0.0541531 0)
  (0.163907 0.0250664 0)
  (-0.219003 -0.029846 0)
)
;

boundaryField
{
  floor
  {
    type noSlip;
  }
  ceiling
  {
    type noSlip;
  }
  sWall
  {
    type noSlip;
  }
  nWall
  {
    type noSlip;
  }
  sideWalls
  {
    type empty;
  }
  glass1
  {
    type noSlip;
  }
  glass2
  {
    type noSlip;
  }
  sun
  {
    type noSlip;
  }
  heatsource1
  {
    type noSlip;
  }
  heatsource2
  {
    type noSlip;
  }
  Table_master
  {
    type noSlip;
  }
  Table_slave
  {
    type noSlip;
  }
  inlet
  {
    type fixedValue;
    value uniform (0.3 0 0);
  }
  outlet
  {
    type zeroGradient;
  }
} 	// ************************************************************************* //

