/*--------------------------------*- C++ -*----------------------------------*\
  =========                 |
  \\      /  F ield         | OpenFOAM: The Open Source CFD Toolbox
   \\    /   O peration     | Website:  https://openfoam.org
    \\  /    A nd           | Version:  6
     \\/     M anipulation  |
\*---------------------------------------------------------------------------*/
FoamFile
{
    version     2.0;
    format      ascii;
    class       volScalarField;
    location    "800";
    object      alphat;
}
// * * * * * * * * * * * * * * * * * * * * * * * * * * * * * * * * * * * * * //

dimensions      [1 -1 -1 0 0 0 0];

internalField   nonuniform List<scalar> 
459
(
0.00124131
0.00135479
0.00138095
0.00144707
0.00150844
0.00156646
0.00162432
0.00167883
0.00171656
0.00173008
0.00171241
0.0016587
0.00156637
0.00143761
0.00128706
0.000538057
0.000640069
0.000723588
0.000732797
0.000712055
0.00068188
0.000639237
0.000595688
0.000556147
0.000521222
0.000490457
0.00046327
0.000439142
0.000417636
0.000397961
0.000379141
0.000359896
0.00034864
0.000320013
0.00168773
0.00400833
0.00379336
0.00439908
0.00499453
0.00559026
0.0061039
0.00650957
0.00688581
0.00719748
0.00740234
0.00745843
0.00731609
0.00685773
0.00559038
0.00131138
0.000829277
0.00055887
0.00118217
0.0016595
0.00202182
0.00223743
0.00224583
0.00176323
0.00150858
0.00132858
0.00119167
0.00108381
0.000996637
0.000923612
0.000855995
0.000790719
0.000732633
0.000681752
0.000820037
0.000426836
0.00205859
0.00543678
0.00462548
0.00574175
0.00625619
0.00663324
0.00693101
0.007201
0.00751355
0.00785016
0.00817069
0.00841781
0.00853983
0.0084425
0.00787437
0.00602565
0.00136169
0.00103894
0.0015225
0.00199236
0.00245252
0.00279545
0.00276216
0.000910358
0.000803725
0.000717207
0.000647068
0.000589813
0.00054265
0.000503501
0.000471031
0.000444628
0.000478427
0.000549731
0.00093371
0.000500554
0.00241457
0.00695069
0.00457058
0.0059855
0.00636141
0.0064569
0.00654839
0.00671387
0.00698353
0.00733863
0.00773879
0.00810354
0.00837646
0.00847476
0.00834966
0.00768021
0.00508439
0.00158871
0.00189663
0.00241639
0.00299308
0.00351093
0.00386785
0.00368519
0.00103183
0.000941665
0.000877017
0.000827755
0.000785909
0.000747152
0.000709905
0.000670743
0.000625346
0.000586693
0.000593958
0.0010982
0.000558579
0.00277733
0.00892536
0.00494303
0.00571608
0.00622275
0.00616749
0.00613689
0.00627432
0.00652772
0.00689259
0.00733315
0.00773159
0.00800582
0.00810768
0.00804218
0.00777836
0.00710941
0.00602742
0.00565043
0.00558296
0.00562987
0.00568601
0.00568298
0.00549234
0.00466107
0.00424827
0.00400665
0.0038212
0.0036278
0.00335339
0.00297719
0.00251651
0.0020046
0.00149973
0.00111331
0.0011085
0.000765565
0.000693831
0.000834735
0.000937727
0.00316262
0.0110919
0.00679629
0.00555281
0.00604752
0.00620934
0.00606562
0.00618545
0.00639407
0.00673056
0.00716204
0.00757665
0.00784611
0.00789914
0.00776081
0.00753234
0.00731837
0.00717842
0.00717901
0.00719608
0.00715012
0.00703211
0.00684724
0.00658233
0.0061887
0.00583367
0.00551834
0.00521587
0.00490885
0.00458126
0.00417496
0.00367395
0.00307945
0.00242703
0.00184724
0.0013614
0.00106483
0.000913714
0.00129411
0.000981514
0.00352377
0.0126515
0.00973361
0.00706615
0.00661312
0.00662683
0.00645439
0.00636536
0.00647439
0.00679845
0.00725409
0.00768822
0.00794139
0.0079335
0.0077165
0.00747361
0.00743238
0.00764076
0.00787529
0.00793578
0.00780112
0.00753045
0.00717286
0.00675674
0.00630783
0.00588518
0.00549725
0.0051369
0.00480459
0.0045077
0.00424891
0.00393925
0.00350384
0.00296126
0.00243746
0.00194535
0.00160367
0.00148085
0.00146794
0.00111484
0.00359935
0.0114528
0.00994999
0.00883286
0.0081382
0.00734949
0.00671507
0.00646897
0.00661818
0.0070556
0.00760271
0.00805463
0.00823813
0.00810726
0.0077882
0.00756234
0.00768473
0.00801168
0.00812413
0.00795251
0.00757822
0.00707865
0.00651597
0.0059499
0.00543514
0.00499894
0.0046339
0.00433127
0.00409207
0.00392191
0.00382578
0.00378609
0.00365285
0.00333499
0.00305384
0.00291612
0.00301267
0.00333642
0.00414613
0.00169156
0.003509
0.00419294
0.00473687
0.00490533
0.00492411
0.00505759
0.00541745
0.00603098
0.00683571
0.0076687
0.00833387
0.00866661
0.00856236
0.00812238
0.007699
0.0076246
0.00768775
0.00766242
0.00741674
0.00696643
0.00637198
0.00571705
0.00508304
0.00453541
0.00409998
0.00376421
0.00350229
0.00329456
0.00312748
0.00298927
0.00286881
0.00275793
0.00267343
0.00261276
0.00258956
0.00259768
0.00257848
0.00248001
0.00231368
0.00156976
0.0021584
0.00382747
0.00532815
0.0065855
0.00760412
0.00851057
0.00918767
0.00950151
0.00942024
0.00897723
0.00821961
0.00741707
0.00695015
0.00676133
0.0065508
0.0061833
0.0056653
0.00506185
0.00445534
0.00390795
0.00345992
0.00312525
0.00288608
0.0027168
0.00259756
0.00251578
0.00246374
0.00243689
0.00243484
0.00246116
0.0025002
0.00254851
0.00260086
0.00263788
0.00262766
0.00255341
0.00225559
0.00125367
0.0025166
0.00539511
0.00741942
0.00834535
0.00896806
0.0093991
0.00926955
0.00863226
0.0077205
0.00677778
0.00599497
0.00543448
0.00505711
0.00471143
0.00430335
0.00384586
0.00338795
0.00298121
0.0026594
0.00242804
0.0022743
0.00217361
0.00210996
0.00207642
0.0020707
0.00208839
0.00212559
0.00217762
0.00224942
0.00233776
0.00243973
0.00254891
0.00264981
0.00271886
0.00273844
0.00269862
0.00194369
0.00128202
0.0021503
0.00226473
0.00234893
0.00241655
0.00218755
0.002011
0.00192883
0.0018387
0.00170958
0.00154954
0.00137196
0.00119861
0.00104704
0.000927244
0.000840213
0.000777967
0.000732162
0.000698058
0.000673908
0.000659133
0.000652969
0.000654274
0.000661963
0.000675226
0.000693811
0.000717345
0.000745407
0.000778312
0.000816688
0.000861699
0.000912781
0.000969988
0.0010338
0.00110458
0.00118167
0.00126441
0.00127916
0.0011439
0.00108475
0.00128268
)
;

boundaryField
{
    floor
    {
        type            compressible::alphatWallFunction;
        Prt             0.85;
        value           nonuniform List<scalar> 
29
(
0.000182112
7.50415e-05
9.03499e-05
0.00010266
0.000104007
0.000100972
9.65363e-05
9.02272e-05
8.37305e-05
7.77809e-05
7.24822e-05
6.77779e-05
6.35898e-05
5.98467e-05
5.64884e-05
5.33966e-05
5.04207e-05
4.73577e-05
4.55565e-05
4.09407e-05
4.09401e-05
5.79277e-05
6.9326e-05
7.81486e-05
0.00018211
7.50406e-05
7.81912e-05
0.000147766
0.000222877
)
;
    }
    ceiling
    {
        type            compressible::alphatWallFunction;
        Prt             0.85;
        value           nonuniform List<scalar> 
43
(
0.000296514
0.00031126
0.000322062
0.000330825
0.000301492
0.000278639
0.000267931
0.000256123
0.000239086
0.000217765
0.000193817
0.000170095
0.000149032
0.000132134
0.000119697
0.000110708
0.000104039
9.90401e-05
9.54825e-05
9.32982e-05
9.23852e-05
9.25785e-05
9.37169e-05
9.56768e-05
9.84152e-05
0.00010187
0.000105972
0.000110758
0.00011631
0.000122782
0.000130079
0.000138194
0.00014718
0.000157072
0.000167764
0.000179151
0.000181171
0.000162537
0.000154313
0.000181663
0.000467672
0.000550857
0.000343322
)
;
    }
    sWall
    {
        type            compressible::alphatWallFunction;
        Prt             0.85;
        value           uniform 0.000295295;
    }
    nWall
    {
        type            compressible::alphatWallFunction;
        Prt             0.85;
        value           nonuniform List<scalar> 6(0.000133297 0.000139488 0.000158157 0.000177352 0.000181235 0.000181333);
    }
    sideWalls
    {
        type            empty;
    }
    glass1
    {
        type            compressible::alphatWallFunction;
        Prt             0.85;
        value           nonuniform List<scalar> 9(0.000171519 0.000230926 0.000279081 0.000324512 0.000370145 0.000417978 0.000462309 0.000471659 0.000460864);
    }
    glass2
    {
        type            compressible::alphatWallFunction;
        Prt             0.85;
        value           nonuniform List<scalar> 2(0.000234952 0.000218866);
    }
    sun
    {
        type            compressible::alphatWallFunction;
        Prt             0.85;
        value           nonuniform List<scalar> 
14
(
0.000175862
0.000191357
0.000194909
0.00020386
0.000212126
0.000219907
0.000227634
0.000234885
0.00023989
0.000241679
0.000239337
0.000232207
0.00021989
0.000202577
)
;
    }
    heatsource1
    {
        type            compressible::alphatWallFunction;
        Prt             0.85;
        value           nonuniform List<scalar> 3(9.84104e-05 0.000118902 0.000133616);
    }
    heatsource2
    {
        type            compressible::alphatWallFunction;
        Prt             0.85;
        value           nonuniform List<scalar> 4(0.000185566 0.000118117 0.000118116 0.00019242);
    }
    Table_master
    {
        type            compressible::alphatWallFunction;
        Prt             0.85;
        value           nonuniform List<scalar> 9(0.000129724 0.000114428 0.00010184 9.15005e-05 8.29584e-05 7.58449e-05 6.98816e-05 6.48913e-05 6.08014e-05);
    }
    Table_slave
    {
        type            compressible::alphatWallFunction;
        Prt             0.85;
        value           nonuniform List<scalar> 9(0.000146895 0.000134176 0.000124968 0.000117898 0.000111853 0.000106219 0.000100772 9.50073e-05 8.82731e-05);
    }
    inlet
    {
        type            fixedValue;
        value           uniform 1.94e-05;
    }
    outlet
    {
        type            zeroGradient;
    }
}


// ************************************************************************* //
