/*--------------------------------*- C++ -*----------------------------------*\
  =========                 |
  \\      /  F ield         | OpenFOAM: The Open Source CFD Toolbox
   \\    /   O peration     | Website:  https://openfoam.org
    \\  /    A nd           | Version:  6
     \\/     M anipulation  |
\*---------------------------------------------------------------------------*/
FoamFile
{
    version     2.0;
    format      ascii;
    class       volScalarField;
    location    "900";
    object      alphat;
}
// * * * * * * * * * * * * * * * * * * * * * * * * * * * * * * * * * * * * * //

dimensions      [1 -1 -1 0 0 0 0];

internalField   nonuniform List<scalar> 
459
(
0.00124237
0.00135607
0.0013824
0.00144865
0.00151015
0.00156832
0.00162637
0.00168093
0.00171862
0.00173198
0.00171404
0.00165997
0.00156714
0.00143762
0.00128615
0.000538682
0.000640741
0.000724601
0.000734272
0.000713655
0.000683518
0.000640761
0.000597065
0.00055739
0.000522352
0.000491491
0.000464224
0.000440023
0.000418457
0.000398729
0.00037986
0.000360565
0.000349176
0.000320416
0.00168866
0.00401297
0.00379868
0.00440534
0.00500209
0.00559881
0.00611247
0.00651896
0.00689571
0.00720751
0.00741221
0.00746824
0.00732647
0.00687065
0.00561471
0.00131091
0.000831857
0.000559156
0.00118485
0.0016647
0.00202922
0.00224646
0.00225485
0.00176845
0.00151239
0.00133155
0.00119406
0.00108578
0.000998303
0.000925103
0.000857309
0.000791817
0.000733503
0.000682512
0.000820493
0.000426836
0.00205937
0.00544284
0.0046329
0.00574828
0.00626289
0.00664026
0.00693837
0.00720953
0.00752325
0.00786093
0.00818218
0.00843001
0.00855287
0.00845522
0.00788681
0.00603249
0.00136305
0.00103829
0.00152408
0.00199719
0.00246093
0.00280658
0.00277302
0.000912447
0.000805411
0.000718571
0.000648179
0.000590725
0.000543403
0.000504128
0.000471559
0.000445086
0.000478945
0.000550445
0.000934434
0.000500352
0.00241514
0.00695642
0.00457873
0.00599159
0.00636621
0.00646179
0.00655441
0.00672149
0.00699268
0.0073495
0.0077507
0.00811646
0.00839029
0.00848805
0.00836267
0.00768991
0.00507841
0.00158988
0.00189815
0.00242
0.00300036
0.00352218
0.00388187
0.00369823
0.00103426
0.00094371
0.000878739
0.000829194
0.0007871
0.000748171
0.00071076
0.000671442
0.00062589
0.000587107
0.000594469
0.00109877
0.000558291
0.00277769
0.00893046
0.00495129
0.00572346
0.00622731
0.00617216
0.0061432
0.00628244
0.00653696
0.00690399
0.00734549
0.00774465
0.008019
0.00812078
0.00805556
0.00779191
0.00712176
0.00604073
0.00566517
0.00559979
0.00564885
0.00570642
0.00570355
0.00551121
0.00467479
0.00425883
0.00401508
0.00382807
0.00363337
0.00335734
0.00297992
0.0025183
0.00200559
0.00150011
0.00111367
0.00110956
0.000765225
0.000693389
0.000834326
0.000937298
0.00316279
0.0110967
0.00680512
0.00556313
0.00605588
0.00621775
0.00607444
0.00619432
0.0064036
0.00674181
0.00717504
0.00759042
0.00785963
0.00791213
0.00777426
0.00754795
0.00733751
0.00720139
0.00720485
0.00722357
0.0071781
0.00705942
0.0068729
0.00660557
0.00620877
0.00585098
0.00553344
0.00522906
0.00492018
0.00459025
0.00418158
0.00367846
0.00308216
0.00242842
0.00184809
0.00136304
0.00106522
0.000913597
0.00129371
0.00098106
0.00352367
0.0126555
0.00974198
0.00707914
0.00662872
0.0066384
0.00646256
0.00637288
0.00648362
0.00681043
0.0072684
0.00770345
0.0079561
0.00794746
0.0077314
0.00749268
0.0074584
0.00767273
0.00790957
0.00797003
0.00783425
0.00756181
0.00720217
0.00678375
0.00633214
0.00590659
0.00551579
0.00515266
0.00481767
0.00451828
0.00425726
0.00394519
0.00350795
0.00296406
0.0024395
0.00194732
0.00160492
0.00148155
0.00146811
0.00111442
0.00359914
0.0114527
0.0099524
0.0088386
0.00814042
0.00734818
0.00671565
0.00647377
0.00662797
0.00706983
0.00761974
0.00807222
0.0082546
0.00812301
0.00780661
0.00758808
0.00771965
0.00805017
0.00816194
0.00798935
0.00761374
0.00711241
0.00654731
0.00597788
0.00545903
0.00501859
0.0046496
0.00434344
0.00410125
0.0039287
0.00383079
0.00378975
0.00365521
0.00333677
0.00305533
0.00291728
0.00301298
0.00333544
0.00414406
0.00169082
0.00350877
0.0041924
0.00473576
0.00490284
0.00492275
0.00505921
0.00542363
0.00604295
0.00685311
0.00768956
0.00835543
0.00868627
0.00857911
0.00813939
0.00772571
0.00765891
0.00772581
0.00770053
0.00745401
0.00700309
0.00640721
0.00574959
0.00511135
0.00455843
0.00411768
0.00377727
0.00351159
0.0033009
0.00313157
0.00299173
0.00287012
0.00275854
0.00267358
0.00261259
0.00258914
0.00259705
0.00257777
0.00247936
0.00231311
0.0015691
0.00215546
0.00382401
0.00533279
0.00659833
0.00762418
0.00853657
0.00921418
0.00952507
0.00943969
0.00899315
0.00823323
0.00743809
0.00698204
0.00679715
0.00658654
0.00621804
0.00569886
0.00509348
0.0044841
0.00393265
0.00347997
0.00314048
0.00289715
0.00272449
0.0026026
0.0025188
0.00246529
0.00243742
0.00243478
0.00246064
0.00249939
0.0025475
0.00259969
0.00263657
0.00262614
0.00255152
0.00225392
0.00125295
0.00251485
0.00539902
0.00743448
0.00836353
0.00898967
0.00942461
0.00928266
0.00864008
0.00772853
0.00679091
0.00601443
0.00545994
0.00508573
0.00473999
0.00433171
0.00387416
0.00341548
0.0030068
0.00268214
0.00244755
0.00229063
0.00218732
0.00212136
0.00208529
0.00207735
0.0020931
0.00212862
0.00217925
0.00224997
0.00233747
0.0024388
0.0025475
0.00264804
0.00271675
0.00273587
0.0026959
0.00194253
0.00128125
0.00214899
0.00226337
0.00234747
0.00241524
0.00218711
0.00201187
0.00193102
0.00184081
0.00171162
0.00155118
0.0013738
0.00120099
0.0010502
0.000931114
0.000844565
0.000782518
0.000736672
0.000702325
0.000677778
0.000662511
0.000655825
0.00065662
0.00066383
0.000676653
0.000694829
0.000718065
0.00074587
0.000778555
0.000816748
0.000861611
0.000912541
0.000969615
0.00103331
0.00110398
0.00118097
0.00126356
0.00127828
0.00114296
0.00108403
0.00128221
)
;

boundaryField
{
    floor
    {
        type            compressible::alphatWallFunction;
        Prt             0.85;
        value           nonuniform List<scalar> 
29
(
0.000181987
7.51365e-05
9.045e-05
0.000102809
0.000104223
0.000101206
9.67778e-05
9.04537e-05
8.39369e-05
7.79689e-05
7.26545e-05
6.79368e-05
6.37374e-05
5.9984e-05
5.66171e-05
5.35177e-05
5.05348e-05
4.74647e-05
4.56426e-05
4.10063e-05
4.10058e-05
5.7928e-05
6.92952e-05
7.81054e-05
0.000181985
7.51355e-05
7.82347e-05
0.000147675
0.000223034
)
;
    }
    ceiling
    {
        type            compressible::alphatWallFunction;
        Prt             0.85;
        value           nonuniform List<scalar> 
43
(
0.000296345
0.000311085
0.000321876
0.000330658
0.000301436
0.000278752
0.000268217
0.000256401
0.000239357
0.000217985
0.000194067
0.000170424
0.000149475
0.000132684
0.000120323
0.000111368
0.000104698
9.96674e-05
9.60539e-05
9.37984e-05
9.28086e-05
9.29262e-05
9.39932e-05
9.58875e-05
9.85652e-05
0.000101976
0.00010604
0.000110794
0.000116319
0.00012277
0.000130045
0.000138141
0.000147111
0.000156989
0.000167667
0.000179034
0.000181051
0.000162407
0.000154213
0.000181599
0.000467644
0.000550791
0.000343098
)
;
    }
    sWall
    {
        type            compressible::alphatWallFunction;
        Prt             0.85;
        value           uniform 0.000295126;
    }
    nWall
    {
        type            compressible::alphatWallFunction;
        Prt             0.85;
        value           nonuniform List<scalar> 6(0.000133236 0.000139424 0.000158098 0.000177254 0.00018113 0.000181268);
    }
    sideWalls
    {
        type            empty;
    }
    glass1
    {
        type            compressible::alphatWallFunction;
        Prt             0.85;
        value           nonuniform List<scalar> 9(0.000171662 0.000231049 0.000279181 0.000324585 0.00037019 0.000417999 0.000462298 0.000471634 0.000460837);
    }
    glass2
    {
        type            compressible::alphatWallFunction;
        Prt             0.85;
        value           nonuniform List<scalar> 2(0.000234857 0.000218779);
    }
    sun
    {
        type            compressible::alphatWallFunction;
        Prt             0.85;
        value           nonuniform List<scalar> 
14
(
0.000176007
0.000191531
0.000195107
0.000204073
0.000212356
0.000220156
0.000227907
0.000235164
0.000240162
0.00024193
0.000239553
0.000232376
0.000219993
0.000202578
)
;
    }
    heatsource1
    {
        type            compressible::alphatWallFunction;
        Prt             0.85;
        value           nonuniform List<scalar> 3(9.83453e-05 0.000118843 0.000133556);
    }
    heatsource2
    {
        type            compressible::alphatWallFunction;
        Prt             0.85;
        value           nonuniform List<scalar> 4(0.000185503 0.000118489 0.000118487 0.000192605);
    }
    Table_master
    {
        type            compressible::alphatWallFunction;
        Prt             0.85;
        value           nonuniform List<scalar> 9(0.000130021 0.000114672 0.00010204 9.16653e-05 8.30952e-05 7.59591e-05 6.99775e-05 6.49729e-05 6.08727e-05);
    }
    Table_slave
    {
        type            compressible::alphatWallFunction;
        Prt             0.85;
        value           nonuniform List<scalar> 9(0.000147237 0.000134466 0.000125214 0.000118105 0.000112025 0.000106368 0.000100897 9.51105e-05 8.83541e-05);
    }
    inlet
    {
        type            fixedValue;
        value           uniform 1.94e-05;
    }
    outlet
    {
        type            zeroGradient;
    }
}


// ************************************************************************* //
