/*--------------------------------*- C++ -*----------------------------------*\
  =========                 |
  \\      /  F ield         | OpenFOAM: The Open Source CFD Toolbox
   \\    /   O peration     | Website:  https://openfoam.org
    \\  /    A nd           | Version:  6
     \\/     M anipulation  |
\*---------------------------------------------------------------------------*/
FoamFile
{
    version     2.0;
    format      ascii;
    class       volScalarField;
    location    "900";
    object      nut;
}
// * * * * * * * * * * * * * * * * * * * * * * * * * * * * * * * * * * * * * //

dimensions      [0 2 -1 0 0 0 0];

internalField   nonuniform List<scalar> 
459
(
0.00107012
0.00116705
0.00118965
0.00124665
0.00129956
0.00134961
0.00139954
0.00144646
0.00147885
0.00149029
0.00147479
0.00142822
0.00134833
0.00123689
0.0011066
0.000463612
0.000551414
0.000623567
0.000631895
0.00061416
0.000588232
0.000551444
0.000513845
0.000479707
0.000449558
0.000423004
0.000399541
0.000378717
0.00036016
0.000343185
0.000326948
0.000310346
0.000300549
0.000275813
0.00145543
0.00345415
0.00326945
0.00379164
0.0043053
0.00481891
0.00526098
0.0056107
0.00593462
0.00620245
0.00637803
0.00642576
0.00630348
0.00591119
0.00483063
0.00112783
0.000715672
0.000481249
0.00101964
0.00143255
0.00174624
0.00193323
0.00194047
0.0015219
0.00130154
0.00114592
0.0010276
0.000934423
0.000859142
0.000796149
0.000737809
0.000681451
0.000631274
0.000587401
0.000706175
0.000367406
0.00177607
0.00468579
0.00398802
0.00494834
0.00539161
0.00571668
0.00597341
0.00620671
0.00647618
0.00676585
0.00704124
0.00725359
0.00735874
0.00727451
0.00678548
0.00519012
0.00117271
0.000893507
0.00131153
0.00171867
0.00211779
0.00241533
0.00238651
0.000785268
0.00069315
0.000618415
0.000557834
0.000508388
0.000467663
0.000433862
0.000405833
0.000383051
0.000412194
0.000473736
0.000804235
0.000430686
0.00208424
0.00599021
0.00394196
0.00515867
0.00548177
0.00556459
0.00564469
0.00578844
0.00602108
0.00632681
0.00667054
0.00698404
0.00721891
0.0073028
0.00719498
0.00661628
0.00436944
0.00136797
0.00163329
0.00208244
0.002582
0.00303125
0.00334099
0.00318309
0.000890225
0.000812313
0.00075641
0.000713781
0.000677561
0.00064406
0.000611865
0.000578024
0.000538812
0.000505385
0.000511684
0.000945724
0.000480569
0.00239862
0.00769222
0.00426336
0.00492852
0.00536315
0.00531652
0.00529228
0.00541204
0.00563003
0.0059441
0.00632214
0.00666418
0.00689943
0.0069868
0.00693086
0.0067043
0.00612796
0.00519803
0.00487517
0.00481925
0.00486184
0.00491175
0.0049096
0.00474429
0.00402447
0.00366653
0.0034568
0.00329589
0.00312832
0.00289069
0.00256573
0.00216825
0.00172676
0.00129148
0.000958691
0.000955086
0.000658706
0.000597024
0.000718483
0.000807175
0.00273272
0.00956144
0.00586102
0.00479122
0.00521632
0.00535687
0.00523443
0.00533722
0.00551577
0.0058047
0.0061754
0.00653125
0.00676209
0.00680721
0.00668898
0.00649479
0.00631422
0.00619758
0.00620107
0.00621773
0.00617912
0.00607743
0.00591726
0.00568742
0.00534603
0.00503816
0.00476488
0.00450289
0.00423696
0.00395285
0.00360087
0.00316753
0.00265395
0.0020909
0.00159109
0.00117338
0.000916978
0.000786538
0.00111385
0.000844767
0.00304609
0.0109106
0.00839487
0.00609956
0.00571186
0.00572134
0.00557013
0.0054915
0.00558442
0.00586303
0.00625482
0.00662767
0.00684457
0.00683751
0.00665244
0.00644793
0.00641925
0.00660446
0.00680901
0.0068617
0.00674536
0.00651126
0.00620196
0.00584193
0.00545323
0.00508691
0.00475047
0.00443779
0.0041493
0.00389141
0.00366651
0.0033976
0.0030209
0.00255235
0.00210047
0.00167654
0.00138169
0.00127551
0.00126398
0.00095956
0.00311363
0.00988773
0.0085878
0.0076242
0.00702093
0.00633711
0.0057895
0.00557762
0.0057067
0.00608383
0.00655486
0.00694335
0.00710073
0.00698875
0.00671801
0.0065313
0.00664564
0.00693106
0.00702798
0.00687992
0.00655691
0.00612551
0.00563908
0.00514883
0.00470206
0.00432279
0.004005
0.00374131
0.00353268
0.003384
0.00329959
0.00326411
0.00314806
0.00287364
0.00263109
0.00251205
0.00259439
0.00287214
0.00356867
0.00145669
0.00303862
0.0036272
0.00409374
0.00423498
0.00424951
0.00436374
0.00467277
0.00520092
0.00589398
0.00661121
0.00718369
0.00746977
0.00738006
0.00700414
0.00665031
0.00659435
0.00665288
0.00663173
0.00641988
0.00603186
0.00551889
0.00495264
0.00440301
0.0039268
0.00354718
0.00325397
0.0030251
0.00284359
0.00269771
0.00257722
0.00247243
0.00237631
0.00230314
0.00225064
0.00223053
0.00223751
0.00222112
0.00213655
0.00199345
0.00135254
0.001818
0.00324783
0.00454566
0.00563358
0.00651977
0.00731139
0.00790289
0.00817914
0.00811341
0.0077355
0.00708619
0.00640401
0.00601262
0.00585415
0.00567324
0.00535616
0.00490918
0.00438786
0.00386301
0.00338802
0.00299809
0.00270564
0.00249603
0.00234728
0.00224227
0.00217008
0.00212398
0.00209997
0.0020977
0.00212
0.00215341
0.00219491
0.00223997
0.00227187
0.00226305
0.0021989
0.00194256
0.00108001
0.00212428
0.00458881
0.00633897
0.00714847
0.00769969
0.00808722
0.00797581
0.00743049
0.00665077
0.00584641
0.00517933
0.00470264
0.0043808
0.00408328
0.00373175
0.00333771
0.00294263
0.00259059
0.00231092
0.00210882
0.00197363
0.00188463
0.0018278
0.00179673
0.00178989
0.00180347
0.00183408
0.00187771
0.00193866
0.00201406
0.00210139
0.00219509
0.00228178
0.00234107
0.00235765
0.00232334
0.00167419
0.00110435
0.00182814
0.00192499
0.00199649
0.00206643
0.00187665
0.0017288
0.00166066
0.00158401
0.00147344
0.0013357
0.00118321
0.00103451
0.000904706
0.000802171
0.000727638
0.0006742
0.000634714
0.000605131
0.000583987
0.000570838
0.000565081
0.000565769
0.000571985
0.000583037
0.000598701
0.000618726
0.000642687
0.000670854
0.000703766
0.000742426
0.000786315
0.000835499
0.00089039
0.000951294
0.00101765
0.00108884
0.00110156
0.000984968
0.00093436
0.0011055
)
;

boundaryField
{
    floor
    {
        type            nutkWallFunction;
        Cmu             0.09;
        kappa           0.41;
        E               9.8;
        value           nonuniform List<scalar> 
29
(
0.000133192
5.50381e-05
6.62422e-05
7.52845e-05
7.63198e-05
7.41134e-05
7.08734e-05
6.62462e-05
6.14777e-05
5.71105e-05
5.32214e-05
4.97688e-05
4.66953e-05
4.39481e-05
4.14837e-05
3.9215e-05
3.70313e-05
3.47838e-05
3.34501e-05
3.00563e-05
3.00562e-05
4.24472e-05
5.07694e-05
5.72202e-05
0.000133192
5.5038e-05
5.73081e-05
0.000108113
0.00016322
)
;
    }
    ceiling
    {
        type            nutkWallFunction;
        Cmu             0.09;
        kappa           0.41;
        E               9.8;
        value           nonuniform List<scalar> 
43
(
0.00021447
0.00022508
0.000232878
0.000240569
0.000219907
0.000203636
0.000196087
0.000187549
0.000175148
0.000159551
0.000142071
0.000124778
0.000109448
9.71582e-05
8.81094e-05
8.15542e-05
7.66703e-05
7.29873e-05
7.03417e-05
6.86904e-05
6.79659e-05
6.80524e-05
6.88342e-05
7.02218e-05
7.21832e-05
7.46815e-05
7.76582e-05
8.11404e-05
8.51872e-05
8.99121e-05
9.52409e-05
0.000101171
0.000107742
0.000114977
0.0001228
0.000131128
0.000132609
0.000118955
0.000112972
0.00013307
0.000344148
0.000404983
0.000246633
)
;
    }
    sWall
    {
        type            nutkWallFunction;
        Cmu             0.09;
        kappa           0.41;
        E               9.8;
        value           uniform 0.000214529;
    }
    nWall
    {
        type            nutkWallFunction;
        Cmu             0.09;
        kappa           0.41;
        E               9.8;
        value           nonuniform List<scalar> 6(9.7762e-05 0.000102286 0.000115959 0.000130107 0.000132944 0.000133079);
    }
    sideWalls
    {
        type            empty;
    }
    glass1
    {
        type            nutkWallFunction;
        Cmu             0.09;
        kappa           0.41;
        E               9.8;
        value           nonuniform List<scalar> 9(0.000129045 0.000173338 0.000209183 0.000242968 0.000276884 0.000312416 0.000345331 0.000352389 0.000344577);
    }
    glass2
    {
        type            nutkWallFunction;
        Cmu             0.09;
        kappa           0.41;
        E               9.8;
        value           nonuniform List<scalar> 2(0.000173336 0.000161533);
    }
    sun
    {
        type            nutkWallFunction;
        Cmu             0.09;
        kappa           0.41;
        E               9.8;
        value           nonuniform List<scalar> 
14
(
0.000128946
0.000140204
0.000142814
0.000149372
0.00015543
0.000161134
0.000166802
0.000172107
0.000175759
0.000177046
0.000175301
0.000170046
0.000160987
0.000148249
)
;
    }
    heatsource1
    {
        type            nutkWallFunction;
        Cmu             0.09;
        kappa           0.41;
        E               9.8;
        value           nonuniform List<scalar> 3(7.19752e-05 8.69899e-05 9.77611e-05);
    }
    heatsource2
    {
        type            nutkWallFunction;
        Cmu             0.09;
        kappa           0.41;
        E               9.8;
        value           nonuniform List<scalar> 4(0.000135655 8.66475e-05 8.66475e-05 0.000140853);
    }
    Table_master
    {
        type            nutkWallFunction;
        Cmu             0.09;
        kappa           0.41;
        E               9.8;
        value           nonuniform List<scalar> 9(9.51148e-05 8.38864e-05 7.46457e-05 6.70562e-05 6.07869e-05 5.55666e-05 5.11909e-05 4.75299e-05 4.45305e-05);
    }
    Table_slave
    {
        type            nutkWallFunction;
        Cmu             0.09;
        kappa           0.41;
        E               9.8;
        value           nonuniform List<scalar> 9(0.000107721 9.83811e-05 9.16148e-05 8.64155e-05 8.19687e-05 7.78305e-05 7.38289e-05 6.95953e-05 6.46517e-05);
    }
    inlet
    {
        type            calculated;
        value           uniform 0.000100623;
    }
    outlet
    {
        type            calculated;
        value           nonuniform List<scalar> 2(0.00182814 0.00192499);
    }
}


// ************************************************************************* //
