/*--------------------------------*- C++ -*----------------------------------*\
  =========                 |
  \\      /  F ield         | OpenFOAM: The Open Source CFD Toolbox
   \\    /   O peration     | Website:  https://openfoam.org
    \\  /    A nd           | Version:  6
     \\/     M anipulation  |
\*---------------------------------------------------------------------------*/
FoamFile
{
    version     2.0;
    format      ascii;
    class       volScalarField;
    location    "700";
    object      epsilon;
}
// * * * * * * * * * * * * * * * * * * * * * * * * * * * * * * * * * * * * * //

dimensions      [0 2 -3 0 0 0 0];

internalField   nonuniform List<scalar> 
459
(
0.000616329
0.000824208
0.000899284
0.00105043
0.00121445
0.00140173
0.00158207
0.00170597
0.00173622
0.00165571
0.00146644
0.0010435
0.000736371
0.000466264
0.000286284
5.07321e-05
8.16337e-05
0.000130171
0.000164069
0.000167236
0.000154505
0.000127283
0.000101983
8.22542e-05
6.72766e-05
5.58308e-05
4.69754e-05
3.99996e-05
3.44374e-05
2.98552e-05
2.58883e-05
2.21949e-05
1.91008e-05
1.42658e-05
0.0014266
0.00191222
0.000765581
0.000763404
0.000836279
0.000964484
0.00112062
0.00124269
0.00127928
0.00121364
0.00106267
0.000823629
0.000624898
0.000462668
0.000337134
0.000529142
0.000266985
4.87025e-05
8.12666e-05
0.000124294
0.000137942
0.00013563
0.000127831
0.000129529
0.000105038
8.20177e-05
6.40021e-05
5.04112e-05
4.02245e-05
3.25207e-05
2.66611e-05
2.22298e-05
1.94306e-05
1.80803e-05
3.01045e-05
2.37013e-05
0.0024606
0.00426375
0.000903336
0.000754724
0.00085656
0.00104767
0.0012602
0.00140024
0.00142878
0.00134965
0.00118028
0.000956641
0.000753102
0.000579955
0.000434396
0.000392827
0.00049859
0.000122808
0.000156048
0.000166269
0.000165315
0.000155812
0.000152627
0.000328368
0.000215561
0.000146312
0.000103122
7.53644e-05
5.6935e-05
4.43252e-05
3.56515e-05
2.99276e-05
2.24713e-05
1.88465e-05
4.8461e-05
3.25649e-05
0.00380697
0.00845149
0.00133353
0.000813925
0.000943535
0.00124914
0.00152215
0.00164934
0.00164764
0.00153885
0.00134031
0.00109891
0.000862119
0.000665036
0.000513162
0.000424127
0.000417552
0.000715393
0.000468007
0.000331931
0.000262485
0.000222326
0.000193931
0.000186414
0.000486817
0.000361817
0.000282345
0.000226907
0.000185257
0.000151198
0.000121702
9.51934e-05
7.02543e-05
3.75743e-05
2.39335e-05
7.82797e-05
4.06528e-05
0.0055882
0.0147617
0.00245615
0.00102161
0.00116815
0.00171806
0.00198554
0.00203845
0.00197401
0.00181282
0.00156192
0.00125232
0.000945949
0.000697314
0.00052288
0.00041674
0.000384227
0.00041677
0.000371574
0.00032802
0.000293228
0.000259916
0.00022566
0.000196209
0.00019246
0.000177208
0.00016067
0.000143329
0.000125277
0.000106713
8.83878e-05
7.11724e-05
5.54327e-05
3.82305e-05
2.68867e-05
5.82454e-05
4.23015e-05
7.11281e-05
0.000124599
0.000177519
0.00799585
0.021861
0.00532451
0.00189655
0.00216622
0.00268175
0.00272442
0.0026171
0.00244655
0.00219589
0.00184849
0.00143156
0.00102609
0.000707179
0.000499754
0.000391894
0.000362677
0.000372665
0.000372624
0.000358362
0.000329232
0.000289378
0.000245349
0.000205061
0.000177436
0.000159419
0.000144991
0.000130031
0.000113598
9.62959e-05
7.93723e-05
6.39134e-05
5.06887e-05
3.90544e-05
3.26583e-05
4.44589e-05
4.63011e-05
5.67426e-05
0.000233041
0.000204783
0.0106351
0.0261858
0.010837
0.00548724
0.00490113
0.00433758
0.00383324
0.00343002
0.0030779
0.00268427
0.00219454
0.00162837
0.00109598
0.000699502
0.000466953
0.00037209
0.000361397
0.00038009
0.000387186
0.000369196
0.000331137
0.000283224
0.000234641
0.0001932
0.000165172
0.000149408
0.000138504
0.00012838
0.000117465
0.000105672
9.38263e-05
8.22269e-05
7.20092e-05
6.35418e-05
6.21108e-05
7.26105e-05
9.64303e-05
0.000161612
0.000362444
0.000339906
0.0111795
0.0272981
0.0158637
0.0110718
0.00815925
0.0062827
0.00512231
0.00438938
0.00383269
0.00325162
0.0025615
0.00178071
0.00108702
0.000621527
0.000408712
0.000355559
0.000357813
0.000369315
0.000361824
0.000331648
0.000287482
0.000240082
0.000198324
0.000167249
0.000148492
0.000139721
0.000136848
0.00013815
0.000143551
0.000153001
0.00016462
0.00017728
0.000195019
0.000226736
0.000282853
0.000437789
0.000816571
0.00156516
0.00444431
0.00117155
0.010334
0.0170005
0.0135097
0.0105
0.00824118
0.00681053
0.0059119
0.00526468
0.00460981
0.00376438
0.00275146
0.00160416
0.000783544
0.000473094
0.000362586
0.000330901
0.00032453
0.000316565
0.000294401
0.000259832
0.000220771
0.000184771
0.000156188
0.000136941
0.000126794
0.000124229
0.000128133
0.00013877
0.000157642
0.000187147
0.000230606
0.000292451
0.000379014
0.000503245
0.000673453
0.000891641
0.00113346
0.00134297
0.0015125
0.000943694
0.00395116
0.00543431
0.00671161
0.00668133
0.00625001
0.00547439
0.00422984
0.0025274
0.00142397
0.000801212
0.000495078
0.000365229
0.000312598
0.000289767
0.000273928
0.000254006
0.000227424
0.000197828
0.000170259
0.000147965
0.000131863
0.000121519
0.00011602
0.000114768
0.00011797
0.000126624
0.000142439
0.000167893
0.000206464
0.000262891
0.000343242
0.000454155
0.000597509
0.000760818
0.000909441
0.00100004
0.000925585
0.000572341
0.00280623
0.00766739
0.00758695
0.00567178
0.00412124
0.00282628
0.00180559
0.0011137
0.000698954
0.000476877
0.000368263
0.000317347
0.00029231
0.000277478
0.000265343
0.000252824
0.000239685
0.000227248
0.00021684
0.000209038
0.000203691
0.000200239
0.000197983
0.000196373
0.000195351
0.000195758
0.000199558
0.000209795
0.00023045
0.000266324
0.000322698
0.000403794
0.000508882
0.00062741
0.000707137
0.000776826
0.00083602
0.000609043
0.00256196
0.00250488
0.00264175
0.00318376
0.00253075
0.00210121
0.00174864
0.00138298
0.00105745
0.000809086
0.000640096
0.000536427
0.000473649
0.000432463
0.000401149
0.000372511
0.000342571
0.00031046
0.000277991
0.000248013
0.000222637
0.00020249
0.000187036
0.000175307
0.000166508
0.000160357
0.000157202
0.000157933
0.000163822
0.000176358
0.000197216
0.000228427
0.000272616
0.000332868
0.000413962
0.000509424
0.000531305
0.000470769
0.000398217
0.000322551
)
;

boundaryField
{
    floor
    {
        Cmu             0.09;
        kappa           0.41;
        E               9.8;
        type            epsilonWallFunction;
        value           nonuniform List<scalar> 
29
(
0.000286284
5.07321e-05
8.16337e-05
0.000130171
0.000164069
0.000167236
0.000154505
0.000127283
0.000101983
8.22542e-05
6.72766e-05
5.58308e-05
4.69754e-05
3.99996e-05
3.44374e-05
2.98552e-05
2.58883e-05
2.21949e-05
1.91008e-05
1.42658e-05
1.42658e-05
2.37013e-05
3.25649e-05
4.06528e-05
0.000286284
5.07321e-05
4.87025e-05
0.000122808
0.000715393
)
;
    }
    ceiling
    {
        Cmu             0.09;
        kappa           0.41;
        E               9.8;
        type            epsilonWallFunction;
        value           nonuniform List<scalar> 
43
(
0.00256196
0.00250488
0.00264175
0.00318376
0.00253075
0.00210121
0.00174864
0.00138298
0.00105745
0.000809086
0.000640096
0.000536427
0.000473649
0.000432463
0.000401149
0.000372511
0.000342571
0.00031046
0.000277991
0.000248013
0.000222637
0.00020249
0.000187036
0.000175307
0.000166508
0.000160357
0.000157202
0.000157933
0.000163822
0.000176358
0.000197216
0.000228427
0.000272616
0.000332868
0.000413962
0.000509424
0.000531305
0.000470769
0.000398217
0.000322551
0.010334
0.0170005
0.00280623
)
;
    }
    sWall
    {
        Cmu             0.09;
        kappa           0.41;
        E               9.8;
        type            epsilonWallFunction;
        value           uniform 0.00256196;
    }
    nWall
    {
        Cmu             0.09;
        kappa           0.41;
        E               9.8;
        type            epsilonWallFunction;
        value           nonuniform List<scalar> 6(0.000177519 0.000204783 0.000339906 0.000572341 0.000609043 0.000322551);
    }
    sideWalls
    {
        type            empty;
    }
    glass1
    {
        Cmu             0.09;
        kappa           0.41;
        E               9.8;
        type            epsilonWallFunction;
        value           nonuniform List<scalar> 9(0.000616329 0.0014266 0.0024606 0.00380697 0.0055882 0.00799585 0.0106351 0.0111795 0.010334);
    }
    glass2
    {
        Cmu             0.09;
        kappa           0.41;
        E               9.8;
        type            epsilonWallFunction;
        value           nonuniform List<scalar> 2(0.00117155 0.000943694);
    }
    sun
    {
        Cmu             0.09;
        kappa           0.41;
        E               9.8;
        type            epsilonWallFunction;
        value           nonuniform List<scalar> 
14
(
0.000616329
0.000824208
0.000899284
0.00105043
0.00121445
0.00140173
0.00158207
0.00170597
0.00173622
0.00165571
0.00146644
0.0010435
0.000736371
0.000466264
)
;
    }
    heatsource1
    {
        Cmu             0.09;
        kappa           0.41;
        E               9.8;
        type            epsilonWallFunction;
        value           nonuniform List<scalar> 3(7.11281e-05 0.000124599 0.000177519);
    }
    heatsource2
    {
        Cmu             0.09;
        kappa           0.41;
        E               9.8;
        type            epsilonWallFunction;
        value           nonuniform List<scalar> 4(0.000529142 0.000266985 0.000266985 0.00049859);
    }
    Table_master
    {
        Cmu             0.09;
        kappa           0.41;
        E               9.8;
        type            epsilonWallFunction;
        value           nonuniform List<scalar> 9(0.000328368 0.000215561 0.000146312 0.000103122 7.53644e-05 5.6935e-05 4.43252e-05 3.56515e-05 2.99276e-05);
    }
    Table_slave
    {
        Cmu             0.09;
        kappa           0.41;
        E               9.8;
        type            epsilonWallFunction;
        value           nonuniform List<scalar> 9(0.000486817 0.000361817 0.000282345 0.000226907 0.000185257 0.000151198 0.000121702 9.51934e-05 7.02543e-05);
    }
    inlet
    {
        type            turbulentMixingLengthDissipationRateInlet;
        mixingLength    0.01;
        phi             phi;
        k               k;
        value           uniform 0.000101881;
    }
    outlet
    {
        type            zeroGradient;
    }
}


// ************************************************************************* //
