/*--------------------------------*- C++ -*----------------------------------*\
  =========                 |
  \\      /  F ield         | OpenFOAM: The Open Source CFD Toolbox
   \\    /   O peration     | Website:  https://openfoam.org
    \\  /    A nd           | Version:  6
     \\/     M anipulation  |
\*---------------------------------------------------------------------------*/
FoamFile
{
    version     2.0;
    format      ascii;
    class       surfaceScalarField;
    location    "1200";
    object      phi;
}
// * * * * * * * * * * * * * * * * * * * * * * * * * * * * * * * * * * * * * //

dimensions      [1 0 -1 0 0 0 0];

internalField   nonuniform List<scalar> 
852
(
-0.0029565
0.00301391
-0.00399209
0.0010356
-0.00479136
0.000799267
-0.00541597
0.000624609
-0.00583252
0.000416554
-0.0060131
0.000180583
-0.0059296
-8.35009e-05
-0.00555938
-0.000370217
-0.00491655
-0.000642825
-0.00406411
-0.000852439
-0.00310023
-0.000963883
-0.00213572
-0.0009645
-0.00127157
-0.000864148
-0.00056741
-0.000704161
-0.000565738
-0.000775326
0.000778333
-0.000517514
-0.00025781
7.69082e-05
-0.00059442
0.000575304
-0.000498394
0.000920346
-0.00034504
0.00114479
-0.000224444
0.0012697
-0.00012491
0.00133013
-6.04267e-05
0.00136352
-3.33832e-05
0.00138398
-2.04584e-05
0.00139549
-1.15031e-05
0.00139956
-4.07463e-06
0.0013949
4.661e-06
0.00137407
2.084e-05
0.00131611
5.79595e-05
0.00118592
0.000130192
0.000971958
0.000213964
0.000712057
0.000259904
0.000716082
-0.00211817
0.00528678
-0.00313604
0.00205347
-0.00396481
0.00162804
-0.00458572
0.00124553
-0.00500042
0.000831254
-0.00519015
0.000370312
-0.0051235
-0.000150144
-0.00478177
-0.000711951
-0.00419131
-0.00123328
-0.00342606
-0.00161769
-0.0025829
-0.00180704
-0.00175665
-0.00179075
-0.00102807
-0.00159273
-0.000473601
-0.00125863
-0.000208947
-0.000830389
0.000101531
-0.000310527
0.000101482
0.000261535
0.000525547
0.000664215
-0.000660488
0.000928248
-0.000858451
0.00115063
-0.000720768
0.00132732
-0.000521731
0.00144111
-0.000338237
0.00146117
-0.000144969
0.00146616
-6.54063e-05
0.00147221
-3.94377e-05
0.00147731
-2.55556e-05
0.0014807
-1.48919e-05
0.00148253
-5.90055e-06
0.00148217
5.02331e-06
0.00147645
2.65653e-05
0.00143776
9.66475e-05
0.00127175
0.000296205
0.000983235
0.000502484
0.000622488
0.000620654
0.00134879
-0.00148914
0.00701258
-0.00237087
0.00293521
-0.00311181
0.00236899
-0.00364909
0.0017828
-0.00401761
0.00119977
-0.00419379
0.000546497
-0.00412383
-0.000220102
-0.00377985
-0.00105593
-0.00321328
-0.00179985
-0.00251653
-0.00231444
-0.00178385
-0.00253972
-0.00108924
-0.00248536
-0.000485218
-0.00219674
-8.94395e-06
-0.0017349
0.000305949
-0.00114528
0.000454118
-0.000458694
0.000555602
0.00149269
-0.000957593
0.00171191
-0.000879699
0.00166956
-0.000816106
0.00165847
-0.00070967
0.00168327
-0.000546531
0.00172379
-0.000378754
0.00157897
0.00151372
0.00147444
0.00144904
0.0014343
0.00142856
0.00143374
0.00146046
0.00155726
0.00128652
0.000566948
0.000954712
0.000834297
0.000536152
0.00103922
0.00190041
-0.0010433
0.00836229
-0.00174571
0.00363762
-0.00224423
0.0028675
-0.00260479
0.00214337
-0.0028597
0.00145468
-0.0029739
0.000660702
-0.0028509
-0.000343101
-0.00246916
-0.00143767
-0.00192732
-0.00234169
-0.0013285
-0.00291325
-0.000748264
-0.00311995
-0.000228489
-0.00300514
0.000214289
-0.00263952
0.000579106
-0.00209971
0.00090356
-0.00146973
0.00126964
-0.000824777
0.00210999
-0.000284746
0.00248039
-0.000361953
0.00212593
-0.000603133
0.00199422
-0.000747987
0.00186995
-0.000691835
0.0017584
-0.000598113
0.0016888
-0.000476936
0.00163506
-0.000325008
0.00177693
-0.000142019
0.00186557
-8.87928e-05
0.00193744
-7.20233e-05
0.00199406
-5.67705e-05
0.00202108
-2.71751e-05
0.00199651
2.44268e-05
0.00189467
0.00010169
0.00168205
0.000212465
0.00130364
0.000378259
0.00114217
0.000728421
0.000828313
0.00114816
0.000357457
0.00151007
0.00227802
-0.000729377
0.00945727
-0.0012644
0.00417264
-0.00138768
0.00299079
-0.00148331
0.002239
-0.00154864
0.00152001
-0.00152015
0.000632207
-0.00125807
-0.000605181
-0.000823785
-0.00187194
-0.000349276
-0.0028162
8.53267e-05
-0.00334786
0.000443284
-0.00347791
0.000718517
-0.00328037
0.000930707
-0.00285171
0.0011102
-0.00227921
0.00129105
-0.00165058
0.00152121
-0.00105494
0.00184412
-0.000607651
0.00195347
-0.000471303
0.00187349
-0.000523156
0.00169996
-0.00057445
0.00154526
-0.000537137
0.00141358
-0.000466424
0.00131825
-0.000381611
0.00127532
-0.000282071
0.00132109
-0.000187787
0.00137775
-0.000145449
0.0014387
-0.000132975
0.00150048
-0.00011855
0.00155242
-7.91148e-05
0.00157386
2.99193e-06
0.00154299
0.000132568
0.00144788
0.000307576
0.00128967
0.000536469
0.00114165
0.00087644
0.000974931
0.00131488
0.000615738
0.00186927
0.000509606
0.00238415
-0.000992641
0.00150204
-0.001456
0.000463158
-0.00140744
-0.000631799
0.0105046
-0.00100048
0.00454133
-0.000608214
0.00259852
-0.000319793
0.00195058
-0.000111017
0.00131124
0.000199431
0.000321761
0.00066991
-0.00107566
0.00110746
-0.00230949
0.00142483
-0.00313357
0.00160508
-0.0035281
0.00167093
-0.00354375
0.00165553
-0.00326497
0.00158999
-0.00278616
0.00151172
-0.00220094
0.00145427
-0.00159313
0.00144295
-0.00104362
0.0014718
-0.000636496
0.00143983
-0.000439329
0.00131614
-0.000399469
0.00113902
-0.000397319
0.000977216
-0.000375335
0.000849318
-0.000338525
0.000763328
-0.000295619
0.000729885
-0.000248625
0.000752028
-0.000209928
0.000804724
-0.000198144
0.000873897
-0.000202147
0.000953664
-0.000198314
0.00103795
-0.000163403
0.00111529
-7.43469e-05
0.00116696
8.09044e-05
0.0011871
0.000287438
0.00118491
0.000538663
0.00120502
0.000856333
0.00129373
0.00122616
0.00146727
0.00169574
0.00190477
0.00194666
0.00216368
0.00124314
0.00177436
0.000852476
0.000425258
-0.000720762
0.0116854
-0.000609112
0.00442968
0.000462928
0.00152648
0.0011295
0.00128401
0.00168281
0.000757936
0.00231844
-0.00031387
0.00287891
-0.00163613
0.00319329
-0.00262387
0.00325465
-0.00319492
0.00310768
-0.00338114
0.00281507
-0.00325113
0.00244082
-0.00289072
0.00203906
-0.0023844
0.00165804
-0.00181992
0.0013313
-0.00126639
0.00107895
-0.000791268
0.000898951
-0.000456497
0.000745985
-0.000286361
0.000584995
-0.000238477
0.000423585
-0.000235908
0.000285136
-0.000236883
0.000180972
-0.000234359
0.000115391
-0.000230035
9.25893e-05
-0.000225822
0.000110626
-0.000227963
0.000155777
-0.000243293
0.000217473
-0.000263841
0.000293824
-0.000274663
0.000388833
-0.00025841
0.000507493
-0.000193004
0.000638244
-4.98447e-05
0.000769036
0.000156648
0.000909343
0.000398359
0.0010976
0.000668076
0.00138021
0.000943556
0.00182339
0.00125257
0.00249183
0.00127821
0.00303491
0.000700061
0.0030551
0.00083229
0.00354319
0.0025985
0.00960084
0.00327256
0.00375562
0.00342902
0.00137003
0.00386816
0.000844866
0.00454325
8.28546e-05
0.0052353
-0.00100592
0.00552668
-0.00192751
0.00541559
-0.00251278
0.00498559
-0.00276492
0.00433927
-0.00273482
0.00357813
-0.00248999
0.00278913
-0.00210172
0.00203153
-0.0016268
0.0013606
-0.00114898
0.000804896
-0.000710682
0.000385495
-0.000371865
0.000103285
-0.000174286
-8.56708e-05
-9.74031e-05
-0.000230171
-9.39754e-05
-0.000351223
-0.000114853
-0.00045022
-0.000137885
-0.000525226
-0.000159351
-0.000575572
-0.000179687
-0.000601075
-0.000200316
-0.000605
-0.000224036
-0.000596119
-0.000252172
-0.000580382
-0.000279576
-0.000557216
-0.000297827
-0.00051845
-0.000297175
-0.000445226
-0.000266225
-0.00030672
-0.000188349
-0.000117017
-3.30519e-05
0.000105123
0.00017622
0.000379638
0.000393563
0.00071702
0.000606176
0.0011578
0.000811793
0.00163211
0.000803902
0.0018222
0.000509974
0.00106989
0.0015846
0.00487257
0.010165
0.0139134
0.0122231
0.00306038
0.0113017
0.00176626
0.0105656
0.000818912
0.00968998
-0.000130287
0.00855694
-0.000794466
0.00727284
-0.00122868
0.00593159
-0.00142366
0.00460087
-0.0014041
0.003343
-0.00123212
0.0022107
-0.000969417
0.00121191
-0.000628006
0.000390003
-0.000327076
-0.000220497
-0.00010018
-0.000605615
1.32549e-05
-0.000817007
3.71085e-05
-0.000938582
2.41736e-05
-0.00102861
-3.94534e-06
-0.00110824
-3.52251e-05
-0.00118038
-6.57389e-05
-0.00124507
-9.46556e-05
-0.00130299
-0.000121764
-0.00135584
-0.000147472
-0.00140764
-0.000172232
-0.00146561
-0.000194195
-0.00153715
-0.000208036
-0.0016296
-0.000205379
-0.00175198
-0.000174785
-0.00191587
-0.000102334
-0.00212895
2.47334e-05
-0.00237772
0.000215714
-0.00268699
0.000485499
-0.00314398
0.000850547
-0.00384475
0.00130695
-0.00485355
0.00182059
-0.00628395
0.00223431
-0.00800442
0.00223044
-0.00749226
0.00107244
-0.00233211
0.00510907
0.00457633
0.00411926
0.00275607
0.0045329
0.000405269
0.00457888
-0.000176273
0.00417812
-0.000393701
0.00350317
-0.000553731
0.00266146
-0.000581953
0.00174462
-0.000487254
0.000828049
-0.000315549
-3.71265e-05
-0.000104239
-0.000748632
8.35006e-05
-0.00122112
0.000145418
-0.00148129
0.000159991
-0.00160938
0.00014135
-0.0016797
0.000107426
-0.00172897
7.34457e-05
-0.00177482
4.19054e-05
-0.00182455
1.45096e-05
-0.0018815
-8.79155e-06
-0.00194563
-3.05158e-05
-0.00201666
-5.074e-05
-0.00209562
-6.85106e-05
-0.00218387
-8.3972e-05
-0.00228355
-9.45115e-05
-0.00239574
-9.58496e-05
-0.00251921
-8.19075e-05
-0.00264926
-4.47325e-05
-0.00277699
2.53994e-05
-0.0028903
0.000138046
-0.00298686
0.000312273
-0.00307524
0.000573884
-0.00316266
0.00093797
-0.00324712
0.00139141
-0.00328187
0.00185535
-0.00320716
0.00215959
-0.00284251
0.00186579
-0.00156911
-0.000200955
-0.00382596
-0.000450406
0.00508289
0.000857895
0.00144777
0.000848123
0.00041504
0.00059812
7.37288e-05
0.000241359
-3.69387e-05
-0.00026931
-4.30605e-05
-0.000859506
8.24461e-06
-0.00142004
7.3277e-05
-0.00186698
0.000131402
-0.00214752
0.000176303
-0.00226269
0.000198673
-0.00230359
0.000186319
-0.0023048
0.000161197
-0.0022958
0.000132351
-0.00229383
0.000105464
-0.00230282
8.244e-05
-0.00232282
6.19007e-05
-0.00235147
4.31642e-05
-0.00238668
2.64243e-05
-0.00242874
1.1541e-05
-0.00247739
-2.0848e-06
-0.00253231
-1.35903e-05
-0.00259324
-2.30407e-05
-0.00265839
-2.93542e-05
-0.0027238
-3.04429e-05
-0.00278257
-2.31383e-05
-0.00282401
-3.28963e-06
-0.00283598
3.73776e-05
-0.0028056
0.000107665
-0.0027095
0.000216179
-0.00251465
0.000379035
-0.00219377
0.000617086
-0.00173237
0.00093001
-0.00110721
0.0012302
-0.000137578
0.00118996
0.00116442
0.000563797
0.00157237
-0.000608902
-0.00217098
-0.0079628
-0.0108118
-0.00568481
-0.00421396
-0.00378451
-0.00370121
-0.00373171
-0.00377062
-0.00375995
-0.00368555
-0.00355408
-0.00337862
-0.00318158
-0.00299756
-0.00283921
-0.00271013
-0.00260827
-0.0025297
-0.00247184
-0.00243284
-0.00241064
-0.00240335
-0.00240966
-0.00242744
-0.0024546
-0.002488
-0.00252241
-0.0025494
-0.00255643
-0.00252267
-0.00241848
-0.00220565
-0.00182984
-0.00121587
-0.000288893
0.000938293
0.00212514
0.00268565
0.00207322
)
;

boundaryField
{
    floor
    {
        type            calculated;
        value           nonuniform List<scalar> 
29
(
0
0
0
0
0
0
0
0
0
0
0
0
0
0
0
0
0
0
0
0
-4.02277e-06
-1.02221e-05
-1.5461e-05
-2.01491e-05
-1.67038e-06
-3.00471e-06
-8.74625e-06
-9.55155e-06
-8.44084e-06
)
;
    }
    ceiling
    {
        type            calculated;
        value           nonuniform List<scalar> 
43
(
-4.66178e-05
-4.5342e-05
-4.40714e-05
-2.30773e-05
-1.44111e-05
-9.56525e-06
-6.44041e-06
-4.14937e-06
-2.41691e-06
-1.12826e-06
-6.33022e-08
8.46932e-07
1.63492e-06
2.30302e-06
2.84576e-06
3.27406e-06
3.60857e-06
3.86398e-06
4.04752e-06
4.16553e-06
4.22793e-06
4.24653e-06
4.23099e-06
4.18829e-06
4.1274e-06
4.05099e-06
3.96086e-06
3.85814e-06
3.74309e-06
3.61442e-06
3.48137e-06
3.35043e-06
3.22685e-06
3.11797e-06
3.0373e-06
3.01726e-06
3.11536e-06
3.29398e-06
3.53273e-06
4.55717e-06
1.02276e-05
7.18371e-06
-5.6164e-05
)
;
    }
    sWall
    {
        type            calculated;
        value           uniform -0.00027119;
    }
    nWall
    {
        type            calculated;
        value           nonuniform List<scalar> 6(-4.87609e-05 -5.83365e-05 -6.28253e-05 -7.52534e-05 -8.26098e-05 -0.000102318);
    }
    sideWalls
    {
        type            empty;
        value           nonuniform 0();
    }
    glass1
    {
        type            calculated;
        value           nonuniform List<scalar> 9(-5.74145e-05 -0.000154699 -0.000236656 -0.000306406 -0.000365602 -0.000415483 -0.000460038 -0.000513982 -0.000574367);
    }
    glass2
    {
        type            calculated;
        value           nonuniform List<scalar> 2(-0.000259491 -0.000287574);
    }
    sun
    {
        type            calculated;
        value           uniform 0;
    }
    heatsource1
    {
        type            calculated;
        value           nonuniform List<scalar> 3(2.04219e-07 2.04159e-07 2.04176e-07);
    }
    heatsource2
    {
        type            calculated;
        value           nonuniform List<scalar> 4(5.11949e-08 5.12836e-08 0 0);
    }
    Table_master
    {
        type            calculated;
        value           nonuniform List<scalar> 9(-1.53159e-07 -1.53248e-07 -1.5328e-07 -1.53302e-07 -1.53317e-07 -1.53328e-07 -1.53333e-07 -1.53329e-07 -1.53299e-07);
    }
    Table_slave
    {
        type            calculated;
        value           nonuniform List<scalar> 9(1.53037e-07 1.53054e-07 1.53032e-07 1.53014e-07 1.53006e-07 1.53009e-07 1.53023e-07 1.53065e-07 1.53147e-07);
    }
    inlet
    {
        type            calculated;
        value           uniform -0.00662502;
    }
    outlet
    {
        type            calculated;
        value           nonuniform List<scalar> 2(0.00828061 0.00289432);
    }
}


// ************************************************************************* //
