/*--------------------------------*- C++ -*----------------------------------*\
  =========                 |
  \\      /  F ield         | OpenFOAM: The Open Source CFD Toolbox
   \\    /   O peration     | Website:  https://openfoam.org
    \\  /    A nd           | Version:  6
     \\/     M anipulation  |
\*---------------------------------------------------------------------------*/
FoamFile
{
    version     2.0;
    format      ascii;
    class       surfaceScalarField;
    location    "1100";
    object      phi;
}
// * * * * * * * * * * * * * * * * * * * * * * * * * * * * * * * * * * * * * //

dimensions      [1 0 -1 0 0 0 0];

internalField   nonuniform List<scalar> 
852
(
-0.00301174
0.00306874
-0.00412503
0.0011133
-0.00494326
0.000818236
-0.00553736
0.000594105
-0.00586831
0.000330955
-0.00590265
3.43502e-05
-0.00561041
-0.000292233
-0.00499308
-0.000617317
-0.00411213
-0.000880948
-0.0030772
-0.00103492
-0.0020141
-0.0010631
-0.00104721
-0.000966878
-0.000299652
-0.000747557
6.90335e-05
-0.000368682
7.10115e-05
-0.000859219
0.000862095
-0.000679208
-0.000180018
-0.000116527
-0.000562688
0.000429583
-0.000546116
0.000844514
-0.000414939
0.00113462
-0.000290113
0.00130122
-0.00016661
0.00138106
-7.98497e-05
0.00142583
-4.47777e-05
0.00145496
-2.91412e-05
0.00147345
-1.85001e-05
0.00148341
-9.97564e-06
0.00148378
-3.83673e-07
0.00146703
1.67406e-05
0.00141174
5.52706e-05
0.00128119
0.000130543
0.00105909
0.000222085
0.000758779
0.00030029
0.000762508
-0.00216251
0.00538513
-0.00323338
0.00218418
-0.00407621
0.00166108
-0.00467239
0.0011903
-0.00500999
0.000668559
-0.00505962
8.39883e-05
-0.00479262
-0.000559221
-0.00422535
-0.00118458
-0.00343671
-0.00166958
-0.00254156
-0.00193006
-0.00165159
-0.00195305
-0.000862692
-0.00175577
-0.000242108
-0.00136814
0.000190723
-0.000801509
0.000517059
-0.000255323
0.000397904
0.000119106
0.000397854
6.30885e-05
0.000807618
0.000454228
-0.000571164
0.000787094
-0.000895559
0.00105332
-0.000812348
0.00127153
-0.000633156
0.00142335
-0.000441939
0.00145553
-0.000198796
0.00146257
-8.69079e-05
0.00147076
-5.29689e-05
0.00147757
-3.59662e-05
0.00148205
-2.29922e-05
0.0014847
-1.26408e-05
0.00148505
-7.42789e-07
0.00147988
2.18937e-05
0.00144213
9.30074e-05
0.00127834
0.000294316
0.000994343
0.000506069
0.000635602
0.000659014
0.00140792
-0.00151925
0.0071403
-0.00243408
0.00309902
-0.00318863
0.00241564
-0.00371121
0.00171288
-0.00401266
0.000970017
-0.00404842
0.000119762
-0.00376723
-0.000840396
-0.00321135
-0.00174045
-0.00248835
-0.00239257
-0.00171768
-0.00270072
-0.000985899
-0.00268482
-0.000354104
-0.00238755
0.000154657
-0.00187689
0.000560821
-0.00120767
0.000831441
-0.000525941
0.000803118
0.000147431
0.00120097
0.00145281
-0.000635002
0.00168341
-0.000801772
0.00164693
-0.000859084
0.00164287
-0.000808296
0.0016782
-0.000668492
0.00175657
-0.000520317
0.00155792
0.00147116
0.00141833
0.00138251
0.00135966
0.00134716
0.00134656
0.00136859
0.00146173
0.00119914
0.00055689
0.000886875
0.000818322
0.000509148
0.00103672
0.00193206
-0.00105743
0.00850394
-0.00177018
0.00381177
-0.00228088
0.00292636
-0.00263532
0.00206732
-0.00283596
0.00117067
-0.00278746
7.12645e-05
-0.00242845
-0.0011994
-0.00187034
-0.00229853
-0.00123884
-0.00302405
-0.000632848
-0.00330669
-9.82005e-05
-0.00321945
0.000345237
-0.00283098
0.000707305
-0.00223896
0.00103297
-0.00153334
0.00132694
-0.000819905
0.00165572
-0.000181346
0.00258154
0.000275155
0.00264179
-5.16971e-05
0.00238002
-0.00037323
0.00220777
-0.000629527
0.00202765
-0.000678963
0.00186524
-0.000645892
0.00174642
-0.000549683
0.00162007
-0.00039397
0.00177834
-0.000158434
0.00185301
-7.48401e-05
0.00190009
-4.72461e-05
0.00192765
-2.77314e-05
0.00192512
2.36259e-06
0.00187542
4.9531e-05
0.00175608
0.000119175
0.0015346
0.000221304
0.00115557
0.000378861
0.00100359
0.000708846
0.000716802
0.00110509
0.000302633
0.00145087
0.00225433
-0.000731229
0.00960138
-0.00125389
0.00433444
-0.00137585
0.00304832
-0.0014514
0.00214288
-0.00145705
0.00117633
-0.00120305
-0.000182726
-0.000725027
-0.00167741
-0.000200422
-0.00282312
0.000264609
-0.00348905
0.000632705
-0.00367477
0.000900884
-0.00348762
0.00109813
-0.00302822
0.00125613
-0.00239695
0.00140995
-0.00168715
0.00158884
-0.000998794
0.00183549
-0.000427996
0.00217913
-6.84891e-05
0.00222601
-9.85771e-05
0.00213521
-0.000282427
0.00193723
-0.000431553
0.00173552
-0.000477258
0.0015487
-0.000459079
0.00139418
-0.000395175
0.0012898
-0.000289603
0.00129476
-0.00016341
0.00131378
-9.38708e-05
0.00133537
-6.88603e-05
0.00136019
-5.25636e-05
0.00138085
-1.83223e-05
0.0013813
4.90601e-05
0.00134306
0.000157392
0.00125205
0.000312292
0.00110904
0.000521849
0.000981329
0.000836541
0.000844073
0.00124233
0.000524215
0.00177071
0.000476532
0.00230199
-0.000966876
0.00144318
-0.00142362
0.000456515
-0.00137621
-0.000623937
0.0106423
-0.000959398
0.00466991
-0.000539251
0.00262818
-0.000168173
0.0017718
0.000212249
0.000795908
0.000769803
-0.000740275
0.00130716
-0.00221475
0.00168943
-0.00320537
0.00189115
-0.00369074
0.00195281
-0.0037364
0.0019096
-0.00344439
0.00180516
-0.00292378
0.00168552
-0.0022773
0.00158906
-0.0015907
0.00154424
-0.000953979
0.00156638
-0.000450143
0.00164026
-0.000142378
0.00162328
-8.15968e-05
0.00150027
-0.000159429
0.00131359
-0.00024488
0.00112317
-0.00028685
0.000951101
-0.00028702
0.000810681
-0.00025477
0.000718599
-0.000197539
0.000689585
-0.000134414
0.000698696
-0.000103003
0.000729967
-0.000100152
0.00077886
-0.000101479
0.000842384
-8.18693e-05
0.000907994
-1.65725e-05
0.000959161
0.000106201
0.00099194
0.00027949
0.001012
0.000501767
0.00105918
0.000789338
0.00117882
0.00112267
0.00138322
0.00156629
0.00185613
0.00182906
0.00213158
0.00116771
0.00176045
0.000827625
0.000441189
-0.000672062
0.011777
-0.000512634
0.00451049
0.000645427
0.00147013
0.00146948
0.000947758
0.00228646
-2.10769e-05
0.00307482
-0.00152863
0.00353559
-0.00267551
0.00366337
-0.00333312
0.00352095
-0.0035483
0.00319169
-0.00340712
0.00275362
-0.0030063
0.00227908
-0.00244923
0.00183041
-0.00182863
0.00144678
-0.00120709
0.00115815
-0.000665353
0.00097618
-0.000268187
0.000877468
-4.36771e-05
0.000787713
8.14563e-06
0.000664411
-3.61396e-05
0.000516303
-9.67852e-05
0.000365997
-0.000136561
0.000229496
-0.000150537
0.000119196
-0.00014449
4.82819e-05
-0.000126646
2.47985e-05
-0.000110954
3.7523e-05
-0.000115751
7.48344e-05
-0.000137488
0.00013373
-0.000160399
0.000217892
-0.000166057
0.000333783
-0.000132489
0.000471154
-3.11961e-05
0.000617203
0.000133415
0.000782381
0.000336564
0.000999492
0.000572202
0.00131274
0.000809402
0.00178518
0.00109383
0.00247279
0.00114143
0.00300564
0.000634839
0.00303081
0.000802438
0.00353303
0.00271366
0.00958085
0.00345798
0.00376618
0.00377489
0.00115322
0.00461716
0.000105497
0.00558911
-0.000993019
0.00605097
-0.00199046
0.00601559
-0.0026401
0.00558231
-0.00289981
0.0048741
-0.00284006
0.00401378
-0.00254678
0.00310252
-0.00209503
0.00222761
-0.00157433
0.00145972
-0.00106075
0.000826496
-0.000573876
0.000364411
-0.000203287
7.75688e-05
1.86362e-05
-7.14757e-05
0.000105349
-0.000157956
9.46091e-05
-0.000240235
4.61211e-05
-0.000334805
-2.23474e-06
-0.000435064
-3.63231e-05
-0.000528607
-5.70166e-05
-0.000605084
-6.8038e-05
-0.000655948
-7.58072e-05
-0.000678032
-8.88953e-05
-0.000679266
-0.000114544
-0.000667538
-0.000149243
-0.000644623
-0.000183342
-0.000604483
-0.000206225
-0.000530995
-0.000206004
-0.000395999
-0.000166219
-0.000198647
-6.39632e-05
4.58217e-05
9.20686e-05
0.000345415
0.000272582
0.000707192
0.000447601
0.00117154
0.000629458
0.00165252
0.000660423
0.00176681
0.000520519
0.000844919
0.00172431
0.00463295
0.0101498
0.0139092
0.0124122
0.00265029
0.0115907
0.000926929
0.0107227
-0.000124987
0.00956291
-0.000830572
0.00816051
-0.00123765
0.00664593
-0.00138519
0.00512415
-0.00131826
0.0036811
-0.00110372
0.00236431
-0.000778252
0.00122129
-0.000431323
0.000287036
-0.000126514
-0.00038092
9.40505e-05
-0.000760738
0.000176508
-0.000932307
0.000190184
-0.00100234
0.000175362
-0.00104742
0.000139662
-0.00109628
9.49618e-05
-0.00115292
5.43843e-05
-0.00121377
2.44987e-05
-0.00127547
4.65166e-06
-0.00133351
-1.00215e-05
-0.00138455
-2.47926e-05
-0.00143001
-4.34665e-05
-0.00147779
-6.67937e-05
-0.00153718
-8.98781e-05
-0.00161744
-0.000103118
-0.00172777
-9.59219e-05
-0.0018778
-5.60022e-05
-0.00207437
3.03286e-05
-0.00231176
0.000173401
-0.00260701
0.000387293
-0.00302285
0.000688391
-0.00365402
0.00107875
-0.00456904
0.00154445
-0.00589359
0.00198495
-0.00756878
0.00219568
-0.00736795
0.00152346
-0.00245353
0.00499944
0.00433387
0.00369569
0.00223079
0.00384816
-0.000277405
0.00375047
-0.000732864
0.00316869
-0.000655886
0.00233002
-0.000546553
0.00138254
-0.000370809
0.000410943
-0.00013216
-0.000470898
0.000103543
-0.0011287
0.000226442
-0.00152025
0.000265011
-0.00169821
0.000271983
-0.0017726
0.000250868
-0.00180218
0.000219748
-0.00181459
0.000187744
-0.00183009
0.000155135
-0.00185794
0.000122787
-0.00189749
9.38984e-05
-0.00194372
7.07051e-05
-0.00199199
5.28898e-05
-0.00204022
3.8174e-05
-0.00208963
2.45863e-05
-0.00214391
1.07879e-05
-0.00220806
-2.67777e-06
-0.00228522
-1.27397e-05
-0.0023756
-1.27696e-05
-0.00247635
4.80179e-06
-0.00258043
4.80463e-05
-0.00267889
0.000128764
-0.00276773
0.000262212
-0.00284946
0.000468993
-0.00292388
0.000762784
-0.00298253
0.00113737
-0.00298037
0.00154226
-0.00285487
0.00185943
-0.00214663
0.00148742
-0.000526943
-9.62523e-05
-0.00290457
-0.000342148
0.0047384
0.000772978
0.00111572
0.000297522
0.000198059
-0.000386016
-4.93758e-05
-0.00103902
-2.93435e-06
-0.00165083
6.52185e-05
-0.00215618
0.0001345
-0.00248868
0.000200298
-0.00263248
0.000247309
-0.00266437
0.0002583
-0.00263921
0.000239823
-0.00257909
0.000211829
-0.00251193
0.000183683
-0.00245291
0.0001607
-0.00240827
0.000143081
-0.00238149
0.000128326
-0.0023732
0.000114458
-0.0023803
0.000100975
-0.00239766
8.8033e-05
-0.00242052
7.57179e-05
-0.00244622
6.38406e-05
-0.00247378
5.21102e-05
-0.00250319
4.01717e-05
-0.00253439
2.84922e-05
-0.00256653
1.93638e-05
-0.00259442
1.50899e-05
-0.00261048
2.08361e-05
-0.0026072
4.47358e-05
-0.00257163
9.31606e-05
-0.00248442
0.000174979
-0.00231803
0.00030258
-0.00204655
0.000491277
-0.00164796
0.000738755
-0.00106683
0.000961106
1.19357e-05
0.000780637
0.00183103
-0.000331709
0.00334722
-0.00161247
0.000525714
-0.00779507
-0.010716
-0.00593336
-0.00479742
-0.00458914
-0.0046331
-0.00463332
-0.00456727
-0.00443342
-0.00423504
-0.00399076
-0.00373647
-0.00350151
-0.00329525
-0.00311773
-0.00296369
-0.00282771
-0.0027069
-0.00260033
-0.00250755
-0.00242795
-0.00236085
-0.00230572
-0.00226235
-0.00223089
-0.00221102
-0.00220012
-0.0021933
-0.00218047
-0.00214344
-0.00205766
-0.00188972
-0.00159383
-0.00110891
-0.000376225
0.00057904
0.0013537
0.00101524
-0.000605609
)
;

boundaryField
{
    floor
    {
        type            calculated;
        value           nonuniform List<scalar> 
29
(
0
0
0
0
0
0
0
0
0
0
0
0
0
0
0
0
0
0
0
0
-3.74604e-06
-9.82602e-06
-1.50138e-05
-1.9654e-05
-1.97228e-06
-2.88392e-06
-8.62063e-06
-1.01929e-05
-8.55284e-06
)
;
    }
    ceiling
    {
        type            calculated;
        value           nonuniform List<scalar> 
43
(
-4.67132e-05
-4.55017e-05
-4.42838e-05
-2.02687e-05
-1.02627e-05
-5.46115e-06
-2.74776e-06
-8.73153e-07
6.22885e-07
1.88372e-06
2.99106e-06
3.9783e-06
4.83225e-06
5.5404e-06
6.12676e-06
6.62796e-06
7.07414e-06
7.48134e-06
7.84829e-06
8.16168e-06
8.40727e-06
8.57831e-06
8.67667e-06
8.70846e-06
8.67882e-06
8.58962e-06
8.441e-06
8.23526e-06
7.97738e-06
7.67719e-06
7.34892e-06
7.00631e-06
6.66259e-06
6.3325e-06
6.03883e-06
5.8136e-06
5.9453e-06
6.7313e-06
8.34894e-06
9.00133e-06
9.64694e-06
6.72726e-06
-6.23344e-05
)
;
    }
    sWall
    {
        type            calculated;
        value           uniform -0.000275496;
    }
    nWall
    {
        type            calculated;
        value           nonuniform List<scalar> 6(-4.76389e-05 -5.69766e-05 -6.10611e-05 -7.59304e-05 -8.30978e-05 -8.89262e-05);
    }
    sideWalls
    {
        type            empty;
        value           nonuniform 0();
    }
    glass1
    {
        type            calculated;
        value           nonuniform List<scalar> 9(-5.69964e-05 -0.00015387 -0.000235913 -0.0003062 -0.000366203 -0.000416941 -0.00046267 -0.000517487 -0.000578556);
    }
    glass2
    {
        type            calculated;
        value           nonuniform List<scalar> 2(-0.000255019 -0.000281496);
    }
    sun
    {
        type            calculated;
        value           uniform 0;
    }
    heatsource1
    {
        type            calculated;
        value           nonuniform List<scalar> 3(2.04115e-07 2.0403e-07 2.04053e-07);
    }
    heatsource2
    {
        type            calculated;
        value           nonuniform List<scalar> 4(5.11868e-08 5.12642e-08 0 0);
    }
    Table_master
    {
        type            calculated;
        value           nonuniform List<scalar> 9(-1.5311e-07 -1.53229e-07 -1.53269e-07 -1.53295e-07 -1.53312e-07 -1.53323e-07 -1.5333e-07 -1.53324e-07 -1.53293e-07);
    }
    Table_slave
    {
        type            calculated;
        value           nonuniform List<scalar> 9(1.52962e-07 1.52993e-07 1.52975e-07 1.52962e-07 1.5296e-07 1.5296e-07 1.52979e-07 1.53023e-07 1.53104e-07);
    }
    inlet
    {
        type            calculated;
        value           uniform -0.00668298;
    }
    outlet
    {
        type            calculated;
        value           nonuniform List<scalar> 2(0.00811725 0.00296643);
    }
}


// ************************************************************************* //
