/*--------------------------------*- C++ -*----------------------------------*\
  =========                 |
  \\      /  F ield         | OpenFOAM: The Open Source CFD Toolbox
   \\    /   O peration     | Website:  https://openfoam.org
    \\  /    A nd           | Version:  6
     \\/     M anipulation  |
\*---------------------------------------------------------------------------*/
FoamFile
{
    version     2.0;
    format      ascii;
    class       volScalarField;
    location    "100";
    object      epsilon;
}
// * * * * * * * * * * * * * * * * * * * * * * * * * * * * * * * * * * * * * //

dimensions      [0 2 -3 0 0 0 0];

internalField   nonuniform List<scalar> 
459
(
0.000169738
0.000179867
0.000115623
0.000126215
0.000141503
0.000157927
0.000175229
0.000193742
0.000214373
0.0002352
0.000252829
0.000264944
0.000269478
0.000265032
0.000247435
3.76541e-05
5.43293e-05
5.84092e-05
3.44209e-05
9.66142e-06
5.44131e-06
4.40434e-06
4.28378e-06
3.8229e-06
3.47466e-06
3.45273e-06
3.48367e-06
3.49662e-06
4.15626e-06
9.10956e-06
3.16873e-05
7.0965e-05
7.55444e-05
5.36645e-05
0.000967506
0.00224426
0.000200695
0.000100358
0.00010216
0.000110597
0.000120567
0.000132477
0.000147234
0.000164645
0.000183664
0.00020319
0.000220702
0.00023152
0.000237836
0.000305147
0.000108247
7.42883e-05
0.0001305
9.54532e-05
5.38209e-05
2.96322e-05
1.80588e-05
5.71926e-06
3.6599e-06
3.02648e-06
3.30469e-06
4.28223e-06
5.92075e-06
8.03466e-06
1.63377e-05
4.2087e-05
8.57671e-05
0.000116595
0.000154223
9.53038e-05
0.00250621
0.00745072
0.000573278
0.000130324
0.000108883
0.000115804
0.000127141
0.000141145
0.000157846
0.00017709
0.000197455
0.000217889
0.000237231
0.000253993
0.000269238
0.00029512
0.000363997
0.000318002
0.000307186
0.000158014
0.000131987
0.000129377
0.000129391
1.78052e-05
5.74701e-06
3.453e-06
4.85723e-06
8.65268e-06
1.64465e-05
3.09816e-05
5.90842e-05
0.000128789
0.000169353
0.000184204
0.000200558
0.000142464
0.00486282
0.01585
0.00139942
0.000195964
0.000125145
0.000129384
0.000143005
0.000160022
0.000179579
0.000201558
0.000222809
0.000242047
0.000259347
0.000275691
0.000294693
0.000328094
0.000403709
0.000555806
0.000285597
0.000165078
0.000143028
0.000154033
0.000182037
0.000232166
0.000326026
0.00035241
0.000385461
0.000421104
0.000456508
0.00048949
0.000519846
0.000541503
0.000555243
0.000363982
0.000303395
0.000410663
0.000484157
0.00793884
0.0261726
0.00287898
0.000321913
0.000152256
0.00015072
0.000169094
0.00019362
0.000221902
0.000252326
0.000278287
0.00029867
0.000314844
0.000326437
0.000329979
0.000321369
0.000299555
0.000256966
0.000181827
0.000148637
0.000140673
0.000147851
0.000163223
0.000184198
0.000208942
0.000235734
0.000269885
0.000311181
0.00035847
0.000411027
0.000470124
0.000536409
0.000606095
0.000651454
0.000705778
0.000710083
0.000719572
0.0010377
0.000714083
0.000571694
0.0116863
0.0347632
0.00524642
0.000645989
0.000232841
0.000203682
0.000225384
0.000261373
0.000305049
0.000347917
0.000373954
0.000389186
0.000401682
0.00041379
0.000420384
0.000411111
0.000376886
0.000320098
0.000258232
0.000212968
0.000189184
0.000183839
0.000190765
0.000206214
0.00022923
0.000262114
0.000307729
0.000365873
0.00043463
0.000513287
0.000605666
0.000720481
0.000868541
0.00106075
0.00131811
0.00163094
0.00180431
0.00177509
0.00101733
0.00112764
0.0159176
0.0378977
0.00975514
0.00223252
0.000758778
0.00046614
0.000433287
0.000463034
0.000522462
0.000548697
0.000538363
0.000516411
0.000500447
0.000496194
0.000498025
0.000491353
0.000462248
0.000409544
0.000347336
0.000293279
0.000257219
0.000239894
0.00023773
0.000248013
0.000271239
0.000311655
0.000373409
0.000456119
0.000554129
0.000661206
0.00077846
0.000917326
0.00109446
0.00132274
0.0015982
0.00186838
0.00200635
0.00195265
0.00157696
0.000995186
0.0166914
0.0454059
0.021673
0.0113231
0.0050273
0.00231503
0.00148047
0.00121611
0.0011137
0.000969527
0.000826246
0.00070777
0.000621934
0.000569661
0.000545637
0.000533517
0.000512288
0.000473137
0.000421802
0.000371251
0.000331803
0.00030735
0.000297446
0.00030138
0.000321647
0.000365797
0.000443543
0.00056013
0.000709025
0.000872477
0.00103223
0.00117665
0.00129807
0.00139819
0.00149086
0.00160094
0.00175654
0.00194822
0.00213287
0.00162207
0.0149403
0.0244181
0.0290376
0.0209646
0.0130933
0.00790325
0.00491506
0.00325644
0.0022459
0.00161513
0.00121145
0.000944182
0.000764003
0.000644703
0.000571545
0.000531896
0.000508443
0.000485973
0.000457634
0.000426181
0.000397962
0.000377545
0.00036669
0.000366152
0.00037839
0.000410255
0.000473933
0.000586374
0.000757322
0.000981539
0.00125312
0.00155968
0.00189719
0.00225821
0.00261706
0.00286202
0.00288697
0.00311534
0.00425407
0.00228427
0.0442964
0.0606836
0.0219342
0.0111608
0.00649985
0.00411533
0.00277888
0.00196905
0.00145038
0.00110579
0.000870817
0.000709186
0.000600511
0.000532724
0.000495766
0.000478661
0.000470948
0.000466192
0.000462589
0.000460761
0.000461851
0.000467194
0.000479209
0.000502745
0.000545755
0.000618273
0.000727625
0.000874345
0.00105673
0.00126942
0.00149722
0.00171962
0.00191305
0.00204672
0.00204806
0.00183258
0.00246868
0.00225514
0.0410194
0.0428388
0.0168249
0.00930594
0.00579799
0.00385134
0.00268587
0.00194735
0.00145773
0.00112241
0.000887967
0.000723027
0.000608724
0.000533664
0.000490803
0.000474839
0.000479956
0.000499129
0.000525356
0.000553417
0.000580806
0.000607692
0.000636454
0.000671372
0.000718535
0.00078498
0.000874357
0.000981349
0.00110335
0.00123868
0.00137725
0.00150102
0.00158775
0.00161343
0.00154626
0.00143112
0.00176862
0.00168295
0.00777808
0.0128092
0.0222485
0.019506
0.0106639
0.00695284
0.00487163
0.00355268
0.00266585
0.00204671
0.00160805
0.00128969
0.00105149
0.000870353
0.000732023
0.000627262
0.000549917
0.000495734
0.000461351
0.000443407
0.000438145
0.000441662
0.000450554
0.00046256
0.000477019
0.000495183
0.000520462
0.00055834
0.000614934
0.000701144
0.00082656
0.000984763
0.00115648
0.00131131
0.00141602
0.00144147
0.00137353
0.00127107
0.00117541
0.00093004
)
;

boundaryField
{
    floor
    {
        Cmu             0.09;
        kappa           0.41;
        E               9.8;
        type            epsilonWallFunction;
        value           nonuniform List<scalar> 
29
(
0.000247435
3.76541e-05
5.43293e-05
5.84092e-05
3.44209e-05
9.66142e-06
5.44131e-06
4.40434e-06
4.28378e-06
3.8229e-06
3.47466e-06
3.45273e-06
3.48367e-06
3.49662e-06
4.15626e-06
9.10956e-06
3.16873e-05
7.0965e-05
7.55444e-05
5.36645e-05
5.36645e-05
9.53038e-05
0.000142464
0.000484157
0.000247435
3.76541e-05
7.42883e-05
0.000318002
0.000555806
)
;
    }
    ceiling
    {
        Cmu             0.09;
        kappa           0.41;
        E               9.8;
        type            epsilonWallFunction;
        value           nonuniform List<scalar> 
43
(
0.00777808
0.0128092
0.0222485
0.019506
0.0106639
0.00695284
0.00487163
0.00355268
0.00266585
0.00204671
0.00160805
0.00128969
0.00105149
0.000870353
0.000732023
0.000627262
0.000549917
0.000495734
0.000461351
0.000443407
0.000438145
0.000441662
0.000450554
0.00046256
0.000477019
0.000495183
0.000520462
0.00055834
0.000614934
0.000701144
0.00082656
0.000984763
0.00115648
0.00131131
0.00141602
0.00144147
0.00137353
0.00127107
0.00117541
0.00093004
0.0149403
0.0244181
0.0410194
)
;
    }
    sWall
    {
        Cmu             0.09;
        kappa           0.41;
        E               9.8;
        type            epsilonWallFunction;
        value           uniform 0.00777808;
    }
    nWall
    {
        Cmu             0.09;
        kappa           0.41;
        E               9.8;
        type            epsilonWallFunction;
        value           nonuniform List<scalar> 6(0.000571694 0.00112764 0.000995186 0.00225514 0.00168295 0.00093004);
    }
    sideWalls
    {
        type            empty;
    }
    glass1
    {
        Cmu             0.09;
        kappa           0.41;
        E               9.8;
        type            epsilonWallFunction;
        value           nonuniform List<scalar> 9(0.000169738 0.000967506 0.00250621 0.00486282 0.00793884 0.0116863 0.0159176 0.0166914 0.0149403);
    }
    glass2
    {
        Cmu             0.09;
        kappa           0.41;
        E               9.8;
        type            epsilonWallFunction;
        value           nonuniform List<scalar> 2(0.00162207 0.00228427);
    }
    sun
    {
        Cmu             0.09;
        kappa           0.41;
        E               9.8;
        type            epsilonWallFunction;
        value           nonuniform List<scalar> 
14
(
0.000169738
0.000179867
0.000115623
0.000126215
0.000141503
0.000157927
0.000175229
0.000193742
0.000214373
0.0002352
0.000252829
0.000264944
0.000269478
0.000265032
)
;
    }
    heatsource1
    {
        Cmu             0.09;
        kappa           0.41;
        E               9.8;
        type            epsilonWallFunction;
        value           nonuniform List<scalar> 3(0.0010377 0.000714083 0.000571694);
    }
    heatsource2
    {
        Cmu             0.09;
        kappa           0.41;
        E               9.8;
        type            epsilonWallFunction;
        value           nonuniform List<scalar> 4(0.000305147 0.000108247 0.000108247 0.000363997);
    }
    Table_master
    {
        Cmu             0.09;
        kappa           0.41;
        E               9.8;
        type            epsilonWallFunction;
        value           nonuniform List<scalar> 9(1.78052e-05 5.74701e-06 3.453e-06 4.85723e-06 8.65268e-06 1.64465e-05 3.09816e-05 5.90842e-05 0.000128789);
    }
    Table_slave
    {
        Cmu             0.09;
        kappa           0.41;
        E               9.8;
        type            epsilonWallFunction;
        value           nonuniform List<scalar> 9(0.000326026 0.00035241 0.000385461 0.000421104 0.000456508 0.00048949 0.000519846 0.000541503 0.000555243);
    }
    inlet
    {
        type            turbulentMixingLengthDissipationRateInlet;
        mixingLength    0.01;
        phi             phi;
        k               k;
        value           uniform 0.0442964;
    }
    outlet
    {
        type            zeroGradient;
    }
}


// ************************************************************************* //
