/*--------------------------------*- C++ -*----------------------------------*\
  =========                 |
  \\      /  F ield         | OpenFOAM: The Open Source CFD Toolbox
   \\    /   O peration     | Website:  https://openfoam.org
    \\  /    A nd           | Version:  6
     \\/     M anipulation  |
\*---------------------------------------------------------------------------*/
FoamFile
{
    version     2.0;
    format      ascii;
    class       volScalarField;
    location    "100";
    object      nut;
}
// * * * * * * * * * * * * * * * * * * * * * * * * * * * * * * * * * * * * * //

dimensions      [0 2 -1 0 0 0 0];

internalField   nonuniform List<scalar> 
459
(
0.000782772
0.000798049
0.000688748
0.000709171
0.00073672
0.000764189
0.000791138
0.000818075
0.000846142
0.000872705
0.000893991
0.000908053
0.000913211
0.000908169
0.000887617
0.000473753
0.000535315
0.000548402
0.000459718
0.000300962
0.000248534
0.00023163
0.000229491
0.000220943
0.000214041
0.000213627
0.000214302
0.000214597
0.00022725
0.000295082
0.000447045
0.000584907
0.000597245
0.000533005
0.00139828
0.00259579
0.0017236
0.00249134
0.00273952
0.00295054
0.00316789
0.00337074
0.00352919
0.00364037
0.00368665
0.00362802
0.00340108
0.00290546
0.00204053
0.00095188
0.000673842
0.000594263
0.00126645
0.00140226
0.00129074
0.000936181
0.000607891
0.000478103
0.000370699
0.000350566
0.000363721
0.000376262
0.000385156
0.000432719
0.000608324
0.000957582
0.00142943
0.00167593
0.0017625
0.000645561
0.00192036
0.00439789
0.00186229
0.0033516
0.00409579
0.00436044
0.00456698
0.00474133
0.00487036
0.0049528
0.00496252
0.00485026
0.00454291
0.00395068
0.00303358
0.0019525
0.00100952
0.000965005
0.0024187
0.00210585
0.00176116
0.00144434
0.00112898
0.000369445
0.000253353
0.000213661
0.000239552
0.000290517
0.00035989
0.000444419
0.000551014
0.000714196
0.00170479
0.00180621
0.00144727
0.00073838
0.00239519
0.00650178
0.00229682
0.00333794
0.00473238
0.0050901
0.0052886
0.00545993
0.00560687
0.0057261
0.00581907
0.00583791
0.00569416
0.00525991
0.00440779
0.00315958
0.00188463
0.00116249
0.00244557
0.00255568
0.00228535
0.00196067
0.00165087
0.00129434
0.000973042
0.000998557
0.00102877
0.00105946
0.00108827
0.00111378
0.00113627
0.00115185
0.00116159
0.00210013
0.00267313
0.00299948
0.00111031
0.0028203
0.00862328
0.0031794
0.00302487
0.00478228
0.00528625
0.00549334
0.00567
0.0058473
0.00602812
0.0062798
0.00658143
0.00687404
0.00707644
0.007098
0.00687263
0.00641563
0.00583096
0.00539786
0.0050126
0.00481155
0.00469149
0.00458573
0.0045114
0.00447748
0.00453553
0.00461198
0.00467925
0.00471644
0.00471958
0.00470686
0.0047025
0.00471518
0.00476646
0.00468565
0.00434796
0.00346494
0.0014322
0.00126444
0.00117355
0.00320825
0.010402
0.00471093
0.00296868
0.00420414
0.00489873
0.00519456
0.00538328
0.00553383
0.00570618
0.00604027
0.00651341
0.00707665
0.00765425
0.00814523
0.00844019
0.00845389
0.0081922
0.0077636
0.00729428
0.00689286
0.00660153
0.00640064
0.00625673
0.00614579
0.00606841
0.00601417
0.00595462
0.00585929
0.00572227
0.00557263
0.00545429
0.0053921
0.00537835
0.00539545
0.00536772
0.00501871
0.00434006
0.00282231
0.00147192
0.00355633
0.0116055
0.00722687
0.00404995
0.00340864
0.00394044
0.00451734
0.00486188
0.00496288
0.00508334
0.00536632
0.00581589
0.00642927
0.00716045
0.0079031
0.00851122
0.00884107
0.00886859
0.00866058
0.00833393
0.00799692
0.00771083
0.00748565
0.00730406
0.00714768
0.00701883
0.00691826
0.00681428
0.00665212
0.00639807
0.00607276
0.00573709
0.00544775
0.00522471
0.00503388
0.00478083
0.00435043
0.00378794
0.00309583
0.00141128
0.00361305
0.011347
0.00901782
0.00695556
0.00503393
0.00418062
0.00431208
0.00467526
0.00469412
0.00469552
0.00479108
0.0050115
0.00539741
0.00598368
0.00674184
0.00754439
0.00812817
0.00844866
0.00852216
0.00842436
0.00824745
0.00806363
0.00791308
0.00781061
0.00775594
0.00774531
0.00776974
0.00779676
0.00775853
0.0075832
0.00724482
0.00675953
0.00614753
0.00546651
0.00478239
0.0041567
0.00362947
0.00315194
0.00269224
0.00166114
0.00348199
0.00410152
0.00596248
0.00628007
0.00575644
0.00510592
0.00466348
0.00444121
0.00432571
0.00429587
0.00432555
0.00440546
0.00455665
0.00482913
0.00527636
0.00588966
0.00654087
0.00708899
0.00745208
0.00762931
0.00767007
0.00763698
0.00758712
0.00757069
0.0076342
0.00781448
0.0081116
0.00846339
0.00877441
0.00898073
0.00904428
0.00895066
0.00876485
0.00854624
0.00828663
0.00776041
0.00667081
0.00558898
0.00507799
0.00186197
0.00973096
0.0111515
0.00757088
0.00622206
0.00546428
0.0049863
0.00466857
0.00444482
0.00428319
0.00417008
0.00410604
0.00410901
0.00421493
0.0044639
0.00485942
0.00534117
0.0058086
0.00618054
0.00642775
0.00656517
0.00663195
0.00667847
0.00676299
0.00694942
0.00729009
0.00778826
0.0083668
0.00887414
0.0092156
0.00937347
0.0093806
0.0092959
0.00916279
0.00895941
0.00855721
0.00754439
0.00657677
0.00185395
0.00487607
0.0106204
0.00773352
0.00646632
0.00567366
0.00509809
0.00465808
0.00430681
0.00400255
0.0037336
0.00351182
0.0033491
0.00326039
0.00326502
0.00338146
0.00361216
0.00392689
0.0042671
0.00457386
0.00481352
0.00498405
0.00510767
0.00522157
0.00537213
0.00560998
0.00597713
0.00647532
0.00702203
0.00750554
0.00786626
0.00807657
0.00814365
0.00808692
0.00790068
0.00746914
0.00650432
0.00537576
0.00168151
0.00280114
0.00330795
0.00397647
0.00380578
0.00311193
0.00269842
0.00239669
0.00215726
0.00196032
0.001795
0.00165631
0.00153887
0.00143761
0.0013498
0.00127411
0.00121017
0.00115822
0.00111884
0.00109234
0.00107797
0.00107368
0.00107654
0.00108371
0.00109326
0.00110455
0.0011184
0.00113713
0.00116408
0.00120215
0.00125588
0.00132668
0.00140643
0.00148383
0.00154727
0.00158737
0.00159677
0.00157126
0.00153117
0.00149178
0.00137977
)
;

boundaryField
{
    floor
    {
        type            nutkWallFunction;
        Cmu             0.09;
        kappa           0.41;
        E               9.8;
        value           nonuniform List<scalar> 
29
(
0.000107395
5.63903e-05
6.42472e-05
6.59013e-05
5.45893e-05
3.35773e-05
2.63431e-05
2.39679e-05
2.36675e-05
2.24565e-05
2.14709e-05
2.14077e-05
2.14997e-05
2.15382e-05
2.33432e-05
3.27805e-05
5.29674e-05
7.05178e-05
7.20604e-05
6.39659e-05
6.39658e-05
7.80501e-05
8.94235e-05
0.000133574
0.000107395
5.63903e-05
7.16543e-05
0.000116575
0.000139629
)
;
    }
    ceiling
    {
        type            nutkWallFunction;
        Cmu             0.09;
        kappa           0.41;
        E               9.8;
        value           nonuniform List<scalar> 
43
(
0.000319125
0.000371963
0.00044043
0.00042302
0.000351573
0.00030824
0.00027619
0.00025046
0.000229069
0.000210935
0.000195584
0.000182475
0.000171084
0.000161135
0.000152502
0.000145163
0.000139169
0.000134607
0.000131525
0.000129852
0.000129352
0.000129686
0.000130522
0.000131634
0.000132945
0.000134554
0.000136725
0.000139843
0.000144235
0.000150408
0.000158497
0.00016755
0.000176283
0.000183404
0.000187889
0.000188942
0.000186093
0.000181604
0.000177179
0.000164533
0.000389913
0.000453072
0.000530798
)
;
    }
    sWall
    {
        type            nutkWallFunction;
        Cmu             0.09;
        kappa           0.41;
        E               9.8;
        value           uniform 0.000319195;
    }
    nWall
    {
        type            nutkWallFunction;
        Cmu             0.09;
        kappa           0.41;
        E               9.8;
        value           nonuniform List<scalar> 6(0.000140908 0.000174892 0.000168102 0.000217398 0.000198376 0.000164549);
    }
    sideWalls
    {
        type            empty;
    }
    glass1
    {
        type            nutkWallFunction;
        Cmu             0.09;
        kappa           0.41;
        E               9.8;
        value           nonuniform List<scalar> 9(9.48097e-05 0.000166842 0.000225031 0.000276448 0.000321562 0.000362114 0.00039807 0.000403909 0.000390463);
    }
    glass2
    {
        type            nutkWallFunction;
        Cmu             0.09;
        kappa           0.41;
        E               9.8;
        value           nonuniform List<scalar> 2(0.000196211 0.000218406);
    }
    sun
    {
        type            nutkWallFunction;
        Cmu             0.09;
        kappa           0.41;
        E               9.8;
        value           nonuniform List<scalar> 
14
(
9.48121e-05
9.66573e-05
8.33524e-05
8.58562e-05
8.92203e-05
9.25597e-05
9.5822e-05
9.90699e-05
0.000102441
0.000105619
0.000108157
0.00010983
0.000110442
0.000109842
)
;
    }
    heatsource1
    {
        type            nutkWallFunction;
        Cmu             0.09;
        kappa           0.41;
        E               9.8;
        value           nonuniform List<scalar> 3(0.000170346 0.000151285 0.000140892);
    }
    heatsource2
    {
        type            nutkWallFunction;
        Cmu             0.09;
        kappa           0.41;
        E               9.8;
        value           nonuniform List<scalar> 4(0.000115017 8.15172e-05 8.15172e-05 0.000121807);
    }
    Table_master
    {
        type            nutkWallFunction;
        Cmu             0.09;
        kappa           0.41;
        E               9.8;
        value           nonuniform List<scalar> 9(4.27665e-05 2.70352e-05 2.14613e-05 2.51054e-05 3.21462e-05 4.14889e-05 5.25748e-05 6.61925e-05 8.64522e-05);
    }
    Table_slave
    {
        type            nutkWallFunction;
        Cmu             0.09;
        kappa           0.41;
        E               9.8;
        value           nonuniform List<scalar> 9(0.000117523 0.000120532 0.000124085 0.000127683 0.00013105 0.000134025 0.00013664 0.000138443 0.000139562);
    }
    inlet
    {
        type            calculated;
        value           uniform 0.00973096;
    }
    outlet
    {
        type            calculated;
        value           nonuniform List<scalar> 2(0.00280114 0.00330795);
    }
}


// ************************************************************************* //
