// -*- C++ -*-
// File generated by PyFoam - sorry for the ugliness

FoamFile
{
 version 2.0;
 format ascii;
 class volVectorField;
 location "200";
 object U;
}

dimensions [ 0 1 -1 0 0 0 0 ];

internalField nonuniform List<vector> 459
(
  (0.111395 0.066392 0)
  (-0.137792 -0.0021441 0)
  (-0.107262 0.00103641 0)
  (-0.113651 0.00340731 0)
  (-0.121571 0.0036402 0)
  (-0.129332 0.00278603 0)
  (-0.135626 0.00125657 0)
  (-0.139557 -0.000810581 0)
  (-0.140373 -0.00338997 0)
  (-0.137297 -0.00656737 0)
  (-0.129214 -0.0104961 0)
  (-0.114451 -0.0154225 0)
  (-0.0922487 -0.022286 0)
  (-0.0691643 -0.0327646 0)
  (-0.0700213 -0.0455603 0)
  (0.0225158 0.0167287 0)
  (-0.0474139 -0.0094854 0)
  (-0.0338953 -0.00953607 0)
  (-0.0311081 -0.00510336 0)
  (-0.0296394 -0.0039326 0)
  (-0.0274248 -0.00636257 0)
  (-0.0203219 -0.0115437 0)
  (-0.0120496 -0.0173943 0)
  (0.00440919 -0.0114845 0)
  (0.0128363 -0.00834932 0)
  (0.0190038 -0.00636074 0)
  (0.0237675 -0.0049559 0)
  (0.0275221 -0.00375665 0)
  (0.0305244 -0.00226662 0)
  (0.0327454 -0.00114061 0)
  (0.0352712 -0.00240465 0)
  (0.0392275 -0.0057482 0)
  (0.0500865 -0.00197086 0)
  (-0.0153944 0.0206873 0)
  (0.319403 0.146374 0)
  (-0.164901 0.00997319 0)
  (-0.0990266 0.00803958 0)
  (-0.111591 0.0117475 0)
  (-0.120742 0.0125742 0)
  (-0.128959 0.0112831 0)
  (-0.135517 0.00852247 0)
  (-0.139825 0.00455177 0)
  (-0.141264 -0.00057392 0)
  (-0.139226 -0.00689327 0)
  (-0.133083 -0.0143507 0)
  (-0.121947 -0.0229907 0)
  (-0.105508 -0.0335989 0)
  (-0.0856772 -0.0475879 0)
  (-0.0667721 -0.0630216 0)
  (-0.0499416 -0.0691437 0)
  (0.0355945 0.00981376 0)
  (0.140028 0.0248261 0)
  (0.0524703 0.0146772 0)
  (0.0189265 0.00630895 0)
  (0.00590842 0.0038564 0)
  (0.00115066 0.00536336 0)
  (-0.00894814 0.00497126 0)
  (-0.0101687 -0.00972683 0)
  (-0.0130853 -0.020295 0)
  (-0.0090037 -0.0126819 0)
  (-0.0063055 -0.00819416 0)
  (-0.00627039 -0.00585318 0)
  (-0.00710312 -0.00403759 0)
  (-0.00846313 -0.00187407 0)
  (-0.0108798 5.22036e-06 0)
  (-0.0123264 -0.00259632 0)
  (-0.0106457 -0.0116387 0)
  (-0.00601287 -0.019133 0)
  (0.0279647 -0.00481797 0)
  (-0.106038 0.0489099 0)
  (0.488229 0.223513 0)
  (-0.21097 0.035283 0)
  (-0.0829672 0.0214826 0)
  (-0.104122 0.0214363 0)
  (-0.114603 0.0209348 0)
  (-0.123283 0.0180713 0)
  (-0.130283 0.0132161 0)
  (-0.135312 0.00661643 0)
  (-0.13798 -0.00159967 0)
  (-0.137742 -0.0112958 0)
  (-0.13464 -0.0224365 0)
  (-0.12864 -0.0348602 0)
  (-0.120188 -0.0485807 0)
  (-0.110431 -0.0630719 0)
  (-0.100934 -0.0750916 0)
  (-0.0948839 -0.0785142 0)
  (-0.101396 -0.0717606 0)
  (0.0872227 0.00762017 0)
  (-0.0405159 0.0121956 0)
  (-0.0327063 0.0133057 0)
  (-0.0271962 0.00882751 0)
  (-0.0199316 0.0046264 0)
  (-0.0192323 -0.00083765 0)
  (0.0216339 -0.00210306 0)
  (-0.0157136 -0.0178551 0)
  (-0.0316534 -0.0105842 0)
  (-0.040459 -0.00727363 0)
  (-0.0463944 -0.00553501 0)
  (-0.0504318 -0.00444304 0)
  (-0.0530291 -0.0037635 0)
  (-0.0542379 -0.00375526 0)
  (-0.0529385 -0.00546628 0)
  (-0.0430083 -0.00781721 0)
  (-0.052962 -0.000748237 0)
  (-0.0820571 0.0120122 0)
  (-0.169918 0.0262445 0)
  (0.621891 0.286997 0)
  (-0.254617 0.0661418 0)
  (-0.0633253 0.0379599 0)
  (-0.0932868 0.0329173 0)
  (-0.104909 0.0305151 0)
  (-0.113086 0.0260649 0)
  (-0.119603 0.0195645 0)
  (-0.124427 0.0110847 0)
  (-0.127437 0.000708875 0)
  (-0.128319 -0.0112835 0)
  (-0.127604 -0.0243681 0)
  (-0.126199 -0.0380519 0)
  (-0.12523 -0.0518112 0)
  (-0.12607 -0.0643258 0)
  (-0.130592 -0.0723088 0)
  (-0.142204 -0.0696239 0)
  (-0.160064 -0.0448207 0)
  (-0.153493 0.0160226 0)
  (-0.1113 0.00909221 0)
  (-0.105249 0.010635 0)
  (-0.0906886 0.00620948 0)
  (-0.0845614 0.000740008 0)
  (-0.081605 -0.00541544 0)
  (-0.0806598 -0.0108744 0)
  (-0.0766832 -0.00988469 0)
  (-0.0659188 -0.0102659 0)
  (-0.0548079 -0.0110534 0)
  (-0.0432891 -0.0114748 0)
  (-0.031893 -0.0114447 0)
  (-0.021213 -0.0109589 0)
  (-0.0116001 -0.0101067 0)
  (-0.00230507 -0.0089192 0)
  (0.00912609 -0.00674565 0)
  (0.00720418 -0.010171 0)
  (0.0171817 -0.00429381 0)
  (0.0339053 -0.00362934 0)
  (-0.088842 -0.00894309 0)
  (0.725702 0.339083 0)
  (-0.290407 0.0998929 0)
  (-0.0443934 0.0548942 0)
  (-0.079711 0.0445626 0)
  (-0.092423 0.0392976 0)
  (-0.098916 0.0327687 0)
  (-0.103371 0.024555 0)
  (-0.106151 0.0145074 0)
  (-0.107385 0.00259084 0)
  (-0.106952 -0.0107186 0)
  (-0.106033 -0.0242493 0)
  (-0.105904 -0.0372062 0)
  (-0.107685 -0.0491909 0)
  (-0.112202 -0.0594568 0)
  (-0.119975 -0.0665097 0)
  (-0.130456 -0.0678359 0)
  (-0.139005 -0.0586943 0)
  (-0.139391 -0.0347947 0)
  (-0.130201 -0.0156388 0)
  (-0.117791 -0.00535467 0)
  (-0.105636 -0.00365821 0)
  (-0.0967461 -0.00523564 0)
  (-0.0900937 -0.00865132 0)
  (-0.0849964 -0.0120933 0)
  (-0.0794327 -0.0133732 0)
  (-0.0724853 -0.0149684 0)
  (-0.0650927 -0.0160717 0)
  (-0.0575884 -0.0164794 0)
  (-0.0503169 -0.0160736 0)
  (-0.0435907 -0.0149862 0)
  (-0.0374324 -0.0136788 0)
  (-0.031254 -0.0128819 0)
  (-0.0240867 -0.0134614 0)
  (-0.0158352 -0.0173956 0)
  (-0.00103071 -0.0198368 0)
  (0.0300205 -0.0204233 0)
  (0.056915 -0.0199802 0)
  (0.104253 -0.0264667 0)
  (0.137929 0.00246107 0)
  (-0.0428762 0.0637836 0)
  (0.790618 0.385914 0)
  (-0.319301 0.131139 0)
  (-0.0314398 0.0656133 0)
  (-0.0609838 0.0562349 0)
  (-0.0757248 0.0472036 0)
  (-0.0804846 0.0371729 0)
  (-0.0816258 0.0267178 0)
  (-0.0807495 0.0151624 0)
  (-0.0782634 0.00196551 0)
  (-0.0743055 -0.0121318 0)
  (-0.0716136 -0.0249285 0)
  (-0.0710951 -0.0358516 0)
  (-0.0735559 -0.0450245 0)
  (-0.0792146 -0.0522042 0)
  (-0.0877431 -0.0562932 0)
  (-0.0977011 -0.0553235 0)
  (-0.105541 -0.0474858 0)
  (-0.107987 -0.0347401 0)
  (-0.104858 -0.0230261 0)
  (-0.0983483 -0.0153925 0)
  (-0.0911681 -0.0123919 0)
  (-0.0850515 -0.0123876 0)
  (-0.0803312 -0.0143024 0)
  (-0.0768143 -0.0167279 0)
  (-0.0737217 -0.0185858 0)
  (-0.0706334 -0.0202201 0)
  (-0.0677316 -0.0212549 0)
  (-0.065266 -0.0213379 0)
  (-0.0635644 -0.0203309 0)
  (-0.0629084 -0.0185128 0)
  (-0.0633196 -0.0166687 0)
  (-0.0644448 -0.015957 0)
  (-0.0656358 -0.0178451 0)
  (-0.0658097 -0.0237876 0)
  (-0.0616162 -0.0335889 0)
  (-0.0491142 -0.0485229 0)
  (-0.0308948 -0.0695956 0)
  (-0.00572246 -0.0824752 0)
  (0.107569 -0.00364096 0)
  (-0.0815428 0.126405 0)
  (0.807272 0.429775 0)
  (-0.331216 0.132968 0)
  (-0.0136386 0.0438967 0)
  (-0.0172633 0.0671857 0)
  (-0.0413198 0.0575918 0)
  (-0.049727 0.037641 0)
  (-0.0480184 0.023101 0)
  (-0.0430091 0.010013 0)
  (-0.0347703 -0.00419449 0)
  (-0.0283994 -0.0174782 0)
  (-0.0247459 -0.0276429 0)
  (-0.0243431 -0.0350698 0)
  (-0.0275008 -0.040729 0)
  (-0.0340275 -0.0450396 0)
  (-0.0431361 -0.0474365 0)
  (-0.0532453 -0.0464931 0)
  (-0.0617448 -0.0412119 0)
  (-0.0665395 -0.0332183 0)
  (-0.0674367 -0.0254316 0)
  (-0.0657119 -0.0197714 0)
  (-0.0629869 -0.0168182 0)
  (-0.0604765 -0.0160568 0)
  (-0.0587638 -0.0168436 0)
  (-0.057993 -0.0183136 0)
  (-0.0579687 -0.0197709 0)
  (-0.0585999 -0.0208933 0)
  (-0.0600718 -0.0211646 0)
  (-0.0627542 -0.0201231 0)
  (-0.0672557 -0.0176533 0)
  (-0.0742787 -0.0143226 0)
  (-0.0842492 -0.0113721 0)
  (-0.0969885 -0.0100967 0)
  (-0.11159 -0.0118532 0)
  (-0.127011 -0.0183378 0)
  (-0.142067 -0.031844 0)
  (-0.154768 -0.0543012 0)
  (-0.160294 -0.081921 0)
  (-0.150495 -0.0918413 0)
  (-0.122793 -0.0264531 0)
  (-0.16529 0.233207 0)
  (0.90853 0.453646 0)
  (-0.130004 0.111963 0)
  (0.06775 -0.0122344 0)
  (0.101357 0.0455453 0)
  (0.0569436 0.0524705 0)
  (0.0283479 0.0253698 0)
  (0.0238904 0.00565545 0)
  (0.0257841 -0.00723852 0)
  (0.0326567 -0.0173873 0)
  (0.0355473 -0.0252477 0)
  (0.0354252 -0.0305808 0)
  (0.032775 -0.0338122 0)
  (0.0275948 -0.0357237 0)
  (0.0199268 -0.0369117 0)
  (0.0101492 -0.0374389 0)
  (-0.000909621 -0.0366126 0)
  (-0.0108502 -0.0335307 0)
  (-0.018033 -0.0288011 0)
  (-0.0223529 -0.0239083 0)
  (-0.0244891 -0.0199964 0)
  (-0.0254671 -0.0175728 0)
  (-0.0261783 -0.0165581 0)
  (-0.0272054 -0.0166326 0)
  (-0.0288433 -0.0172812 0)
  (-0.0311479 -0.0179733 0)
  (-0.0341499 -0.0181885 0)
  (-0.0379758 -0.0172017 0)
  (-0.042886 -0.0142422 0)
  (-0.0494773 -0.00878949 0)
  (-0.0584951 -0.000985831 0)
  (-0.0709981 0.00787523 0)
  (-0.0900773 0.0148058 0)
  (-0.117234 0.0158635 0)
  (-0.152479 0.00732923 0)
  (-0.194125 -0.0120804 0)
  (-0.237754 -0.0398546 0)
  (-0.274169 -0.0691851 0)
  (-0.306736 -0.0925912 0)
  (-0.375263 -0.0956899 0)
  (-0.642131 -0.0538162 0)
  (1.04859 0.417719 0)
  (0.50396 0.256036 0)
  (0.419944 0.190578 0)
  (0.38508 0.183451 0)
  (0.273464 0.143758 0)
  (0.205749 0.0921038 0)
  (0.175741 0.0514739 0)
  (0.157663 0.0230332 0)
  (0.139299 0.00207286 0)
  (0.122394 -0.0124236 0)
  (0.108859 -0.0211208 0)
  (0.097474 -0.0255797 0)
  (0.0870559 -0.0273246 0)
  (0.0767993 -0.0274871 0)
  (0.0662235 -0.0267845 0)
  (0.0552808 -0.0255981 0)
  (0.0447101 -0.0238686 0)
  (0.03555 -0.0215413 0)
  (0.0283513 -0.0190124 0)
  (0.0229789 -0.0168123 0)
  (0.0188722 -0.0152881 0)
  (0.0154063 -0.0145108 0)
  (0.0120835 -0.0143663 0)
  (0.00858539 -0.0145906 0)
  (0.00479121 -0.0148338 0)
  (0.000700335 -0.0146452 0)
  (-0.00352117 -0.0133252 0)
  (-0.00748679 -0.010096 0)
  (-0.0108786 -0.00428724 0)
  (-0.0130532 0.00449035 0)
  (-0.0151352 0.0158173 0)
  (-0.0173849 0.0280015 0)
  (-0.0205044 0.0376352 0)
  (-0.0247729 0.0409482 0)
  (-0.0296503 0.0349915 0)
  (-0.0366277 0.0181061 0)
  (-0.0528906 -0.0107325 0)
  (-0.0422362 -0.0564158 0)
  (-0.0537701 -0.154159 0)
  (-0.539312 -0.280606 0)
  (-1.21257 0.154046 0)
  (0.218163 0.198386 0)
  (0.142213 0.143468 0)
  (0.147001 0.0943674 0)
  (0.164947 0.0568994 0)
  (0.172242 0.0305866 0)
  (0.170079 0.0127905 0)
  (0.163356 0.000704192 0)
  (0.154748 -0.0074686 0)
  (0.145335 -0.0124748 0)
  (0.135579 -0.0150297 0)
  (0.125803 -0.0158245 0)
  (0.116148 -0.0154765 0)
  (0.106612 -0.0145229 0)
  (0.0972644 -0.0133396 0)
  (0.0883892 -0.0121494 0)
  (0.0803429 -0.0111271 0)
  (0.0732973 -0.0103994 0)
  (0.0671594 -0.0100092 0)
  (0.0616787 -0.00991749 0)
  (0.0565815 -0.0100358 0)
  (0.0516574 -0.0102307 0)
  (0.0468151 -0.0103235 0)
  (0.0421056 -0.0100717 0)
  (0.037775 -0.00909766 0)
  (0.0343183 -0.00688321 0)
  (0.0324669 -0.00288833 0)
  (0.032905 0.00353701 0)
  (0.0361982 0.0124225 0)
  (0.0425556 0.0221674 0)
  (0.0511198 0.0295261 0)
  (0.0603317 0.0307723 0)
  (0.0684919 0.0239678 0)
  (0.0742637 0.0109432 0)
  (0.0775685 -0.00364324 0)
  (0.0843816 -0.020775 0)
  (0.138901 -0.0819837 0)
  (-0.160356 -0.217166 0)
  (-0.579388 0.160835 0)
  (0.214081 0.102494 0)
  (0.0840971 0.0715256 0)
  (0.111893 0.0537433 0)
  (0.150721 0.0337555 0)
  (0.172212 0.0169912 0)
  (0.179863 0.00486634 0)
  (0.180528 -0.00348812 0)
  (0.177428 -0.00881877 0)
  (0.172099 -0.0118232 0)
  (0.165444 -0.0130822 0)
  (0.158214 -0.01307 0)
  (0.150968 -0.0121705 0)
  (0.144015 -0.0106963 0)
  (0.137452 -0.00889916 0)
  (0.131251 -0.00697605 0)
  (0.125346 -0.00507225 0)
  (0.119673 -0.00327956 0)
  (0.11418 -0.00164313 0)
  (0.108828 -0.00016999 0)
  (0.103592 0.00116205 0)
  (0.0984673 0.00240559 0)
  (0.0934813 0.00364692 0)
  (0.0887328 0.00501771 0)
  (0.0844508 0.00674741 0)
  (0.08107 0.00923584 0)
  (0.0793116 0.0129962 0)
  (0.0799126 0.0178757 0)
  (0.0841222 0.0232851 0)
  (0.0925137 0.028949 0)
  (0.104332 0.0332136 0)
  (0.11752 0.0338826 0)
  (0.129172 0.0298605 0)
  (0.136396 0.0216168 0)
  (0.136352 0.00746834 0)
  (0.127795 -0.0155952 0)
  (0.155651 -0.0639336 0)
  (-0.189733 -0.154582 0)
  (0.154487 -0.146439 0)
  (-0.150004 -0.0199888 0)
  (-0.273649 0.180776 0)
  (0.192559 0.0529079 0)
  (0.100989 0.040938 0)
  (0.117311 0.0388661 0)
  (0.155091 0.0324108 0)
  (0.179735 0.0262711 0)
  (0.19047 0.0218347 0)
  (0.193252 0.0188391 0)
  (0.191922 0.0165624 0)
  (0.188292 0.0146869 0)
  (0.183374 0.0130901 0)
  (0.177962 0.0116081 0)
  (0.172707 0.0100513 0)
  (0.168049 0.00822476 0)
  (0.164212 0.00594377 0)
  (0.16124 0.0030537 0)
  (0.159029 -0.000543489 0)
  (0.157367 -0.00486976 0)
  (0.155983 -0.00987635 0)
  (0.154618 -0.0154625 0)
  (0.153063 -0.0215006 0)
  (0.151181 -0.0278556 0)
  (0.14892 -0.0343918 0)
  (0.146319 -0.0409627 0)
  (0.143529 -0.0473749 0)
  (0.14088 -0.0533229 0)
  (0.139074 -0.058326 0)
  (0.139003 -0.0614814 0)
  (0.141363 -0.0615368 0)
  (0.147194 -0.0588068 0)
  (0.156769 -0.0550861 0)
  (0.168704 -0.0530057 0)
  (0.179986 -0.0546342 0)
  (0.187306 -0.0609832 0)
  (0.186338 -0.0705565 0)
  (0.173045 -0.0829808 0)
  (0.183422 -0.102745 0)
  (-0.201211 -0.147645 0)
)
;

boundaryField
{
  floor
  {
    type noSlip;
  }
  ceiling
  {
    type noSlip;
  }
  sWall
  {
    type noSlip;
  }
  nWall
  {
    type noSlip;
  }
  sideWalls
  {
    type empty;
  }
  glass1
  {
    type noSlip;
  }
  glass2
  {
    type noSlip;
  }
  sun
  {
    type noSlip;
  }
  heatsource1
  {
    type noSlip;
  }
  heatsource2
  {
    type noSlip;
  }
  Table_master
  {
    type noSlip;
  }
  Table_slave
  {
    type noSlip;
  }
  inlet
  {
    type fixedValue;
    value uniform (0.3 0 0);
  }
  outlet
  {
    type zeroGradient;
  }
} 	// ************************************************************************* //

