/*--------------------------------*- C++ -*----------------------------------*\
  =========                 |
  \\      /  F ield         | OpenFOAM: The Open Source CFD Toolbox
   \\    /   O peration     | Website:  https://openfoam.org
    \\  /    A nd           | Version:  6
     \\/     M anipulation  |
\*---------------------------------------------------------------------------*/
FoamFile
{
    version     2.0;
    format      ascii;
    class       volScalarField;
    location    "1000";
    object      alphat;
}
// * * * * * * * * * * * * * * * * * * * * * * * * * * * * * * * * * * * * * //

dimensions      [1 -1 -1 0 0 0 0];

internalField   nonuniform List<scalar> 
459
(
0.0012355
0.00134806
0.00137354
0.00143906
0.00149978
0.00155704
0.00161394
0.00166835
0.00170664
0.00172153
0.00170603
0.00165515
0.00156656
0.00144281
0.00129745
0.00053913
0.000643875
0.00072759
0.000734595
0.000713754
0.000683598
0.000641619
0.000598804
0.000559843
0.000525332
0.000494849
0.000467835
0.000443835
0.000422372
0.000402666
0.000383743
0.000364261
0.000352212
0.000322421
0.00168188
0.00399031
0.00377621
0.00438015
0.00497171
0.00556513
0.00608137
0.00648301
0.00685662
0.00716792
0.00737424
0.0074314
0.00728616
0.00681241
0.00547903
0.00132087
0.000819102
0.000562429
0.00118553
0.00166228
0.0020239
0.00223807
0.00224972
0.00177831
0.00152795
0.00135057
0.00121525
0.00110836
0.00102179
0.000948313
0.000879816
0.00081333
0.000754208
0.000702014
0.000834174
0.00042933
0.0020529
0.00541299
0.0046052
0.00573766
0.00625716
0.00663476
0.00692991
0.0071898
0.00749212
0.00782042
0.00813623
0.00838059
0.00850018
0.00840705
0.00784209
0.00601856
0.00135979
0.00105807
0.00154233
0.00201184
0.00246825
0.00280834
0.00277538
0.000912391
0.000807053
0.000721508
0.000652072
0.000595319
0.000548513
0.000509626
0.000477351
0.000451117
0.000487389
0.000562847
0.000943131
0.000501684
0.00240925
0.00692618
0.00454596
0.0059923
0.00638482
0.00647857
0.00655663
0.00670342
0.00695698
0.00729854
0.00769213
0.00805378
0.008326
0.00843294
0.00831548
0.007668
0.00514909
0.00159144
0.00190913
0.00243872
0.00302004
0.00353937
0.00389906
0.00371587
0.00103299
0.000945411
0.000883076
0.000835673
0.00079513
0.000757156
0.00072053
0.000681835
0.000636686
0.000597447
0.000603968
0.00109615
0.000558907
0.00277243
0.00890034
0.00491446
0.00571266
0.00625277
0.00619572
0.00614112
0.00625204
0.0064903
0.00683947
0.00727472
0.00767286
0.00795214
0.00806081
0.00799989
0.00774156
0.00708607
0.00600362
0.00563789
0.00558267
0.00564226
0.0057123
0.0057249
0.0055493
0.00472089
0.00431976
0.00408672
0.00390496
0.00371177
0.00343575
0.00305398
0.00258507
0.00206155
0.00154016
0.001138
0.00112177
0.000762632
0.000689921
0.000831923
0.000934729
0.00315806
0.0110646
0.00676064
0.00552005
0.00604057
0.00620899
0.00604292
0.0061486
0.00634724
0.00667172
0.00709492
0.00750998
0.00778789
0.00785097
0.00771627
0.00748302
0.00726268
0.00712453
0.00714061
0.00717924
0.00715505
0.0070563
0.00688633
0.00663129
0.00624474
0.00589603
0.00558636
0.00529049
0.00499245
0.0046757
0.00427575
0.00377267
0.00316469
0.00248839
0.00187991
0.00138373
0.0010613
0.000905663
0.00128664
0.000978321
0.00351986
0.012624
0.00969301
0.00700792
0.00653992
0.00657779
0.00641678
0.00632678
0.00642346
0.00673206
0.00717806
0.00761384
0.0078788
0.00788386
0.0076692
0.0074139
0.00735477
0.00756522
0.00782609
0.00791506
0.00779836
0.00753202
0.00716706
0.0067407
0.00629161
0.00588216
0.00551681
0.00518436
0.00488197
0.00461461
0.00438105
0.00406059
0.00359891
0.00302674
0.00246694
0.00194694
0.00158055
0.00147922
0.00151412
0.00112682
0.00359586
0.0114419
0.00993138
0.00880188
0.00810965
0.00734798
0.00670731
0.00643841
0.0065603
0.00697586
0.00751396
0.00797208
0.00817292
0.00805668
0.00773307
0.0074853
0.0075884
0.00793745
0.00808586
0.00792375
0.0075372
0.00701405
0.00643296
0.00586936
0.00538136
0.00498658
0.00466698
0.00440712
0.00420438
0.00406377
0.00399228
0.00396396
0.00374461
0.00339069
0.00307712
0.00293181
0.00308505
0.00356978
0.00433052
0.00174381
0.00350568
0.00419017
0.0047372
0.0049125
0.00493104
0.00504703
0.00537976
0.00596005
0.00673669
0.00755728
0.00822871
0.00858278
0.00850817
0.00808009
0.0076201
0.00753991
0.00762127
0.00762263
0.00738111
0.00689972
0.00626964
0.00559513
0.00497388
0.00446701
0.0040839
0.00379804
0.00357699
0.00339848
0.00324806
0.00311399
0.00298603
0.00286324
0.00276493
0.00269257
0.00266675
0.00267747
0.00265349
0.00253306
0.00235703
0.00162907
0.00216844
0.00383793
0.00528818
0.00649755
0.00747801
0.00835759
0.00904415
0.00938996
0.00934508
0.00892952
0.00820807
0.00739363
0.00689822
0.00671985
0.00651912
0.00614341
0.00560133
0.00497519
0.00435142
0.00381044
0.00339739
0.00310489
0.00290327
0.00276302
0.00266393
0.00259432
0.00254791
0.00252201
0.00251967
0.00254284
0.00257646
0.00261636
0.00265221
0.00265339
0.00257244
0.00239638
0.00214356
0.0013345
0.00252006
0.00536145
0.00731895
0.00823116
0.00884126
0.00925936
0.00922484
0.00864345
0.00775417
0.00680192
0.00600471
0.00542958
0.0050444
0.00469472
0.00426906
0.00378861
0.00331657
0.00291209
0.00260582
0.00239388
0.0022517
0.00215967
0.00211015
0.00209338
0.00210274
0.00213393
0.00218307
0.00224501
0.00232673
0.00242501
0.00253687
0.00265445
0.00275894
0.00282799
0.00280475
0.00281555
0.0027766
0.00135734
0.00215231
0.00226703
0.00235159
0.00241876
0.00218756
0.00200664
0.00191986
0.00183296
0.00170729
0.00155257
0.0013761
0.00120114
0.0010464
0.000923811
0.000835139
0.000772538
0.000727508
0.000695277
0.000674011
0.000662869
0.000660741
0.000666194
0.00067801
0.000695558
0.000717526
0.000743709
0.000774229
0.000809443
0.000850058
0.000897408
0.000950687
0.00101013
0.00107647
0.00115038
0.00123163
0.00132951
0.00136011
0.00132495
0.00124036
0.00115
)
;

boundaryField
{
    floor
    {
        type            compressible::alphatWallFunction;
        Prt             0.85;
        value           nonuniform List<scalar> 
29
(
0.000183534
7.52055e-05
9.09162e-05
0.000103247
0.000104271
0.000101222
9.67902e-05
9.05815e-05
8.4198e-05
7.83399e-05
7.31089e-05
6.84525e-05
6.4296e-05
6.05776e-05
5.72306e-05
5.41386e-05
5.1151e-05
4.80552e-05
4.61298e-05
4.1332e-05
4.13314e-05
5.83183e-05
6.95e-05
7.81993e-05
0.000183532
7.52046e-05
7.87298e-05
0.000150447
0.000223244
)
;
    }
    ceiling
    {
        type            compressible::alphatWallFunction;
        Prt             0.85;
        value           nonuniform List<scalar> 
43
(
0.000296775
0.000311557
0.000322403
0.000331106
0.000301492
0.000278069
0.000266756
0.000255366
0.000238782
0.000218171
0.000194379
0.000170444
0.000148942
0.000131645
0.000118966
0.000109919
0.000103357
9.863e-05
9.54967e-05
9.38504e-05
9.35356e-05
9.43422e-05
9.60873e-05
9.86721e-05
0.000101897
0.000105725
0.000110166
0.000115264
0.000121112
0.000127888
0.000135462
0.000143854
0.000153152
0.000163434
0.000174649
0.000188051
0.000192217
0.000187429
0.000175852
0.000163386
0.000467267
0.000550524
0.000343764
)
;
    }
    sWall
    {
        type            compressible::alphatWallFunction;
        Prt             0.85;
        value           uniform 0.000295555;
    }
    nWall
    {
        type            compressible::alphatWallFunction;
        Prt             0.85;
        value           nonuniform List<scalar> 6(0.000132873 0.000139039 0.000159822 0.000188401 0.000191507 0.000163059);
    }
    sideWalls
    {
        type            empty;
    }
    glass1
    {
        type            compressible::alphatWallFunction;
        Prt             0.85;
        value           nonuniform List<scalar> 9(0.000170744 0.000230173 0.000278365 0.000323856 0.000369551 0.000417434 0.000461851 0.000471253 0.000460477);
    }
    glass2
    {
        type            compressible::alphatWallFunction;
        Prt             0.85;
        value           nonuniform List<scalar> 2(0.000241849 0.00022675);
    }
    sun
    {
        type            compressible::alphatWallFunction;
        Prt             0.85;
        value           nonuniform List<scalar> 
14
(
0.000175065
0.000190443
0.000193905
0.00020278
0.000210962
0.000218647
0.00022625
0.000233494
0.000238575
0.000240548
0.000238492
0.000231736
0.000219917
0.000203281
)
;
    }
    heatsource1
    {
        type            compressible::alphatWallFunction;
        Prt             0.85;
        value           nonuniform List<scalar> 3(9.78349e-05 0.000118497 0.000133191);
    }
    heatsource2
    {
        type            compressible::alphatWallFunction;
        Prt             0.85;
        value           nonuniform List<scalar> 4(0.000186862 0.00011665 0.000116649 0.000192161);
    }
    Table_master
    {
        type            compressible::alphatWallFunction;
        Prt             0.85;
        value           nonuniform List<scalar> 9(0.000130012 0.000114909 0.00010247 9.2242e-05 8.37838e-05 7.67329e-05 7.0818e-05 6.58657e-05 6.18091e-05);
    }
    Table_slave
    {
        type            compressible::alphatWallFunction;
        Prt             0.85;
        value           nonuniform List<scalar> 9(0.000147057 0.000134706 0.000125834 0.000119037 0.000113187 0.000107676 0.000102329 9.66437e-05 8.99603e-05);
    }
    inlet
    {
        type            fixedValue;
        value           uniform 1.94e-05;
    }
    outlet
    {
        type            zeroGradient;
    }
}


// ************************************************************************* //
