/*--------------------------------*- C++ -*----------------------------------*\
  =========                 |
  \\      /  F ield         | OpenFOAM: The Open Source CFD Toolbox
   \\    /   O peration     | Website:  https://openfoam.org
    \\  /    A nd           | Version:  6
     \\/     M anipulation  |
\*---------------------------------------------------------------------------*/
FoamFile
{
    version     2.0;
    format      ascii;
    class       volScalarField;
    location    "900";
    object      epsilon;
}
// * * * * * * * * * * * * * * * * * * * * * * * * * * * * * * * * * * * * * //

dimensions      [0 2 -3 0 0 0 0];

internalField   nonuniform List<scalar> 
459
(
0.000420165
0.000543137
0.000573348
0.000658731
0.0007449
0.000832521
0.000925747
0.00102208
0.00109406
0.0011235
0.00109446
0.00100074
0.000850428
0.00066778
0.000491386
3.44665e-05
5.85633e-05
8.38249e-05
8.54969e-05
7.81354e-05
6.8512e-05
5.67041e-05
4.61755e-05
3.78028e-05
3.12835e-05
2.61836e-05
2.21519e-05
1.89384e-05
1.63393e-05
1.41717e-05
1.22778e-05
1.05124e-05
9.57817e-06
7.41422e-06
0.00106694
0.00156991
0.00051052
0.000493391
0.000514862
0.000552546
0.000610588
0.000688677
0.000764227
0.000812408
0.000812906
0.000759148
0.000659119
0.000534611
0.000433161
0.000515214
0.000115496
3.9475e-05
9.27412e-05
0.000102569
9.57495e-05
8.32872e-05
7.09166e-05
6.4697e-05
5.23979e-05
4.14428e-05
3.27819e-05
2.61207e-05
2.10203e-05
1.71139e-05
1.41343e-05
1.19499e-05
1.06074e-05
1.0033e-05
2.67814e-05
1.79387e-05
0.00194978
0.00388074
0.000629366
0.00046781
0.000487235
0.000545075
0.000633499
0.000747117
0.000853529
0.000918603
0.000924264
0.00087031
0.000768579
0.00064319
0.000526503
0.0004684
0.00055046
0.000264862
0.000205679
0.000162459
0.000129644
0.000104499
8.92296e-05
0.000162776
0.000113268
8.13341e-05
6.03036e-05
4.60661e-05
3.61541e-05
2.90825e-05
2.39572e-05
2.02536e-05
1.5511e-05
1.30689e-05
5.12517e-05
2.89323e-05
0.00316544
0.00809268
0.000995918
0.000469698
0.000471924
0.000552764
0.000685378
0.000856081
0.000993166
0.00106139
0.00105611
0.000986874
0.000866225
0.000721069
0.000592907
0.000508893
0.000489186
0.00088479
0.000511236
0.000313063
0.000212725
0.000155428
0.000119821
0.000103095
0.000235909
0.000181959
0.000149207
0.000127214
0.000110191
9.54892e-05
8.25929e-05
7.02426e-05
5.74042e-05
3.43586e-05
2.23804e-05
8.62266e-05
4.016e-05
0.00484173
0.0144884
0.00197356
0.000547138
0.000471933
0.000577665
0.000814001
0.001076
0.00122612
0.00127302
0.00123573
0.0011327
0.000978494
0.000798109
0.000623045
0.000479107
0.000380259
0.000338252
0.000276768
0.000221328
0.000177008
0.000142538
0.000116089
9.79318e-05
9.46929e-05
8.89785e-05
8.34777e-05
7.79328e-05
7.17593e-05
6.47565e-05
5.76915e-05
5.09477e-05
4.47319e-05
3.60758e-05
2.78199e-05
6.11383e-05
4.68547e-05
7.6115e-05
0.000132668
0.000187726
0.00717806
0.0215796
0.00446333
0.00101773
0.000655988
0.000753283
0.00124043
0.00151932
0.00160622
0.00158526
0.00149338
0.00134074
0.00113446
0.000898244
0.000667624
0.000476941
0.00034539
0.000271274
0.000226791
0.000191691
0.00016008
0.000132927
0.000111331
9.63456e-05
8.9204e-05
8.67145e-05
8.57039e-05
8.41721e-05
8.08657e-05
7.47932e-05
6.57154e-05
5.61199e-05
4.73144e-05
3.9447e-05
3.43134e-05
4.58514e-05
4.81855e-05
5.87144e-05
0.000245371
0.000214892
0.00997195
0.0258417
0.00934778
0.00338452
0.00213414
0.00206666
0.00231946
0.00232097
0.0022036
0.00204205
0.00184875
0.00161163
0.0013261
0.00101551
0.000720489
0.000484101
0.000328543
0.000244232
0.000199735
0.000168647
0.000141844
0.000119825
0.000103923
9.48296e-05
9.24982e-05
9.47665e-05
9.87902e-05
0.000102869
0.000105748
0.000105628
9.91109e-05
8.76485e-05
7.62381e-05
6.66134e-05
6.28018e-05
7.05562e-05
9.03549e-05
0.00014519
0.000334018
0.000323709
0.0106639
0.0288863
0.0156611
0.00993509
0.00698327
0.00540176
0.00428293
0.00352805
0.00301261
0.00262884
0.00228729
0.00192688
0.00152588
0.00111486
0.000740142
0.000456749
0.000287054
0.000203346
0.000163584
0.000137872
0.000117933
0.000103892
9.60846e-05
9.42739e-05
9.77221e-05
0.000105103
0.000115232
0.000127749
0.000142735
0.000160062
0.000178636
0.000190544
0.000200423
0.000222219
0.000267621
0.000404143
0.000750387
0.00141987
0.00411815
0.0012078
0.00991719
0.0169108
0.0135733
0.0102462
0.00780531
0.0061376
0.00500895
0.00423447
0.00367487
0.00320629
0.00273256
0.00220663
0.00162914
0.00108527
0.000619316
0.000325511
0.00020346
0.000150056
0.000122665
0.000105091
9.35075e-05
8.73297e-05
8.6182e-05
8.95218e-05
9.67757e-05
0.000107539
0.000121886
0.000140569
0.000165013
0.000197308
0.000240267
0.000297864
0.000376755
0.000494904
0.000668463
0.000902828
0.00116898
0.00139885
0.00157582
0.00098353
0.00500014
0.0067129
0.00669044
0.0061828
0.00548419
0.0048135
0.00416166
0.0034689
0.0027165
0.00193029
0.00106333
0.000560215
0.000294222
0.000170336
0.000117904
9.27929e-05
7.90723e-05
7.11028e-05
6.6961e-05
6.6119e-05
6.82104e-05
7.28795e-05
7.99543e-05
8.95371e-05
0.000102076
0.000118433
0.000139981
0.000168808
0.000208205
0.000263334
0.000339631
0.000444318
0.000580587
0.000735036
0.000865649
0.000917447
0.000855455
0.000540255
0.00345784
0.0067884
0.00664956
0.00532442
0.0044752
0.00380539
0.00296727
0.00207466
0.00131458
0.000764422
0.000411401
0.000225743
0.000132827
8.94636e-05
6.93847e-05
5.93985e-05
5.44157e-05
5.25171e-05
5.29112e-05
5.51549e-05
5.90057e-05
6.44623e-05
7.16701e-05
8.09356e-05
9.27904e-05
0.000108079
0.000128107
0.000154876
0.000191174
0.000240655
0.000308331
0.000399165
0.000513556
0.000643017
0.000738083
0.000833436
0.000767581
0.000566653
0.00272223
0.00272907
0.00288429
0.00320704
0.0023633
0.00179301
0.00154027
0.00133294
0.00106956
0.000802068
0.000551455
0.000359043
0.000230747
0.000154077
0.000111137
8.68868e-05
7.25999e-05
6.41695e-05
5.97211e-05
5.82817e-05
5.92269e-05
6.21497e-05
6.689e-05
7.33785e-05
8.1599e-05
9.18283e-05
0.000104485
0.000120183
0.000139867
0.000165096
0.000196814
0.000236504
0.000286491
0.000349736
0.000429167
0.00054119
0.000578217
0.000534665
0.000439007
0.000349929
)
;

boundaryField
{
    floor
    {
        Cmu             0.09;
        kappa           0.41;
        E               9.8;
        type            epsilonWallFunction;
        value           nonuniform List<scalar> 
29
(
0.000491386
3.44665e-05
5.85633e-05
8.38249e-05
8.54969e-05
7.81354e-05
6.8512e-05
5.67041e-05
4.61755e-05
3.78028e-05
3.12835e-05
2.61836e-05
2.21519e-05
1.89384e-05
1.63393e-05
1.41717e-05
1.22778e-05
1.05124e-05
9.57817e-06
7.41422e-06
7.41422e-06
1.79387e-05
2.89323e-05
4.016e-05
0.000491386
3.44665e-05
3.9475e-05
0.000264862
0.00088479
)
;
    }
    ceiling
    {
        Cmu             0.09;
        kappa           0.41;
        E               9.8;
        type            epsilonWallFunction;
        value           nonuniform List<scalar> 
43
(
0.00272223
0.00272907
0.00288429
0.00320704
0.0023633
0.00179301
0.00154027
0.00133294
0.00106956
0.000802068
0.000551455
0.000359043
0.000230747
0.000154077
0.000111137
8.68868e-05
7.25999e-05
6.41695e-05
5.97211e-05
5.82817e-05
5.92269e-05
6.21497e-05
6.689e-05
7.33785e-05
8.1599e-05
9.18283e-05
0.000104485
0.000120183
0.000139867
0.000165096
0.000196814
0.000236504
0.000286491
0.000349736
0.000429167
0.00054119
0.000578217
0.000534665
0.000439007
0.000349929
0.00991719
0.0169108
0.00345784
)
;
    }
    sWall
    {
        Cmu             0.09;
        kappa           0.41;
        E               9.8;
        type            epsilonWallFunction;
        value           uniform 0.00272223;
    }
    nWall
    {
        Cmu             0.09;
        kappa           0.41;
        E               9.8;
        type            epsilonWallFunction;
        value           nonuniform List<scalar> 6(0.000187726 0.000214892 0.000323709 0.000540255 0.000566653 0.000349929);
    }
    sideWalls
    {
        type            empty;
    }
    glass1
    {
        Cmu             0.09;
        kappa           0.41;
        E               9.8;
        type            epsilonWallFunction;
        value           nonuniform List<scalar> 9(0.000420165 0.00106694 0.00194978 0.00316544 0.00484173 0.00717806 0.00997195 0.0106639 0.00991719);
    }
    glass2
    {
        Cmu             0.09;
        kappa           0.41;
        E               9.8;
        type            epsilonWallFunction;
        value           nonuniform List<scalar> 2(0.0012078 0.00098353);
    }
    sun
    {
        Cmu             0.09;
        kappa           0.41;
        E               9.8;
        type            epsilonWallFunction;
        value           nonuniform List<scalar> 
14
(
0.000420165
0.000543137
0.000573348
0.000658731
0.0007449
0.000832521
0.000925747
0.00102208
0.00109406
0.0011235
0.00109446
0.00100074
0.000850428
0.00066778
)
;
    }
    heatsource1
    {
        Cmu             0.09;
        kappa           0.41;
        E               9.8;
        type            epsilonWallFunction;
        value           nonuniform List<scalar> 3(7.6115e-05 0.000132668 0.000187726);
    }
    heatsource2
    {
        Cmu             0.09;
        kappa           0.41;
        E               9.8;
        type            epsilonWallFunction;
        value           nonuniform List<scalar> 4(0.000515214 0.000115496 0.000115496 0.00055046);
    }
    Table_master
    {
        Cmu             0.09;
        kappa           0.41;
        E               9.8;
        type            epsilonWallFunction;
        value           nonuniform List<scalar> 9(0.000162776 0.000113268 8.13341e-05 6.03036e-05 4.60661e-05 3.61541e-05 2.90825e-05 2.39572e-05 2.02536e-05);
    }
    Table_slave
    {
        Cmu             0.09;
        kappa           0.41;
        E               9.8;
        type            epsilonWallFunction;
        value           nonuniform List<scalar> 9(0.000235909 0.000181959 0.000149207 0.000127214 0.000110191 9.54892e-05 8.25929e-05 7.02426e-05 5.74042e-05);
    }
    inlet
    {
        type            turbulentMixingLengthDissipationRateInlet;
        mixingLength    0.01;
        phi             phi;
        k               k;
        value           uniform 0.000101881;
    }
    outlet
    {
        type            zeroGradient;
    }
}


// ************************************************************************* //
