/*--------------------------------*- C++ -*----------------------------------*\
  =========                 |
  \\      /  F ield         | OpenFOAM: The Open Source CFD Toolbox
   \\    /   O peration     | Website:  https://openfoam.org
    \\  /    A nd           | Version:  6
     \\/     M anipulation  |
\*---------------------------------------------------------------------------*/
FoamFile
{
    version     2.0;
    format      ascii;
    class       volScalarField;
    location    "100";
    object      alphat;
}
// * * * * * * * * * * * * * * * * * * * * * * * * * * * * * * * * * * * * * //

dimensions      [1 -1 -1 0 0 0 0];

internalField   nonuniform List<scalar> 
459
(
0.00175058
0.00197477
0.00207332
0.002223
0.00238713
0.00251314
0.00258114
0.00250113
0.00237896
0.00224125
0.00209659
0.0019518
0.00181656
0.00167165
0.00150293
0.000825002
0.000971865
0.00114073
0.0012615
0.00129593
0.00127054
0.00119106
0.00110585
0.00102962
0.000963656
0.0009067
0.000857348
0.000814106
0.000775724
0.000740914
0.000707556
0.000672515
0.00063068
0.000571683
0.0022285
0.00655854
0.00685699
0.00775802
0.00836509
0.00878055
0.00916272
0.0094845
0.00924218
0.00870197
0.00800371
0.00708458
0.00583488
0.0044306
0.0029695
0.0015784
0.00136182
0.000805056
0.0021725
0.00363836
0.00475217
0.00540812
0.00524177
0.00353077
0.00287713
0.00246751
0.00217916
0.00196579
0.00180319
0.0016785
0.0015696
0.00144327
0.00131463
0.0011911
0.00106688
0.000605048
0.00262991
0.00927295
0.00887753
0.00925432
0.00921139
0.00906766
0.00941564
0.0101375
0.0104028
0.0102261
0.0097872
0.00912911
0.00806055
0.00659179
0.00487192
0.00312037
0.00144816
0.000811429
0.00219253
0.00380334
0.00553612
0.00671917
0.00629866
0.00159446
0.00138152
0.00120854
0.00106982
0.000958371
0.000868361
0.000795429
0.000738343
0.000700166
0.000824623
0.000990579
0.00109655
0.000613007
0.00301235
0.0115722
0.010184
0.0100119
0.00916167
0.00846178
0.00883798
0.0097608
0.0103471
0.010426
0.0101917
0.00977321
0.00904855
0.00790313
0.00637446
0.00459794
0.00258768
0.00150845
0.00168207
0.00289044
0.00494354
0.00704389
0.00843131
0.00783588
0.00182049
0.00165704
0.00152822
0.00141759
0.0013141
0.00121175
0.0011066
0.00099485
0.000867426
0.000808963
0.00091849
0.00108407
0.000614364
0.00338753
0.0140119
0.0120402
0.010996
0.00914344
0.00806816
0.00853525
0.00959609
0.0103691
0.0105795
0.0104429
0.0101722
0.00972418
0.00893602
0.00780675
0.00646378
0.00510048
0.00490755
0.00592182
0.00753355
0.00927823
0.0106876
0.0114796
0.0113151
0.00925905
0.00805899
0.0070124
0.00601073
0.00504527
0.00411378
0.0032148
0.0023534
0.00155205
0.00103302
0.000982247
0.00109931
0.00071587
0.000594829
0.000607547
0.00061846
0.00375022
0.0162626
0.0146203
0.0117282
0.00891708
0.00790241
0.00849503
0.00971667
0.0106349
0.0109454
0.0109601
0.0109896
0.0108539
0.010417
0.00977875
0.00914104
0.00878539
0.00948255
0.0110304
0.0124278
0.0134637
0.0140222
0.0140785
0.0135911
0.0124419
0.0110548
0.00954565
0.00803967
0.00658254
0.00519494
0.00388586
0.0026583
0.0017303
0.00121691
0.00116235
0.00122529
0.000950935
0.00099695
0.00150356
0.000856364
0.00396357
0.0169348
0.0156997
0.0111322
0.00831503
0.00767759
0.00861468
0.0100662
0.0111116
0.0115741
0.0120403
0.012599
0.0126545
0.0124836
0.012295
0.012299
0.0127091
0.0137671
0.0149852
0.0157413
0.0160366
0.0158895
0.0153456
0.0144333
0.0131225
0.0115435
0.00987291
0.00820785
0.00660937
0.00512701
0.0038119
0.00272454
0.00197623
0.00162105
0.00160974
0.0016267
0.00146561
0.00147589
0.0016395
0.00099681
0.00395005
0.0127249
0.0110333
0.00825852
0.00692097
0.0073489
0.00893218
0.0106428
0.0117639
0.0126358
0.0135504
0.0140792
0.0142016
0.0142615
0.014435
0.0148102
0.015441
0.0162591
0.0168851
0.0170415
0.0167462
0.0160509
0.0150323
0.013756
0.0122874
0.0107072
0.00909297
0.00751576
0.00604171
0.00473626
0.00366228
0.00287076
0.00238958
0.00218531
0.00215546
0.0021538
0.00220767
0.00213672
0.00288217
0.00112956
0.00379082
0.0042912
0.00447125
0.00443639
0.00538157
0.00745098
0.00980442
0.0114562
0.0126846
0.0136037
0.0143207
0.0145523
0.0146793
0.0149037
0.0152562
0.0157077
0.0161888
0.0165487
0.0165904
0.0162187
0.0154654
0.0144173
0.0131714
0.0118136
0.0104116
0.0090115
0.00764801
0.00636049
0.005193
0.00418292
0.00334641
0.00267783
0.00219909
0.00196081
0.00189341
0.0018922
0.00193052
0.00194467
0.00185128
0.00127452
0.000950905
0.00357227
0.00782288
0.0107306
0.0122767
0.0125972
0.0129315
0.0132618
0.0133426
0.0133955
0.013565
0.0138402
0.0141597
0.0144418
0.0145848
0.0144738
0.0140391
0.0132954
0.0123268
0.0112411
0.01013
0.00905454
0.0080432
0.0071024
0.00623659
0.00545718
0.00477565
0.00419348
0.00369918
0.00327579
0.00291527
0.00262888
0.00243566
0.00233094
0.00228809
0.00226561
0.0021625
0.00141799
0.00245895
0.0107268
0.0120329
0.011889
0.0112417
0.0106838
0.0103058
0.010048
0.00994042
0.0099815
0.0101216
0.0103049
0.0104775
0.0105811
0.0105538
0.0103466
0.0099521
0.00941193
0.00879517
0.00816772
0.00757301
0.00703102
0.0065467
0.0061194
0.00574832
0.00543212
0.00516517
0.00493467
0.00472148
0.00450516
0.00426973
0.00400252
0.0036915
0.0033416
0.00297435
0.00278849
0.00322552
0.00159585
0.00229303
0.00246509
0.00260857
0.00285936
0.00251971
0.00229302
0.00212679
0.00200504
0.00193661
0.00190461
0.00189506
0.00189826
0.00190712
0.00191607
0.0019204
0.00191603
0.0019001
0.00187198
0.00183415
0.0017913
0.00174838
0.00170903
0.00167506
0.00164684
0.00162393
0.00160559
0.00159099
0.00157908
0.00156839
0.00155678
0.00154164
0.00152043
0.00149176
0.0014566
0.00141814
0.00137801
0.00133015
0.00129493
0.00130543
0.00129519
)
;

boundaryField
{
    floor
    {
        type            compressible::alphatWallFunction;
        Prt             0.85;
        value           nonuniform List<scalar> 
29
(
0.000211396
0.000117455
0.000138402
0.000162036
0.000178691
0.000183411
0.000179937
0.000169007
0.000157196
0.000146541
0.000137247
0.000129163
0.00012211
0.000115891
0.000110338
0.000105274
0.000100394
9.52387e-05
8.90404e-05
8.02129e-05
8.0212e-05
8.5221e-05
8.64114e-05
8.66155e-05
0.000211394
0.000117454
0.000114579
0.000115493
0.000212152
)
;
    }
    ceiling
    {
        type            compressible::alphatWallFunction;
        Prt             0.85;
        value           nonuniform List<scalar> 
43
(
0.000315143
0.000337143
0.000355369
0.000387077
0.000344261
0.000315321
0.0002939
0.000278098
0.000269174
0.00026499
0.000263742
0.000264165
0.000265329
0.000266505
0.000267073
0.000266504
0.00026442
0.000260734
0.000255765
0.000250121
0.000244454
0.000239244
0.000234736
0.000230984
0.000227934
0.000225489
0.000223541
0.000221954
0.000220527
0.000218975
0.000216946
0.000214095
0.000210228
0.000205471
0.000200253
0.000194797
0.000188279
0.00018346
0.000184919
0.000183562
0.000502106
0.000562649
0.000335959
)
;
    }
    sWall
    {
        type            compressible::alphatWallFunction;
        Prt             0.85;
        value           uniform 0.000314027;
    }
    nWall
    {
        type            compressible::alphatWallFunction;
        Prt             0.85;
        value           nonuniform List<scalar> 6(8.70617e-05 0.00012181 0.000141791 0.00019992 0.000223847 0.000183303);
    }
    sideWalls
    {
        type            empty;
    }
    glass1
    {
        type            compressible::alphatWallFunction;
        Prt             0.85;
        value           nonuniform List<scalar> 9(0.000238785 0.000300369 0.000351115 0.000398783 0.000444999 0.000489222 0.000515104 0.000513635 0.000494648);
    }
    glass2
    {
        type            compressible::alphatWallFunction;
        Prt             0.85;
        value           nonuniform List<scalar> 2(0.000159817 0.000179852);
    }
    sun
    {
        type            compressible::alphatWallFunction;
        Prt             0.85;
        value           nonuniform List<scalar> 
14
(
0.000244393
0.00027382
0.000286646
0.000306002
0.000327064
0.000343127
0.000351756
0.000341598
0.000326021
0.000308359
0.000289678
0.00027084
0.000253107
0.000233943
)
;
    }
    heatsource1
    {
        type            compressible::alphatWallFunction;
        Prt             0.85;
        value           nonuniform List<scalar> 3(8.37319e-05 8.56266e-05 8.72237e-05);
    }
    heatsource2
    {
        type            compressible::alphatWallFunction;
        Prt             0.85;
        value           nonuniform List<scalar> 4(0.000221657 0.000192461 0.000192459 0.000204157);
    }
    Table_master
    {
        type            compressible::alphatWallFunction;
        Prt             0.85;
        value           nonuniform List<scalar> 9(0.000223817 0.000195146 0.00017149 0.000152239 0.000136564 0.000123749 0.00011325 0.000104952 9.93607e-05);
    }
    Table_slave
    {
        type            compressible::alphatWallFunction;
        Prt             0.85;
        value           nonuniform List<scalar> 9(0.000253796 0.00023217 0.000214961 0.000200052 0.000185986 0.00017195 0.000157389 0.000141736 0.000123633);
    }
    inlet
    {
        type            fixedValue;
        value           uniform 1.94e-05;
    }
    outlet
    {
        type            zeroGradient;
    }
}


// ************************************************************************* //
