/*--------------------------------*- C++ -*----------------------------------*\
  =========                 |
  \\      /  F ield         | OpenFOAM: The Open Source CFD Toolbox
   \\    /   O peration     | Website:  https://openfoam.org
    \\  /    A nd           | Version:  6
     \\/     M anipulation  |
\*---------------------------------------------------------------------------*/
FoamFile
{
    version     2.0;
    format      ascii;
    class       volScalarField;
    location    "500";
    object      nut;
}
// * * * * * * * * * * * * * * * * * * * * * * * * * * * * * * * * * * * * * //

dimensions      [0 2 -1 0 0 0 0];

internalField   nonuniform List<scalar> 
459
(
0.00072711
0.000740162
0.000615047
0.000626362
0.000649361
0.000673321
0.000697451
0.000721935
0.000747611
0.00077231
0.000793349
0.000809122
0.00081811
0.00081881
0.00080605
0.000290565
0.00038126
0.000275104
0.000240071
0.000224001
0.000213687
0.000210751
0.000213814
0.000225427
0.000241165
0.000258419
0.000276056
0.000294242
0.000317292
0.000353411
0.000399269
0.000438514
0.000435631
0.000394412
0.00132563
0.00256873
0.00159141
0.00240238
0.00268134
0.00286737
0.0030577
0.00323923
0.00338612
0.00349447
0.00354567
0.00350018
0.00329139
0.00280937
0.00193719
0.00087761
0.00058391
0.000413749
0.00166584
0.000975167
0.000710076
0.000534718
0.0003844
0.000332391
0.000322984
0.000366555
0.000445832
0.000558805
0.000704371
0.000875286
0.00101579
0.00118032
0.00147697
0.00129428
0.00107453
0.000448668
0.00184564
0.00456485
0.00187247
0.00298295
0.00398718
0.00431438
0.00453606
0.0047236
0.00486718
0.00496428
0.00499249
0.00490575
0.00462928
0.00405886
0.0031218
0.0019615
0.000950017
0.000700136
0.00229633
0.0018335
0.00148481
0.00119239
0.000886578
0.000247575
0.000236994
0.000292444
0.00034773
0.000400719
0.00045432
0.000512638
0.00058251
0.000679006
0.00192437
0.00178362
0.00136114
0.000691821
0.00232071
0.00690686
0.00273047
0.00281903
0.00442857
0.00500912
0.00529297
0.00551747
0.0057045
0.00585592
0.00597158
0.00600879
0.00588805
0.00548458
0.00465114
0.00335179
0.00193622
0.00110487
0.00271001
0.00291876
0.00273943
0.0022797
0.00178434
0.00123042
0.00078
0.000766383
0.000755807
0.000747657
0.000744904
0.0007523
0.000775927
0.000823163
0.000906641
0.0026799
0.00283072
0.00249631
0.000967564
0.00274673
0.00926939
0.00435017
0.00291616
0.00416198
0.00499705
0.00542128
0.00573512
0.0060052
0.00625887
0.00654456
0.00683908
0.00709332
0.00723848
0.00719682
0.00691128
0.00640238
0.00582404
0.00563209
0.00548544
0.00539681
0.00525943
0.00506048
0.00482517
0.00457487
0.00439424
0.0041842
0.0039439
0.00369579
0.00348135
0.00334543
0.0033113
0.00337373
0.00353154
0.00354561
0.0034842
0.00302569
0.00130336
0.00113369
0.000981316
0.00313518
0.0112895
0.00692779
0.00421529
0.00381996
0.0043124
0.00486368
0.00531068
0.00565072
0.00600077
0.00643956
0.0069544
0.00749928
0.00800779
0.00840481
0.00862062
0.00861117
0.00839651
0.00808143
0.00775615
0.00748725
0.00728904
0.00712815
0.00696816
0.00677573
0.00653614
0.00623225
0.00585263
0.00540087
0.00491537
0.00447277
0.00414688
0.00395253
0.00384597
0.00376372
0.00364156
0.00336954
0.00284189
0.00211043
0.00103314
0.00346323
0.0124988
0.00995229
0.00695797
0.00496612
0.00423487
0.00434125
0.00469484
0.00496627
0.00528745
0.00573647
0.00633951
0.00706154
0.00781853
0.00850724
0.00902852
0.00930261
0.00931867
0.00914248
0.00888291
0.00863476
0.00843979
0.0082892
0.00815626
0.00801118
0.00783495
0.00761142
0.00731306
0.006902
0.00635256
0.0056988
0.00505888
0.00455167
0.004199
0.00393476
0.00366286
0.00328835
0.00277442
0.00216696
0.0010374
0.00348076
0.0112911
0.0101011
0.00911012
0.00736784
0.00595744
0.00520322
0.00491361
0.00482543
0.00484774
0.00502472
0.00540692
0.00601831
0.0068161
0.00767901
0.00845781
0.00899259
0.00925018
0.00927846
0.00916539
0.00900385
0.00885256
0.00872916
0.00862838
0.00853744
0.00844903
0.00835883
0.00825252
0.00809446
0.00782219
0.00736851
0.00673502
0.00600998
0.0053364
0.00477539
0.00428658
0.00382357
0.00335998
0.00298867
0.00151504
0.00332006
0.00383059
0.0084833
0.00910952
0.00808148
0.00691293
0.0059894
0.00535827
0.00495608
0.00473113
0.00468052
0.00480378
0.00511917
0.00564654
0.00635375
0.00712477
0.0077993
0.00827437
0.00853142
0.00861448
0.00859361
0.00852885
0.00845577
0.00838952
0.0083348
0.00829676
0.00828402
0.00830395
0.00835435
0.00840871
0.00839141
0.00820861
0.00786836
0.00748892
0.00726768
0.00718841
0.00677262
0.0058402
0.00588752
0.00167896
0.0183553
0.0171461
0.00990431
0.00778709
0.00666565
0.00593176
0.00543919
0.00512031
0.00493344
0.00486169
0.00490648
0.00507689
0.00537911
0.00579749
0.00627654
0.00673596
0.00710694
0.00735908
0.00750117
0.00756193
0.00757101
0.00755241
0.00752424
0.00750176
0.00750033
0.00753551
0.00762029
0.00775572
0.00790588
0.00801271
0.0080295
0.00793228
0.00774654
0.00741039
0.00677118
0.00583196
0.00492587
0.00162603
0.00660249
0.0137199
0.00963253
0.00754372
0.00638772
0.00566306
0.0051958
0.004906
0.00474573
0.00469044
0.00472893
0.00485106
0.00503659
0.00527217
0.00554078
0.00581628
0.00606812
0.00627259
0.00642015
0.00651303
0.00655033
0.00654546
0.00651565
0.00647642
0.00644063
0.00641846
0.00641709
0.00643809
0.00645906
0.00647028
0.00645628
0.00639673
0.00623855
0.00589011
0.00536929
0.00461654
0.00435848
0.00148939
0.00174167
0.00260412
0.00475069
0.00431038
0.00356936
0.00299115
0.00256853
0.00225509
0.0020164
0.00183098
0.00168634
0.00157476
0.00149002
0.00142799
0.0013867
0.00136303
0.0013533
0.00135328
0.00135844
0.00136461
0.00136883
0.00136963
0.00136798
0.00136378
0.00135716
0.00134866
0.00133894
0.00132866
0.00131835
0.00130837
0.00130112
0.00129573
0.00128845
0.00127405
0.00124976
0.00122254
0.00118918
0.00114806
0.00116985
0.00107401
)
;

boundaryField
{
    floor
    {
        type            nutkWallFunction;
        Cmu             0.09;
        kappa           0.41;
        E               9.8;
        value           nonuniform List<scalar> 
29
(
9.76224e-05
3.20532e-05
4.42003e-05
2.99315e-05
2.50837e-05
2.28269e-05
2.13644e-05
2.0947e-05
2.1383e-05
2.30322e-05
2.52517e-05
2.76635e-05
3.01072e-05
3.2607e-05
3.57501e-05
4.06151e-05
4.66993e-05
5.18303e-05
5.14462e-05
4.60418e-05
4.60417e-05
5.31284e-05
8.37773e-05
0.000116961
9.76224e-05
3.20531e-05
4.85355e-05
8.46849e-05
0.000132964
)
;
    }
    ceiling
    {
        type            nutkWallFunction;
        Cmu             0.09;
        kappa           0.41;
        E               9.8;
        value           nonuniform List<scalar> 
43
(
0.000205267
0.000298657
0.000518934
0.000474688
0.000399253
0.000339311
0.000294759
0.000261227
0.000235365
0.000215051
0.000199049
0.000186604
0.000177087
0.000170082
0.000165399
0.000162706
0.000161596
0.000161592
0.000162177
0.000162877
0.000163356
0.000163447
0.000163257
0.000162779
0.000162027
0.000161058
0.000159951
0.00015878
0.000157604
0.000156464
0.000155636
0.000155018
0.000154186
0.000152536
0.000149751
0.000146623
0.000142777
0.000138021
0.000140541
0.000129406
0.000373428
0.000425835
0.000700802
)
;
    }
    sWall
    {
        type            nutkWallFunction;
        Cmu             0.09;
        kappa           0.41;
        E               9.8;
        value           uniform 0.000205312;
    }
    nWall
    {
        type            nutkWallFunction;
        Cmu             0.09;
        kappa           0.41;
        E               9.8;
        value           nonuniform List<scalar> 6(0.000118544 0.000124641 0.000125144 0.000192295 0.000176985 0.000129413);
    }
    sideWalls
    {
        type            empty;
    }
    glass1
    {
        type            nutkWallFunction;
        Cmu             0.09;
        kappa           0.41;
        E               9.8;
        value           nonuniform List<scalar> 9(8.80154e-05 0.000158588 0.000216867 0.000268531 0.000313901 0.000354631 0.000388625 0.000390446 0.000373867);
    }
    glass2
    {
        type            nutkWallFunction;
        Cmu             0.09;
        kappa           0.41;
        E               9.8;
        value           nonuniform List<scalar> 2(0.000179939 0.000198244);
    }
    sun
    {
        type            nutkWallFunction;
        Cmu             0.09;
        kappa           0.41;
        E               9.8;
        value           nonuniform List<scalar> 
14
(
8.8041e-05
8.96344e-05
7.42207e-05
7.56299e-05
7.84839e-05
8.14445e-05
8.44131e-05
8.7413e-05
9.05456e-05
9.35473e-05
9.6095e-05
9.79994e-05
9.90819e-05
9.91641e-05
)
;
    }
    heatsource1
    {
        type            nutkWallFunction;
        Cmu             0.09;
        kappa           0.41;
        E               9.8;
        value           nonuniform List<scalar> 3(0.000155895 0.000136362 0.00011854);
    }
    heatsource2
    {
        type            nutkWallFunction;
        Cmu             0.09;
        kappa           0.41;
        E               9.8;
        value           nonuniform List<scalar> 4(0.000106206 7.03322e-05 7.03321e-05 0.000114804);
    }
    Table_master
    {
        type            nutkWallFunction;
        Cmu             0.09;
        kappa           0.41;
        E               9.8;
        value           nonuniform List<scalar> 9(2.61445e-05 2.46652e-05 3.23527e-05 3.98323e-05 4.68594e-05 5.38498e-05 6.13403e-05 7.01786e-05 8.21763e-05);
    }
    Table_slave
    {
        type            nutkWallFunction;
        Cmu             0.09;
        kappa           0.41;
        E               9.8;
        value           nonuniform List<scalar> 9(9.44839e-05 9.28352e-05 9.15517e-05 9.05609e-05 9.02258e-05 9.11264e-05 9.39963e-05 9.9704e-05 0.000109699);
    }
    inlet
    {
        type            calculated;
        value           uniform 0.0183553;
    }
    outlet
    {
        type            calculated;
        value           nonuniform List<scalar> 2(0.00174167 0.00260412);
    }
}


// ************************************************************************* //
