/*--------------------------------*- C++ -*----------------------------------*\
  =========                 |
  \\      /  F ield         | OpenFOAM: The Open Source CFD Toolbox
   \\    /   O peration     | Website:  https://openfoam.org
    \\  /    A nd           | Version:  6
     \\/     M anipulation  |
\*---------------------------------------------------------------------------*/
FoamFile
{
    version     2.0;
    format      ascii;
    class       volScalarField;
    location    "1000";
    object      nut;
}
// * * * * * * * * * * * * * * * * * * * * * * * * * * * * * * * * * * * * * //

dimensions      [0 2 -1 0 0 0 0];

internalField   nonuniform List<scalar> 
459
(
0.00107856
0.00117684
0.00119969
0.00125733
0.00131097
0.00136188
0.00141292
0.00145988
0.00149155
0.00150137
0.00148344
0.00143371
0.00134954
0.00123189
0.00109467
0.000470125
0.000559676
0.000634274
0.000645425
0.000629288
0.000604084
0.000566922
0.000528616
0.000493718
0.000462828
0.00043557
0.000411443
0.000390042
0.000370921
0.000353384
0.00033657
0.000319315
0.000308702
0.000282688
0.00146611
0.00350443
0.00332484
0.00385678
0.00438038
0.00490111
0.00534214
0.00569576
0.00601987
0.00628397
0.006453
0.00649406
0.00636886
0.00598752
0.00498083
0.00111918
0.000726565
0.000486445
0.0010468
0.00148567
0.00182601
0.00203289
0.00204306
0.00159087
0.00135888
0.00119639
0.0010733
0.000976532
0.000898409
0.000832168
0.000770612
0.000710878
0.000657638
0.000611183
0.000729542
0.000374702
0.00178777
0.00475343
0.00406302
0.00503256
0.00547898
0.00580542
0.0060622
0.00629968
0.0065716
0.00686193
0.00713514
0.00734398
0.00744535
0.00735142
0.00685414
0.00521695
0.00117593
0.000895416
0.00133641
0.0017779
0.00221826
0.00255003
0.00251678
0.000803803
0.000708856
0.000631963
0.000569752
0.000519063
0.000477377
0.000442842
0.000414286
0.000391251
0.000424203
0.000491501
0.000830285
0.000438027
0.00209607
0.00606231
0.00402326
0.00524791
0.0055679
0.00564997
0.00573368
0.00588128
0.00611658
0.00642607
0.00676966
0.00708083
0.00731072
0.00738231
0.00726402
0.00665875
0.00431981
0.00136863
0.00164894
0.0021315
0.00267918
0.0031791
0.00352603
0.00334975
0.000911522
0.000832714
0.000776698
0.000734061
0.000697514
0.000663214
0.000630103
0.000595124
0.00055437
0.000518548
0.000526281
0.000973055
0.000487527
0.00240991
0.00776349
0.0043481
0.00502769
0.00545586
0.00540961
0.00538782
0.00550744
0.00572423
0.00604398
0.00642174
0.00675952
0.00698479
0.0070605
0.00699744
0.00676856
0.00618895
0.00527618
0.00498294
0.0049665
0.00505059
0.00513504
0.00515313
0.00498119
0.00420179
0.00382284
0.0036013
0.00342943
0.00324962
0.00299709
0.00265183
0.00223249
0.00176991
0.00131719
0.000974676
0.000981296
0.000665764
0.000601293
0.000723287
0.000812965
0.00274302
0.00963018
0.00594806
0.00490553
0.00533459
0.00547891
0.00533879
0.00542927
0.00560505
0.00589895
0.00627345
0.00662488
0.00684253
0.00687217
0.00674764
0.00656652
0.00642075
0.00635251
0.00640448
0.00645971
0.00644616
0.00635506
0.00619051
0.00594035
0.0055639
0.00522657
0.00493115
0.00465305
0.00437616
0.0040845
0.00371965
0.00326543
0.00272321
0.00212989
0.00160647
0.00119146
0.000923408
0.000793793
0.00113017
0.000852007
0.00305439
0.0109714
0.008474
0.00621311
0.0058505
0.00583563
0.00565291
0.00556411
0.005663
0.00595295
0.00635139
0.00671943
0.00692048
0.00689568
0.00670752
0.00653246
0.00657116
0.00683159
0.00708404
0.0071568
0.0070404
0.00678987
0.0064502
0.00605065
0.0056225
0.00522783
0.00487592
0.00455833
0.00427281
0.00402358
0.00380855
0.00352107
0.00311026
0.00260336
0.00211424
0.00167046
0.00136357
0.00128749
0.00132888
0.0009874
0.00312081
0.0099155
0.0086259
0.00767784
0.00705711
0.00635202
0.00581343
0.00562423
0.00577878
0.00617517
0.00665281
0.00703199
0.00716872
0.00703894
0.00677743
0.00664772
0.00685641
0.007206
0.00731631
0.00716283
0.0068168
0.00634768
0.00581609
0.00528431
0.0048097
0.00441942
0.00410383
0.00385037
0.00365587
0.00352302
0.00345537
0.00342733
0.00324554
0.00293376
0.00266306
0.00254496
0.00269798
0.00315181
0.00382488
0.00151732
0.0030449
0.00363208
0.00409747
0.00423317
0.00425467
0.00438643
0.00472205
0.00528056
0.00599656
0.00672093
0.00728364
0.00754377
0.00742301
0.00703772
0.00674747
0.00676011
0.00687637
0.00687988
0.00666446
0.00625253
0.00570111
0.00509009
0.00450239
0.0040046
0.00362079
0.00333504
0.00311839
0.00294854
0.00281031
0.00269156
0.00258215
0.00247957
0.00239918
0.00234138
0.00232213
0.00233109
0.00230658
0.00219721
0.00204253
0.00141323
0.0018105
0.00324088
0.00458996
0.00572445
0.00664679
0.00745268
0.00802445
0.00826397
0.00816131
0.00774891
0.00707718
0.00644093
0.00613286
0.00602649
0.00586859
0.00555012
0.00508183
0.00452605
0.00396067
0.00345038
0.00304346
0.00275133
0.00255211
0.00241754
0.00232619
0.00226499
0.00222643
0.00220674
0.00220719
0.00222931
0.00225992
0.00229524
0.00232634
0.00232708
0.00225751
0.00210961
0.00189125
0.00115857
0.00212396
0.00462497
0.00644595
0.0072668
0.00783245
0.00817289
0.00796276
0.00736197
0.0065688
0.00578949
0.00516742
0.004742
0.00446381
0.00418552
0.00383255
0.00341837
0.00299122
0.00260716
0.00230579
0.00209629
0.00196195
0.00187885
0.00183366
0.00182028
0.00183164
0.00186308
0.00191059
0.00196912
0.00204403
0.00213267
0.00223215
0.00233509
0.00242497
0.00248625
0.00246414
0.00247658
0.00242428
0.00117758
0.00182951
0.00192605
0.00199728
0.00206792
0.00187903
0.0017323
0.00166497
0.00158316
0.00146941
0.0013273
0.00117463
0.00102827
0.000901847
0.000802116
0.000728979
0.000675447
0.000634992
0.000604307
0.00058263
0.000569983
0.000565867
0.00056917
0.00057868
0.000593579
0.000613143
0.000636589
0.000663965
0.000695556
0.000731972
0.000774399
0.000822178
0.000875391
0.000934627
0.00100041
0.00107234
0.00116116
0.00118397
0.0011512
0.0010786
0.000999191
)
;

boundaryField
{
    floor
    {
        type            nutkWallFunction;
        Cmu             0.09;
        kappa           0.41;
        E               9.8;
        value           nonuniform List<scalar> 
29
(
0.000131802
5.58783e-05
6.72853e-05
7.66157e-05
7.7999e-05
7.59969e-05
7.28572e-05
6.81984e-05
6.33569e-05
5.89083e-05
5.4938e-05
5.14067e-05
4.8258e-05
4.54453e-05
4.29155e-05
4.05806e-05
3.83277e-05
3.60006e-05
3.4561e-05
3.10042e-05
3.10041e-05
4.34161e-05
5.1725e-05
5.81136e-05
0.000131802
5.58783e-05
5.79754e-05
0.000108339
0.000163294
)
;
    }
    ceiling
    {
        type            nutkWallFunction;
        Cmu             0.09;
        kappa           0.41;
        E               9.8;
        value           nonuniform List<scalar> 
43
(
0.000214619
0.000225195
0.000232964
0.000240731
0.000220168
0.000204024
0.000196566
0.000187455
0.000174694
0.000158594
0.000141081
0.000124046
0.000109108
9.71528e-05
8.82746e-05
8.17093e-05
7.67063e-05
7.28858e-05
7.01725e-05
6.85836e-05
6.80654e-05
6.84807e-05
6.96755e-05
7.15426e-05
7.3986e-05
7.69019e-05
8.02903e-05
8.41797e-05
8.86373e-05
9.37975e-05
9.95691e-05
0.000105951
0.000113003
0.000120773
0.000129204
0.000139524
0.000142161
0.000138372
0.000129934
0.00012063
0.000344801
0.00040548
0.000246597
)
;
    }
    sWall
    {
        type            nutkWallFunction;
        Cmu             0.09;
        kappa           0.41;
        E               9.8;
        value           uniform 0.000214679;
    }
    nWall
    {
        type            nutkWallFunction;
        Cmu             0.09;
        kappa           0.41;
        E               9.8;
        value           nonuniform List<scalar> 6(9.84605e-05 0.000103154 0.000119246 0.000139236 0.000141434 0.000120637);
    }
    sideWalls
    {
        type            empty;
    }
    glass1
    {
        type            nutkWallFunction;
        Cmu             0.09;
        kappa           0.41;
        E               9.8;
        value           nonuniform List<scalar> 9(0.000130034 0.000174546 0.000210477 0.000244254 0.000278092 0.000313503 0.000346197 0.000353136 0.000345232);
    }
    glass2
    {
        type            nutkWallFunction;
        Cmu             0.09;
        kappa           0.41;
        E               9.8;
        value           nonuniform List<scalar> 2(0.000180165 0.000168424);
    }
    sun
    {
        type            nutkWallFunction;
        Cmu             0.09;
        kappa           0.41;
        E               9.8;
        value           nonuniform List<scalar> 
14
(
0.000129931
0.000141335
0.000143972
0.000150597
0.000156733
0.000162529
0.000168317
0.000173622
0.000177188
0.000178292
0.000176274
0.000170666
0.000161124
0.000147674
)
;
    }
    heatsource1
    {
        type            nutkWallFunction;
        Cmu             0.09;
        kappa           0.41;
        E               9.8;
        value           nonuniform List<scalar> 3(7.2509e-05 8.75773e-05 9.84594e-05);
    }
    heatsource2
    {
        type            nutkWallFunction;
        Cmu             0.09;
        kappa           0.41;
        E               9.8;
        value           nonuniform List<scalar> 4(0.00013465 8.79801e-05 8.79801e-05 0.000141225);
    }
    Table_master
    {
        type            nutkWallFunction;
        Cmu             0.09;
        kappa           0.41;
        E               9.8;
        value           nonuniform List<scalar> 9(9.73554e-05 8.58134e-05 7.63311e-05 6.85575e-05 6.21471e-05 5.68174e-05 5.23581e-05 4.86379e-05 4.56134e-05);
    }
    Table_slave
    {
        type            nutkWallFunction;
        Cmu             0.09;
        kappa           0.41;
        E               9.8;
        value           nonuniform List<scalar> 9(0.000110258 0.000100837 9.40776e-05 8.8894e-05 8.44223e-05 8.02001e-05 7.60992e-05 7.17387e-05 6.66186e-05);
    }
    inlet
    {
        type            calculated;
        value           uniform 0.000100623;
    }
    outlet
    {
        type            calculated;
        value           nonuniform List<scalar> 2(0.00182951 0.00192605);
    }
}


// ************************************************************************* //
