/*--------------------------------*- C++ -*----------------------------------*\
  =========                 |
  \\      /  F ield         | OpenFOAM: The Open Source CFD Toolbox
   \\    /   O peration     | Website:  https://openfoam.org
    \\  /    A nd           | Version:  6
     \\/     M anipulation  |
\*---------------------------------------------------------------------------*/
FoamFile
{
    version     2.0;
    format      ascii;
    class       volScalarField;
    location    "1300";
    object      nut;
}
// * * * * * * * * * * * * * * * * * * * * * * * * * * * * * * * * * * * * * //

dimensions      [0 2 -1 0 0 0 0];

internalField   nonuniform List<scalar> 
459
(
0.00106537
0.00116151
0.00118358
0.00124008
0.00129243
0.00134183
0.00139094
0.00143778
0.00147064
0.00148323
0.00146954
0.00142532
0.00134849
0.00124118
0.00111514
0.000464503
0.000554615
0.000626995
0.000633644
0.000616094
0.000590435
0.00055433
0.000517368
0.000483682
0.000453812
0.000427402
0.000403981
0.00038318
0.000364572
0.000347493
0.000331101
0.000314232
0.000303623
0.00027794
0.00145047
0.00343698
0.00325132
0.00377051
0.00427983
0.00479053
0.00523422
0.00558045
0.0059025
0.0061707
0.0063484
0.00639795
0.00627407
0.00586951
0.00473372
0.00113538
0.000707379
0.000484235
0.00102221
0.00143386
0.00174617
0.00193151
0.00194168
0.00153284
0.00131688
0.00116404
0.00104737
0.000954966
0.000879771
0.000815379
0.00075528
0.000697095
0.000645612
0.000600397
0.00071327
0.000369159
0.00177119
0.00466345
0.00396567
0.0049344
0.00537997
0.00570481
0.00595954
0.00618535
0.0064477
0.00673194
0.00700484
0.00721613
0.00732025
0.00724
0.00675299
0.00517948
0.00117074
0.000909704
0.00132874
0.00173553
0.00213122
0.00242623
0.00239803
0.000787888
0.000696849
0.000622887
0.000562851
0.000513782
0.000473311
0.000439687
0.000411774
0.000389072
0.000420191
0.000483964
0.000806907
0.000431186
0.00207967
0.00596754
0.00391659
0.00515128
0.00548488
0.00556627
0.00563681
0.00576773
0.00598953
0.00628591
0.00662574
0.00693785
0.00717323
0.00726486
0.00716285
0.00660144
0.00442073
0.00136994
0.00164439
0.00210249
0.00260598
0.00305616
0.003368
0.00320957
0.000892163
0.000816473
0.000762874
0.000722377
0.000687895
0.000655365
0.000623992
0.000590738
0.000551758
0.000518254
0.000522826
0.00094013
0.000480553
0.00239445
0.0076698
0.00423598
0.00491381
0.00536989
0.0053215
0.00528112
0.00538372
0.00559219
0.00589498
0.00626999
0.00661284
0.00685335
0.0069473
0.00689552
0.00667286
0.00610661
0.00517635
0.00486235
0.00481542
0.00486725
0.00492824
0.00493997
0.00478938
0.00407668
0.00373567
0.00354163
0.00339211
0.00323191
0.00300093
0.00267415
0.0022678
0.00181062
0.00135337
0.00099748
0.000970576
0.000655915
0.000594737
0.000717207
0.000805463
0.00272893
0.00953808
0.0058296
0.00475729
0.00519724
0.00534002
0.00520544
0.00530089
0.00547331
0.00575346
0.00611813
0.00647522
0.00671415
0.00676888
0.00665481
0.00645688
0.00626975
0.00615202
0.00616483
0.00619577
0.00617303
0.00608779
0.00594352
0.00572824
0.00540155
0.0051091
0.00484944
0.00459878
0.00434315
0.00407154
0.00372776
0.00329347
0.00276663
0.00217796
0.00164443
0.0012038
0.000916652
0.000780154
0.00110736
0.0008427
0.00304297
0.0108881
0.00836087
0.00604908
0.00564759
0.00567615
0.00553687
0.00545849
0.00554166
0.00580774
0.00619189
0.00656674
0.00679451
0.00679973
0.0066183
0.00640413
0.00635892
0.00654099
0.00676093
0.00683266
0.00673065
0.00650403
0.00619595
0.0058362
0.00545524
0.00510474
0.00478717
0.004493
0.00422144
0.00397943
0.00376846
0.00349179
0.00309509
0.00260418
0.00212345
0.00167601
0.00135797
0.00126591
0.00129081
0.000964442
0.00311091
0.00987982
0.00857327
0.00759898
0.00700495
0.00634161
0.00578658
0.00555441
0.00566013
0.00601885
0.00648245
0.00687671
0.00704973
0.00695183
0.00667948
0.00647464
0.00656925
0.00686516
0.00698461
0.0068435
0.00651452
0.00607034
0.00557481
0.00508924
0.00466229
0.00431001
0.00401869
0.00377743
0.00358661
0.0034525
0.00338181
0.00335246
0.0031702
0.00286957
0.00260288
0.00248146
0.00261159
0.00302611
0.00368906
0.00149703
0.00303604
0.00362527
0.00409471
0.00424217
0.00425436
0.00435435
0.00464123
0.00514232
0.00581256
0.00651983
0.00709799
0.00740314
0.00733981
0.00697614
0.00659405
0.00652997
0.00659618
0.00659047
0.00638033
0.00596874
0.0054296
0.00484757
0.00430382
0.00385163
0.00350232
0.00323646
0.00302877
0.00286228
0.00272622
0.00261116
0.00250752
0.00241125
0.00233665
0.00228151
0.00226437
0.00227851
0.00226333
0.00216507
0.00201721
0.00139912
0.00182705
0.00325859
0.00451625
0.00556501
0.00641948
0.00718841
0.00778691
0.00808918
0.00805458
0.00770309
0.00708622
0.00639379
0.0059748
0.00581591
0.00563524
0.00530697
0.00483825
0.00429632
0.00375153
0.00327078
0.00289676
0.00262702
0.00243845
0.00230683
0.00221523
0.00215377
0.0021168
0.00210119
0.00210755
0.00213689
0.00217413
0.00221507
0.00225148
0.00225808
0.00219454
0.00204927
0.00183732
0.00114619
0.00212768
0.00456391
0.00625954
0.00705715
0.00759801
0.00797561
0.00794235
0.00744362
0.00668378
0.00587318
0.00519341
0.00470089
0.0043659
0.00405811
0.00368787
0.00327182
0.00286049
0.00250334
0.00222825
0.00203513
0.00190352
0.00181697
0.00176789
0.00174869
0.0017536
0.001779
0.00182177
0.00187778
0.00195145
0.00204035
0.00214135
0.00224718
0.00234156
0.00240545
0.00239039
0.0024067
0.00237661
0.00116559
0.00183005
0.00192718
0.00199905
0.00206873
0.00187725
0.00172607
0.00165435
0.00158059
0.00147307
0.00133984
0.00118858
0.00103894
0.000906799
0.000802047
0.000726098
0.000672186
0.000633006
0.000604424
0.000584905
0.000573881
0.00057059
0.000573952
0.000582952
0.000597075
0.000615282
0.00063723
0.00066299
0.000692839
0.00072735
0.000767618
0.000813219
0.000864201
0.000921188
0.000984739
0.00105464
0.00113899
0.00116555
0.00113576
0.00106353
0.000986775
)
;

boundaryField
{
    floor
    {
        type            nutkWallFunction;
        Cmu             0.09;
        kappa           0.41;
        E               9.8;
        value           nonuniform List<scalar> 
29
(
0.000134185
5.51524e-05
6.66457e-05
7.57102e-05
7.65363e-05
7.43534e-05
7.11485e-05
6.66097e-05
6.19253e-05
5.76199e-05
5.37711e-05
5.03415e-05
4.72776e-05
4.45375e-05
4.20701e-05
3.97911e-05
3.75902e-05
3.53103e-05
3.38682e-05
3.0349e-05
3.03489e-05
4.26793e-05
5.08339e-05
5.72176e-05
0.000134185
5.51524e-05
5.76908e-05
0.000110041
0.000163444
)
;
    }
    ceiling
    {
        type            nutkWallFunction;
        Cmu             0.09;
        kappa           0.41;
        E               9.8;
        value           nonuniform List<scalar> 
43
(
0.00021468
0.00022532
0.000233157
0.000240819
0.000219972
0.000203333
0.000195384
0.000187167
0.000175106
0.000160022
0.000142691
0.000125297
0.000109697
9.71433e-05
8.79215e-05
8.13064e-05
7.64592e-05
7.29004e-05
7.04583e-05
6.90744e-05
6.86604e-05
6.90827e-05
7.02123e-05
7.19806e-05
7.42531e-05
7.69818e-05
8.01702e-05
8.38461e-05
8.80727e-05
9.29743e-05
9.84886e-05
0.000104611
0.000111405
0.000118924
0.000127131
0.000136953
0.000140029
0.000136579
0.000128171
0.000119166
0.000343882
0.000404788
0.000247003
)
;
    }
    sWall
    {
        type            nutkWallFunction;
        Cmu             0.09;
        kappa           0.41;
        E               9.8;
        value           uniform 0.00021474;
    }
    nWall
    {
        type            nutkWallFunction;
        Cmu             0.09;
        kappa           0.41;
        E               9.8;
        value           nonuniform List<scalar> 6(9.75554e-05 0.000102038 0.000116532 0.0001378 0.000140045 0.000119172);
    }
    sideWalls
    {
        type            empty;
    }
    glass1
    {
        type            nutkWallFunction;
        Cmu             0.09;
        kappa           0.41;
        E               9.8;
        value           nonuniform List<scalar> 9(0.000128488 0.000172778 0.000208643 0.000242472 0.000276439 0.000312016 0.000345007 0.000352107 0.000344309);
    }
    glass2
    {
        type            nutkWallFunction;
        Cmu             0.09;
        kappa           0.41;
        E               9.8;
        value           nonuniform List<scalar> 2(0.00017788 0.000166822);
    }
    sun
    {
        type            nutkWallFunction;
        Cmu             0.09;
        kappa           0.41;
        E               9.8;
        value           nonuniform List<scalar> 
14
(
0.000128391
0.000139563
0.000142114
0.000148617
0.000154615
0.00016025
0.000165828
0.000171127
0.000174834
0.000176252
0.00017471
0.000169718
0.000161006
0.000148743
)
;
    }
    heatsource1
    {
        type            nutkWallFunction;
        Cmu             0.09;
        kappa           0.41;
        E               9.8;
        value           nonuniform List<scalar> 3(7.16891e-05 8.68339e-05 9.75545e-05);
    }
    heatsource2
    {
        type            nutkWallFunction;
        Cmu             0.09;
        kappa           0.41;
        E               9.8;
        value           nonuniform List<scalar> 4(0.000136531 8.56314e-05 8.56314e-05 0.000140625);
    }
    Table_master
    {
        type            nutkWallFunction;
        Cmu             0.09;
        kappa           0.41;
        E               9.8;
        value           nonuniform List<scalar> 9(9.5431e-05 8.43397e-05 7.52016e-05 6.76877e-05 6.14735e-05 5.62931e-05 5.19472e-05 4.83077e-05 4.53246e-05);
    }
    Table_slave
    {
        type            nutkWallFunction;
        Cmu             0.09;
        kappa           0.41;
        E               9.8;
        value           nonuniform List<scalar> 9(0.000107952 9.88817e-05 9.23995e-05 8.74664e-05 8.324e-05 7.92295e-05 7.53389e-05 7.1189e-05 6.62883e-05);
    }
    inlet
    {
        type            calculated;
        value           uniform 0.000100623;
    }
    outlet
    {
        type            calculated;
        value           nonuniform List<scalar> 2(0.00183005 0.00192718);
    }
}


// ************************************************************************* //
