/*--------------------------------*- C++ -*----------------------------------*\
  =========                 |
  \\      /  F ield         | OpenFOAM: The Open Source CFD Toolbox
   \\    /   O peration     | Website:  https://openfoam.org
    \\  /    A nd           | Version:  6
     \\/     M anipulation  |
\*---------------------------------------------------------------------------*/
FoamFile
{
    version     2.0;
    format      ascii;
    class       volScalarField;
    location    "100";
    object      nut;
}
// * * * * * * * * * * * * * * * * * * * * * * * * * * * * * * * * * * * * * //

dimensions      [0 2 -1 0 0 0 0];

internalField   nonuniform List<scalar> 
459
(
0.000744792
0.00076023
0.000614521
0.000606226
0.000623621
0.000643292
0.000664223
0.000686557
0.000710606
0.000733196
0.000752787
0.000767475
0.000775038
0.000772633
0.000753463
0.00033289
0.000376028
0.000266155
0.000209776
0.000190495
0.000187128
0.000194509
0.000209451
0.000228945
0.000251849
0.000277367
0.000304815
0.000332857
0.000363478
0.000403761
0.000450141
0.000464388
0.000433533
0.000375372
0.00135358
0.00278391
0.00168654
0.0025895
0.00292517
0.00307654
0.00321912
0.00335488
0.00346965
0.00355761
0.00359452
0.00354093
0.00333047
0.0028521
0.00197286
0.000818626
0.000564861
0.000416578
0.0013101
0.000742338
0.000480421
0.000339132
0.000295948
0.0003244
0.000346342
0.000390103
0.000457685
0.000549626
0.000669294
0.000822708
0.000998345
0.0011897
0.00147374
0.00127094
0.000926148
0.000450695
0.00187803
0.00493979
0.00215781
0.00304108
0.00425068
0.00463954
0.00483876
0.00498924
0.00509599
0.00516165
0.00515626
0.00503309
0.00471904
0.00411288
0.00313942
0.00192616
0.000859688
0.000620255
0.0016547
0.00122843
0.000883264
0.000674049
0.000473579
0.00021579
0.000230547
0.00027197
0.000324424
0.000382698
0.000444202
0.000510588
0.000588307
0.000691148
0.00197533
0.00186676
0.00139037
0.00072754
0.00235234
0.00741508
0.00333648
0.00298961
0.00454228
0.0053113
0.00566486
0.00590312
0.00608152
0.00621734
0.00629665
0.00627585
0.00608041
0.00559718
0.00469593
0.00334243
0.00185505
0.000953933
0.00224282
0.00252947
0.00224599
0.00188515
0.0015198
0.00113355
0.000781501
0.000775905
0.000770582
0.000765633
0.000763609
0.000768459
0.000785817
0.000823615
0.00089474
0.00264679
0.00267201
0.00222922
0.000982657
0.00277343
0.00988604
0.00538354
0.00361313
0.00425742
0.00514053
0.00573641
0.00616756
0.00651153
0.0068155
0.00709892
0.0073401
0.00750048
0.00752748
0.0073658
0.00698339
0.00641421
0.0057805
0.00538935
0.00520422
0.00511328
0.00507127
0.0049991
0.00484644
0.00466865
0.0045527
0.00441154
0.00423729
0.00403517
0.00382434
0.00363903
0.00351727
0.0034806
0.00353963
0.00341387
0.00321338
0.0028231
0.00117872
0.00102108
0.000882303
0.003152
0.0119503
0.00826554
0.00557457
0.00456125
0.00458779
0.00509985
0.00568077
0.00620506
0.00671375
0.00723308
0.00774142
0.00820412
0.00857821
0.00881813
0.00888298
0.00874912
0.00843745
0.00803983
0.00766676
0.00743542
0.00730375
0.00718889
0.00706969
0.00693013
0.00676393
0.00655908
0.00630435
0.00598711
0.00560163
0.0051647
0.00472528
0.00434144
0.00403311
0.00377002
0.00350604
0.00315396
0.00266428
0.00196221
0.00092548
0.00346122
0.0129653
0.0109029
0.00824346
0.00631736
0.00507388
0.00474783
0.00496152
0.00538533
0.00593014
0.00659348
0.00732432
0.00805362
0.00870885
0.00923045
0.0095686
0.00968479
0.00958256
0.00932458
0.00901879
0.00875704
0.00855889
0.00840256
0.00826608
0.00812892
0.00797943
0.00781146
0.00761412
0.00736555
0.00703103
0.00657254
0.00598294
0.00532885
0.00472313
0.0042174
0.00376799
0.00328472
0.00272931
0.00209164
0.000951885
0.00345599
0.0112388
0.0101545
0.00959642
0.00812134
0.00661847
0.00560839
0.00508428
0.0049409
0.00512411
0.00557283
0.00625681
0.00709222
0.00794995
0.00871331
0.0092994
0.00963921
0.00974516
0.0096614
0.00947033
0.00925485
0.00906006
0.00889572
0.008756
0.00862993
0.0085109
0.008398
0.00828993
0.00817881
0.00804212
0.00783247
0.00747479
0.00690392
0.00616057
0.0053858
0.00469382
0.00403959
0.00346406
0.00301298
0.00153022
0.00328066
0.00376677
0.00990546
0.0104315
0.00897155
0.00743938
0.00626537
0.00548814
0.00504965
0.00489258
0.00499832
0.00537478
0.00598452
0.0067355
0.0075077
0.00818947
0.00869773
0.00900245
0.00911685
0.00909138
0.00898941
0.00885977
0.0087292
0.00860859
0.00849926
0.0084016
0.0083188
0.00825596
0.00821811
0.00820669
0.00821314
0.00820966
0.00814296
0.00795852
0.00770028
0.00735406
0.00688732
0.00610673
0.00583946
0.00167349
0.02122
0.0188031
0.0107652
0.00822261
0.00696959
0.00618831
0.00571463
0.00547557
0.0054225
0.00552051
0.00574498
0.00607745
0.00648609
0.00692714
0.00734869
0.00770105
0.00795063
0.00809133
0.00814158
0.00812929
0.00807922
0.00800835
0.00792836
0.00784818
0.00777574
0.00771868
0.00768431
0.00767844
0.00770213
0.00774514
0.00777692
0.00774472
0.0075903
0.00726754
0.00675527
0.00603525
0.00510114
0.00164169
0.00711191
0.0144848
0.0102359
0.00789493
0.00663853
0.00592639
0.00554573
0.00539046
0.005394
0.00550725
0.00569116
0.00591655
0.00616379
0.00641808
0.00666303
0.00687988
0.00705253
0.00717371
0.00724629
0.00727948
0.00728161
0.00724981
0.00719695
0.00713398
0.00706898
0.00700735
0.00695188
0.00690255
0.00685573
0.00680258
0.00672717
0.00660606
0.00641238
0.00612105
0.00571263
0.00514596
0.00478863
0.00158709
0.00150302
0.00198585
0.0049464
0.00446233
0.00372549
0.00312103
0.00267215
0.00234199
0.00209748
0.00191637
0.00178435
0.00169177
0.00163092
0.00159475
0.00157668
0.00157083
0.00157217
0.00157656
0.00158068
0.00158227
0.00158026
0.00157457
0.00156594
0.00155631
0.0015455
0.00153371
0.00152128
0.00150851
0.00149561
0.00148257
0.00146912
0.00145471
0.0014385
0.0014195
0.00139671
0.00136901
0.00133475
0.00129301
0.00129465
0.00115044
)
;

boundaryField
{
    floor
    {
        type            nutkWallFunction;
        Cmu             0.09;
        kappa           0.41;
        E               9.8;
        value           nonuniform List<scalar> 
29
(
9.1254e-05
3.78313e-05
4.35832e-05
2.87193e-05
2.07843e-05
1.80043e-05
1.75123e-05
1.85821e-05
2.07338e-05
2.35108e-05
2.67329e-05
3.02768e-05
3.40396e-05
3.78415e-05
4.19467e-05
4.7277e-05
5.33273e-05
5.51615e-05
5.11548e-05
4.35098e-05
4.35098e-05
5.33698e-05
8.81286e-05
0.000118728
9.1254e-05
3.78312e-05
4.89282e-05
7.48577e-05
0.000115276
)
;
    }
    ceiling
    {
        type            nutkWallFunction;
        Cmu             0.09;
        kappa           0.41;
        E               9.8;
        value           nonuniform List<scalar> 
43
(
0.00017867
0.000232235
0.000538679
0.000490198
0.000415426
0.000352995
0.000305846
0.000270649
0.000244249
0.000224484
0.000209951
0.000199688
0.00019291
0.000188866
0.00018684
0.000186181
0.000186329
0.000186818
0.000187276
0.000187452
0.000187225
0.000186587
0.000185618
0.000184536
0.000183322
0.000181998
0.0001806
0.000179164
0.000177711
0.000176242
0.000174725
0.000173097
0.000171265
0.000169115
0.000166531
0.000163384
0.000159484
0.000154717
0.000154904
0.000138306
0.000369409
0.000419398
0.000750262
)
;
    }
    sWall
    {
        type            nutkWallFunction;
        Cmu             0.09;
        kappa           0.41;
        E               9.8;
        value           uniform 0.000178707;
    }
    nWall
    {
        type            nutkWallFunction;
        Cmu             0.09;
        kappa           0.41;
        E               9.8;
        value           nonuniform List<scalar> 6(0.000106796 0.000111937 0.000115071 0.000194068 0.000187967 0.000138314);
    }
    sideWalls
    {
        type            empty;
    }
    glass1
    {
        type            nutkWallFunction;
        Cmu             0.09;
        kappa           0.41;
        E               9.8;
        value           nonuniform List<scalar> 9(9.01818e-05 0.000161786 0.000220444 0.000271948 0.000316746 0.000356417 0.000388457 0.000387932 0.00036982);
    }
    glass2
    {
        type            nutkWallFunction;
        Cmu             0.09;
        kappa           0.41;
        E               9.8;
        value           nonuniform List<scalar> 2(0.000181653 0.000197655);
    }
    sun
    {
        type            nutkWallFunction;
        Cmu             0.09;
        kappa           0.41;
        E               9.8;
        value           nonuniform List<scalar> 
14
(
9.01997e-05
9.20791e-05
7.41546e-05
7.312e-05
7.52883e-05
7.77314e-05
8.03212e-05
8.30739e-05
8.60259e-05
8.87881e-05
9.11754e-05
9.29602e-05
9.38772e-05
9.35845e-05
)
;
    }
    heatsource1
    {
        type            nutkWallFunction;
        Cmu             0.09;
        kappa           0.41;
        E               9.8;
        value           nonuniform List<scalar> 3(0.000141588 0.000123231 0.000106794);
    }
    heatsource2
    {
        type            nutkWallFunction;
        Cmu             0.09;
        kappa           0.41;
        E               9.8;
        value           nonuniform List<scalar> 4(9.91392e-05 6.79347e-05 6.79347e-05 0.000104064);
    }
    Table_master
    {
        type            nutkWallFunction;
        Cmu             0.09;
        kappa           0.41;
        E               9.8;
        value           nonuniform List<scalar> 9(2.16406e-05 2.37313e-05 2.95123e-05 3.66743e-05 4.44612e-05 5.25197e-05 6.10626e-05 7.08912e-05 8.36564e-05);
    }
    Table_slave
    {
        type            nutkWallFunction;
        Cmu             0.09;
        kappa           0.41;
        E               9.8;
        value           nonuniform List<scalar> 9(9.46659e-05 9.39905e-05 9.33467e-05 9.27468e-05 9.25014e-05 9.30902e-05 9.51943e-05 9.9758e-05 0.000108281);
    }
    inlet
    {
        type            calculated;
        value           uniform 0.02122;
    }
    outlet
    {
        type            calculated;
        value           nonuniform List<scalar> 2(0.00150302 0.00198585);
    }
}


// ************************************************************************* //
