/*--------------------------------*- C++ -*----------------------------------*\
  =========                 |
  \\      /  F ield         | OpenFOAM: The Open Source CFD Toolbox
   \\    /   O peration     | Website:  https://openfoam.org
    \\  /    A nd           | Version:  6
     \\/     M anipulation  |
\*---------------------------------------------------------------------------*/
FoamFile
{
    version     2.0;
    format      ascii;
    class       surfaceScalarField;
    location    "1400";
    object      phi;
}
// * * * * * * * * * * * * * * * * * * * * * * * * * * * * * * * * * * * * * //

dimensions      [1 0 -1 0 0 0 0];

internalField   nonuniform List<scalar> 
852
(
-0.00295893
0.00301631
-0.00399839
0.00103947
-0.0047982
0.000799811
-0.00542104
0.000622841
-0.00583335
0.000412309
-0.0060069
0.000173556
-0.00591343
-9.34691e-05
-0.00553105
-0.000382379
-0.00487602
-0.000655029
-0.00401388
-0.000862139
-0.00304496
-0.000968915
-0.00208116
-0.000963798
-0.00122465
-0.000856515
-0.000537098
-0.000687547
-0.000535422
-0.00078446
0.000787469
-0.000543092
-0.000241366
3.99464e-05
-0.000583037
0.000534689
-0.000494742
0.000878391
-0.000343701
0.00110293
-0.000224534
0.00122881
-0.000125884
0.00129015
-6.13311e-05
0.00132435
-3.42039e-05
0.00134562
-2.12653e-05
0.00135796
-1.23379e-05
0.00136297
-5.01563e-06
0.00135953
3.44741e-06
0.00134062
1.8909e-05
0.00128621
5.441e-05
0.00116258
0.000123638
0.000958648
0.00020393
0.000709856
0.000248793
0.000713898
-0.00212014
0.00529107
-0.00314055
0.00205987
-0.00396955
0.00162882
-0.00458893
0.00124222
-0.0049998
0.000823188
-0.00518292
0.000356675
-0.00510675
-0.000169636
-0.00475372
-0.000735407
-0.00415271
-0.00125604
-0.00337989
-0.00163496
-0.00253369
-0.00181511
-0.00170883
-0.00178866
-0.00098575
-0.00157959
-0.000438091
-0.0012352
-0.000171211
-0.0008023
0.000116499
-0.000287759
0.000116449
0.000238052
0.00055819
0.000631365
-0.000634679
0.000893614
-0.000845284
0.00111266
-0.000713791
0.00128728
-0.000518315
0.0014003
-0.000337552
0.0014207
-0.000146283
0.0014258
-6.64263e-05
0.00143195
-4.03579e-05
0.00143712
-2.64311e-05
0.00144056
-1.57746e-05
0.00144247
-6.92299e-06
0.00144229
3.62011e-06
0.00143707
2.41401e-05
0.00140023
9.12512e-05
0.00124106
0.000282808
0.000962958
0.000482031
0.000614999
0.000596753
0.00133916
-0.00149032
0.00701796
-0.00237345
0.002943
-0.00311447
0.00236984
-0.00365055
0.0017783
-0.00401573
0.00118837
-0.00418558
0.000526529
-0.00410572
-0.000249493
-0.00375072
-0.00109041
-0.00317534
-0.00183142
-0.00247346
-0.00233683
-0.00174025
-0.00254833
-0.00104819
-0.00248071
-0.000449183
-0.0021786
2.2481e-05
-0.00170687
0.000332633
-0.00111245
0.000472102
-0.000427227
0.000588553
0.00148291
-0.000915095
0.0016996
-0.000851369
0.00165071
-0.000796392
0.00163338
-0.000696462
0.00165339
-0.00053832
0.00169187
-0.000376029
0.00154574
0.00147947
0.00143927
0.00141299
0.00139737
0.0013906
0.00139438
0.00141867
0.00151008
0.00124877
0.000544119
0.000927231
0.000803569
0.000523959
0.00100003
0.00187862
-0.00104367
0.00836796
-0.00174619
0.00364552
-0.0022446
0.00286825
-0.0026041
0.0021378
-0.00285598
0.00144025
-0.00296326
0.000633816
-0.00282886
-0.000383888
-0.0024369
-0.00148238
-0.00188932
-0.00237899
-0.00128871
-0.00293744
-0.000710625
-0.00312642
-0.000194559
-0.00299677
0.000243714
-0.00261687
0.000604823
-0.00206797
0.00092563
-0.00143326
0.00128664
-0.000788239
0.00212632
-0.00025112
0.00247104
-0.000336288
0.00212725
-0.000571303
0.00199388
-0.000717999
0.00186466
-0.000667163
0.00174623
-0.000578038
0.00166855
-0.000460636
0.00160451
-0.000311987
0.00173485
-0.000130487
0.00181207
-7.73739e-05
0.00187364
-6.17213e-05
0.00192233
-4.88411e-05
0.00194513
-2.29573e-05
0.00192109
2.38947e-05
0.00182471
9.62227e-05
0.00162231
0.000202248
0.00125971
0.000362451
0.00110351
0.000700317
0.000798169
0.00110891
0.000334549
0.00146365
0.00223335
-0.000729263
0.00946278
-0.00126332
0.00417957
-0.00138608
0.00299103
-0.0014801
0.00223182
-0.00154265
0.0015028
-0.0015039
0.000595066
-0.00122893
-0.000658855
-0.000787639
-0.00192367
-0.000311789
-0.00285484
0.000119909
-0.00336913
0.000473189
-0.0034797
0.000743357
-0.00326694
0.00095221
-0.00282572
0.0011292
-0.00224496
0.00130806
-0.00161212
0.00153615
-0.00101633
0.00185673
-0.000571702
0.00195944
-0.000438996
0.00187953
-0.000491386
0.0017047
-0.000543175
0.00154566
-0.000508117
0.00140714
-0.000439514
0.00130275
-0.000356247
0.00124856
-0.000257799
0.00128164
-0.000163564
0.00132599
-0.000121726
0.00137587
-0.000111596
0.00142914
-0.00010211
0.00147672
-7.05353e-05
0.0014992
1.40974e-06
0.00147461
0.000120816
0.0013894
0.000287459
0.00124362
0.000508229
0.00110647
0.000837468
0.000950075
0.00126531
0.0005964
0.00181732
0.000492809
0.00233694
-0.000987424
0.00148003
-0.00145055
0.000462922
-0.00140204
-0.000631391
0.0105097
-0.000998277
0.00454646
-0.000604618
0.00259737
-0.000312038
0.00193924
-9.81277e-05
0.00128889
0.000226322
0.000270618
0.000707626
-0.00114016
0.00114533
-0.00236137
0.00145774
-0.00316726
0.00163115
-0.00354254
0.00169128
-0.00353982
0.00167036
-0.00324601
0.00160102
-0.00275638
0.00152073
-0.00216468
0.00146258
-0.00155396
0.0014513
-0.00100504
0.0014802
-0.000600603
0.00144747
-0.000406271
0.00132332
-0.000367234
0.00114494
-0.000364793
0.000979352
-0.000342526
0.000844973
-0.000305135
0.000750084
-0.000261356
0.000705754
-0.000213468
0.000716223
-0.000174033
0.000757589
-0.000163091
0.000816621
-0.000170627
0.000888348
-0.000173838
0.000968095
-0.000150281
0.00104672
-7.72139e-05
0.00110586
6.16798e-05
0.00113574
0.000257576
0.00114534
0.000498626
0.00117826
0.000804555
0.00128081
0.00116276
0.00146713
0.001631
0.00191096
0.00189311
0.00216596
0.00122503
0.00177898
0.0008499
0.00043521
-0.000717637
0.0116874
-0.000603881
0.00443271
0.000472131
0.00152136
0.00114959
0.00126178
0.00172428
0.000714207
0.00237039
-0.000375495
0.00292374
-0.00169351
0.00322875
-0.00266637
0.00327972
-0.00321822
0.0031226
-0.00338541
0.0028216
-0.00323882
0.00244082
-0.00286522
0.00203523
-0.00235079
0.00165316
-0.00178261
0.0013273
-0.0012281
0.00107753
-0.000755265
0.000900697
-0.000423771
0.000750147
-0.00025572
0.000590351
-0.000207437
0.000428519
-0.00020296
0.000287319
-0.000201325
0.000178116
-0.00019593
0.000105731
-0.000188971
7.49696e-05
-0.000182706
8.47985e-05
-0.000183861
0.000122064
-0.000200355
0.00017646
-0.000225023
0.000246192
-0.000243568
0.000335559
-0.000239648
0.000451121
-0.000192775
0.000587459
-7.46576e-05
0.000729167
0.000115869
0.000881625
0.000346169
0.00108447
0.000601713
0.00138559
0.00086164
0.00185028
0.00116632
0.00252422
0.00121917
0.00304577
0.00070348
0.00306472
0.000830952
0.00356312
0.00260404
0.00959744
0.00328158
0.00375517
0.00344529
0.00135765
0.00389757
0.000809501
0.00458901
2.27707e-05
0.00528134
-0.00106783
0.00556283
-0.00197499
0.00543719
-0.00254074
0.00499254
-0.00277357
0.00433383
-0.00272671
0.00356356
-0.00246854
0.0027681
-0.00206977
0.00200808
-0.00159077
0.00133841
-0.00111294
0.000785968
-0.000675662
0.000372536
-0.000341833
9.67858e-05
-0.000148019
-8.70501e-05
-7.18836e-05
-0.000228322
-6.61636e-05
-0.000347838
-8.34433e-05
-0.000447013
-0.000102149
-0.000523541
-0.000119401
-0.000576041
-0.00013647
-0.000603897
-0.00015485
-0.000610102
-0.000177655
-0.000603449
-0.000207008
-0.000590108
-0.000238363
-0.000569922
-0.000263754
-0.000535668
-0.000273901
-0.000470263
-0.000258179
-0.000342199
-0.000202722
-0.000146583
-7.97468e-05
9.42142e-05
0.000105373
0.000387213
0.000308715
0.000750169
0.000498685
0.00122805
0.000688437
0.00173155
0.000715672
0.00187039
0.000564643
0.000928038
0.00177331
0.00475252
0.0101618
0.0139098
0.012234
0.00303348
0.0113329
0.00171059
0.0105977
0.000757965
0.00970485
-0.000174993
0.00855521
-0.000825336
0.00725612
-0.00124164
0.00590197
-0.00141942
0.00456194
-0.00138668
0.00329923
-0.00120583
0.00216379
-0.000934322
0.00116716
-0.000594149
0.000350577
-0.000296348
-0.000252099
-7.29852e-05
-0.000627883
3.39513e-05
-0.000831573
5.5671e-05
-0.000946765
4.33092e-05
-0.00103022
1.72955e-05
-0.00110389
-9.77555e-06
-0.00117151
-3.45234e-05
-0.00123249
-5.84285e-05
-0.00128651
-8.24418e-05
-0.00133502
-0.000106343
-0.0013823
-0.000130373
-0.0014357
-0.000153615
-0.00150251
-0.000171553
-0.00158968
-0.000176582
-0.0017053
-0.000158272
-0.00185985
-0.000103628
-0.00206271
1.33139e-07
-0.00230473
0.000162272
-0.00259512
0.000395772
-0.00300436
0.000717949
-0.0036363
0.00113063
-0.00456375
0.00161588
-0.00591339
0.00206531
-0.00762368
0.00227493
-0.0074454
0.00159502
-0.00240357
0.00510355
0.00455854
0.00409679
0.00271735
0.00449507
0.000359685
0.00453371
-0.000213624
0.00412438
-0.000416009
0.00343846
-0.000555719
0.00258961
-0.000570569
0.00167035
-0.000467418
0.000754394
-0.000289874
-0.000103663
-7.62645e-05
-0.000799408
0.000101596
-0.00125445
0.000158694
-0.0014995
0.000172068
-0.00161878
0.000153233
-0.00168455
0.000121434
-0.00173061
8.93699e-05
-0.00177314
5.98306e-05
-0.00181754
3.46204e-05
-0.00186585
1.37933e-05
-0.00192005
-4.22741e-06
-0.00198058
-2.19088e-05
-0.00204785
-3.90748e-05
-0.002124
-5.42258e-05
-0.0022113
-6.63138e-05
-0.00231096
-7.1891e-05
-0.00242233
-6.52147e-05
-0.00254179
-3.88112e-05
-0.00266195
1.65323e-05
-0.00277098
0.000109164
-0.00286363
0.00025493
-0.00294514
0.000477277
-0.0030172
0.00079001
-0.00307549
0.00118892
-0.00308039
0.00162079
-0.00296189
0.00194682
-0.00226782
0.00158086
-0.000577159
-9.56334e-05
-0.00290242
-0.000441682
0.00505678
0.00085375
0.00142192
0.000818192
0.000395246
0.000544322
6.02471e-05
0.000164643
-3.63303e-05
-0.00035893
-3.2147e-05
-0.000947464
1.79635e-05
-0.00149595
8.10691e-05
-0.00192445
0.000138624
-0.00218326
0.000182548
-0.00228446
0.000202796
-0.0023163
0.000190537
-0.0023102
0.000165962
-0.00229515
0.000138183
-0.00228691
0.000113197
-0.00228972
9.21829e-05
-0.00230359
7.36978e-05
-0.00232601
5.70412e-05
-0.00235409
4.18733e-05
-0.00238631
2.79956e-05
-0.00242376
1.55396e-05
-0.00246652
3.69343e-06
-0.00251418
-6.57427e-06
-0.00256604
-1.44529e-05
-0.00261954
-1.83838e-05
-0.00266921
-1.55456e-05
-0.00270588
-2.13716e-06
-0.00271855
2.91967e-05
-0.00269623
8.68441e-05
-0.00261887
0.000177575
-0.00245606
0.000314462
-0.00217946
0.000513413
-0.00176861
0.000778075
-0.00118029
0.00103246
-0.000114357
0.000880889
0.00176943
-0.000302931
0.00337784
-0.00170404
0.000561039
-0.00794342
-0.0107977
-0.00569683
-0.00425198
-0.00384258
-0.00377305
-0.00380318
-0.00383142
-0.00381125
-0.00372926
-0.0035908
-0.00340933
-0.00320842
-0.00302046
-0.00285763
-0.00272304
-0.00261379
-0.00252585
-0.00245662
-0.0024042
-0.00236705
-0.00234383
-0.00233307
-0.00233413
-0.00234541
-0.00236449
-0.00238741
-0.00240739
-0.00241382
-0.00238878
-0.00230594
-0.00213221
-0.00182145
-0.00131161
-0.000536989
0.000492079
0.00136945
0.00106253
-0.000646866
)
;

boundaryField
{
    floor
    {
        type            calculated;
        value           nonuniform List<scalar> 
29
(
0
0
0
0
0
0
0
0
0
0
0
0
0
0
0
0
0
0
0
0
-4.03959e-06
-1.02608e-05
-1.54985e-05
-2.01798e-05
-1.6746e-06
-3.00781e-06
-8.7705e-06
-9.62561e-06
-8.43495e-06
)
;
    }
    ceiling
    {
        type            calculated;
        value           nonuniform List<scalar> 
43
(
-4.66731e-05
-4.53969e-05
-4.41261e-05
-2.29318e-05
-1.41509e-05
-9.28702e-06
-6.19396e-06
-3.91305e-06
-2.2078e-06
-9.15055e-07
1.5914e-07
1.08303e-06
1.88668e-06
2.57355e-06
3.13672e-06
3.58883e-06
3.95236e-06
4.2428e-06
4.4658e-06
4.62383e-06
4.72284e-06
4.77224e-06
4.78151e-06
4.75797e-06
4.70543e-06
4.6305e-06
4.53704e-06
4.42657e-06
4.29978e-06
4.15588e-06
4.00387e-06
3.85092e-06
3.70288e-06
3.56735e-06
3.45699e-06
3.39683e-06
3.51951e-06
3.99377e-06
5.34898e-06
6.31501e-06
1.01955e-05
7.1594e-06
-5.65514e-05
)
;
    }
    sWall
    {
        type            calculated;
        value           uniform -0.000271632;
    }
    nWall
    {
        type            calculated;
        value           nonuniform List<scalar> 6(-4.87108e-05 -5.82649e-05 -6.319e-05 -7.83081e-05 -8.56122e-05 -9.21409e-05);
    }
    sideWalls
    {
        type            empty;
        value           nonuniform 0();
    }
    glass1
    {
        type            calculated;
        value           nonuniform List<scalar> 9(-5.73783e-05 -0.00015462 -0.000236565 -0.000306331 -0.00036556 -0.000415479 -0.000460099 -0.000514092 -0.000574521);
    }
    glass2
    {
        type            calculated;
        value           nonuniform List<scalar> 2(-0.000261363 -0.000289309);
    }
    sun
    {
        type            calculated;
        value           uniform 0;
    }
    heatsource1
    {
        type            calculated;
        value           nonuniform List<scalar> 3(2.0422e-07 2.04153e-07 2.0417e-07);
    }
    heatsource2
    {
        type            calculated;
        value           nonuniform List<scalar> 4(5.11974e-08 5.12822e-08 0 0);
    }
    Table_master
    {
        type            calculated;
        value           nonuniform List<scalar> 9(-1.5317e-07 -1.5326e-07 -1.53292e-07 -1.53314e-07 -1.5333e-07 -1.5334e-07 -1.53346e-07 -1.53342e-07 -1.53314e-07);
    }
    Table_slave
    {
        type            calculated;
        value           nonuniform List<scalar> 9(1.53051e-07 1.53072e-07 1.53054e-07 1.53038e-07 1.53031e-07 1.53034e-07 1.53048e-07 1.53087e-07 1.53165e-07);
    }
    inlet
    {
        type            calculated;
        value           uniform -0.00662861;
    }
    outlet
    {
        type            calculated;
        value           nonuniform List<scalar> 2(0.00826172 0.00289972);
    }
}


// ************************************************************************* //
