/*--------------------------------*- C++ -*----------------------------------*\
  =========                 |
  \\      /  F ield         | OpenFOAM: The Open Source CFD Toolbox
   \\    /   O peration     | Website:  https://openfoam.org
    \\  /    A nd           | Version:  6
     \\/     M anipulation  |
\*---------------------------------------------------------------------------*/
FoamFile
{
    version     2.0;
    format      ascii;
    class       volScalarField;
    location    "900";
    object      alphat;
}
// * * * * * * * * * * * * * * * * * * * * * * * * * * * * * * * * * * * * * //

dimensions      [1 -1 -1 0 0 0 0];

internalField   nonuniform List<scalar> 
459
(
0.00124053
0.00135341
0.00137843
0.00144412
0.00150512
0.00156275
0.00162014
0.00167429
0.00171171
0.001725
0.00170719
0.00165339
0.00156113
0.00143283
0.00128346
0.000540045
0.000643576
0.00072694
0.000735378
0.000715304
0.000685663
0.000643682
0.000600701
0.000561543
0.000526841
0.000496176
0.000468996
0.000444881
0.000423303
0.00040349
0.000384468
0.000364929
0.000353696
0.000324575
0.00168996
0.00401612
0.00379997
0.0044068
0.00500079
0.00559509
0.00610775
0.00651053
0.00688294
0.00719009
0.00738996
0.00744009
0.00729045
0.00682241
0.00553285
0.00130632
0.000820238
0.000562173
0.00118696
0.00166872
0.0020386
0.00226038
0.00227292
0.00179027
0.0015362
0.00135663
0.00121982
0.00111184
0.00102439
0.000949618
0.000880215
0.000813214
0.000753796
0.000701243
0.000841655
0.000434533
0.00206304
0.0054486
0.00463203
0.00576354
0.00627913
0.00665472
0.00694983
0.00721455
0.00752013
0.0078487
0.00816099
0.00839843
0.00850931
0.00840434
0.00783065
0.00599112
0.00135422
0.00104724
0.00153461
0.00201098
0.00248107
0.00283464
0.00280136
0.000913433
0.000807469
0.000721508
0.000651814
0.000594906
0.000548012
0.000509088
0.000476815
0.000450658
0.000487802
0.000563628
0.000956541
0.000509614
0.00242081
0.0069691
0.00457643
0.00601455
0.00639757
0.00649157
0.0065778
0.0067346
0.00699477
0.0073395
0.00773072
0.00808428
0.00834372
0.00843286
0.00829954
0.00763301
0.00507721
0.00158051
0.00189984
0.00243443
0.00302717
0.00356125
0.00393216
0.0037429
0.00103499
0.000947536
0.000885687
0.000838844
0.000798692
0.000760555
0.000723701
0.00068463
0.000638879
0.000598503
0.000606139
0.00112292
0.000567899
0.00278482
0.0089483
0.00495062
0.00574332
0.00626603
0.0062101
0.00617045
0.00629429
0.00653771
0.00689064
0.00732291
0.00771052
0.0079726
0.00806188
0.00798531
0.00771713
0.0070563
0.00598765
0.00562921
0.00558364
0.00565392
0.00573286
0.00574962
0.00556968
0.0047288
0.00432432
0.0040903
0.00390776
0.00371316
0.0034362
0.0030487
0.00257304
0.00204531
0.00152589
0.0011286
0.00113052
0.000775057
0.000701043
0.000842496
0.000946562
0.00317081
0.0111156
0.00680127
0.0055696
0.00608367
0.00624888
0.00608861
0.00619696
0.00639767
0.00672505
0.00714584
0.00754905
0.00780642
0.00784647
0.0076953
0.00745875
0.007248
0.00712469
0.00715123
0.00719464
0.00717114
0.00707041
0.00689612
0.0066338
0.00623745
0.00588235
0.00556939
0.00527204
0.00497363
0.00465911
0.00425829
0.00375105
0.00313839
0.00246145
0.00185819
0.00137103
0.0010682
0.000920667
0.0013128
0.000991928
0.00353236
0.0126749
0.00973607
0.00706095
0.00661042
0.00663665
0.00646268
0.00636939
0.00647064
0.00678367
0.00722651
0.00764785
0.00788847
0.00786694
0.00763498
0.00738152
0.00734446
0.00757721
0.0078421
0.00792456
0.00780014
0.00752816
0.00715908
0.00672766
0.00627155
0.00585628
0.00548764
0.00515434
0.00485331
0.00458909
0.00435937
0.00404316
0.00357953
0.00300136
0.00243932
0.0019242
0.00157194
0.00148528
0.00153566
0.00114728
0.00360785
0.0114794
0.00996494
0.00883375
0.00815126
0.00737027
0.00672893
0.0064707
0.00660467
0.00702483
0.00755507
0.0079926
0.00816342
0.00801791
0.00767997
0.00744202
0.0075758
0.00793688
0.00806914
0.00790002
0.00751383
0.00699383
0.00641375
0.00584678
0.00535329
0.00495469
0.00463455
0.00437731
0.00417962
0.00404547
0.00398058
0.00395723
0.00374874
0.00338942
0.00307501
0.00293738
0.00311674
0.00364904
0.00444008
0.00176516
0.00351683
0.00420223
0.00474982
0.00492428
0.0049401
0.00506559
0.00541324
0.00600898
0.00679186
0.00760307
0.00825115
0.00857316
0.00846033
0.00800441
0.00755065
0.00747557
0.00756147
0.00755853
0.00731556
0.00684586
0.0062289
0.00556247
0.00494256
0.00443435
0.00405151
0.00376887
0.00355319
0.00338104
0.00323717
0.00310956
0.00298831
0.00287142
0.0027787
0.00271191
0.0026906
0.00270292
0.00267662
0.00255101
0.00237183
0.00164263
0.0021754
0.00384991
0.005331
0.00656573
0.00755798
0.0084337
0.00908761
0.00938694
0.00929947
0.00885205
0.00808451
0.00725922
0.00677577
0.00659848
0.00640371
0.00603926
0.0055117
0.00489936
0.00429022
0.00375709
0.00335047
0.00306759
0.00287853
0.00275204
0.00266634
0.00260875
0.00257238
0.00255422
0.00255654
0.0025832
0.00261891
0.00265981
0.00269586
0.00269659
0.00261508
0.00244113
0.00218565
0.0013444
0.00252691
0.00540661
0.00739547
0.00830539
0.00890284
0.00929137
0.00915076
0.0084916
0.00755576
0.00659063
0.00579383
0.00522712
0.00485679
0.00452107
0.00410744
0.00363245
0.00316047
0.00275631
0.00245602
0.00226047
0.00214008
0.0020709
0.00204425
0.00204922
0.00207886
0.00212868
0.00219451
0.00227073
0.00236358
0.00247053
0.00258857
0.00270958
0.00281488
0.00288649
0.00286209
0.00287572
0.0028027
0.00136588
0.00230629
0.00232045
0.00236378
0.00243507
0.00219613
0.00200747
0.00191466
0.00182004
0.00168726
0.00152496
0.00134501
0.00116937
0.00101532
0.000893002
0.000804114
0.000741189
0.000696233
0.000664857
0.0006454
0.000636908
0.000637962
0.000646866
0.00066214
0.00068303
0.000708146
0.000737316
0.000770657
0.000808535
0.000851685
0.000901504
0.000957443
0.00101953
0.00108847
0.00116491
0.00124853
0.00135197
0.00137913
0.00134154
0.00125634
0.0011633
)
;

boundaryField
{
    floor
    {
        type            compressible::alphatWallFunction;
        Prt             0.85;
        value           nonuniform List<scalar> 
29
(
0.000181616
7.53408e-05
9.08682e-05
0.000103148
0.000104382
0.000101446
9.70917e-05
9.08851e-05
8.44791e-05
7.85938e-05
7.33354e-05
6.86528e-05
6.44721e-05
6.0737e-05
5.73731e-05
5.42649e-05
5.12624e-05
4.81582e-05
4.63639e-05
4.16774e-05
4.16768e-05
5.91262e-05
7.07088e-05
7.9552e-05
0.000181614
7.53398e-05
7.86873e-05
0.000148925
0.000221779
)
;
    }
    ceiling
    {
        type            compressible::alphatWallFunction;
        Prt             0.85;
        value           nonuniform List<scalar> 
43
(
0.000316714
0.000318417
0.000323961
0.000333184
0.000302596
0.000278176
0.000266076
0.000253665
0.000236123
0.000214467
0.000190149
0.000166054
0.000144578
0.000127256
0.000114492
0.000105355
9.87696e-05
9.41429e-05
9.12603e-05
8.99986e-05
9.0155e-05
9.1477e-05
9.37397e-05
9.68244e-05
0.000100518
0.000104788
0.000109644
0.00011513
0.000121342
0.000128469
0.000136416
0.000145172
0.000154824
0.000165443
0.000176969
0.000191105
0.000194798
0.000189686
0.000178042
0.000165224
0.000468632
0.000551974
0.000344632
)
;
    }
    sWall
    {
        type            compressible::alphatWallFunction;
        Prt             0.85;
        value           uniform 0.000315542;
    }
    nWall
    {
        type            compressible::alphatWallFunction;
        Prt             0.85;
        value           nonuniform List<scalar> 6(0.000134545 0.000140952 0.000162656 0.000189744 0.000192663 0.000164894);
    }
    sideWalls
    {
        type            empty;
    }
    glass1
    {
        type            compressible::alphatWallFunction;
        Prt             0.85;
        value           nonuniform List<scalar> 9(0.000171398 0.0002312 0.000279631 0.000325279 0.000371055 0.000418961 0.00046333 0.000472667 0.000461795);
    }
    glass2
    {
        type            compressible::alphatWallFunction;
        Prt             0.85;
        value           nonuniform List<scalar> 2(0.000244628 0.000228521);
    }
    sun
    {
        type            compressible::alphatWallFunction;
        Prt             0.85;
        value           nonuniform List<scalar> 
14
(
0.000175753
0.000191167
0.000194566
0.00020346
0.000211678
0.000219408
0.000227075
0.00023428
0.000239245
0.000241004
0.000238643
0.000231498
0.000219187
0.000201929
)
;
    }
    heatsource1
    {
        type            compressible::alphatWallFunction;
        Prt             0.85;
        value           nonuniform List<scalar> 3(9.94709e-05 0.000120018 0.00013487);
    }
    heatsource2
    {
        type            compressible::alphatWallFunction;
        Prt             0.85;
        value           nonuniform List<scalar> 4(0.000184876 0.000116816 0.000116815 0.000191404);
    }
    Table_master
    {
        type            compressible::alphatWallFunction;
        Prt             0.85;
        value           nonuniform List<scalar> 9(0.000130162 0.00011497 0.000102471 9.22046e-05 8.37225e-05 7.66576e-05 7.07362e-05 6.57835e-05 6.17382e-05);
    }
    Table_slave
    {
        type            compressible::alphatWallFunction;
        Prt             0.85;
        value           nonuniform List<scalar> 9(0.000147341 0.000135009 0.000126208 0.000119494 0.000113704 0.000108172 0.000102794 9.70564e-05 9.02867e-05);
    }
    inlet
    {
        type            fixedValue;
        value           uniform 1.94e-05;
    }
    outlet
    {
        type            zeroGradient;
    }
}


// ************************************************************************* //
