/*--------------------------------*- C++ -*----------------------------------*\
  =========                 |
  \\      /  F ield         | OpenFOAM: The Open Source CFD Toolbox
   \\    /   O peration     | Website:  https://openfoam.org
    \\  /    A nd           | Version:  6
     \\/     M anipulation  |
\*---------------------------------------------------------------------------*/
FoamFile
{
    version     2.0;
    format      ascii;
    class       volScalarField;
    location    "1600";
    object      alphat;
}
// * * * * * * * * * * * * * * * * * * * * * * * * * * * * * * * * * * * * * //

dimensions      [1 -1 -1 0 0 0 0];

internalField   nonuniform List<scalar> 
459
(
0.00123607
0.0013488
0.00137447
0.0014401
0.00150094
0.00155834
0.00161542
0.00166988
0.00170813
0.00172287
0.00170709
0.00165587
0.0015668
0.00144237
0.0012962
0.000539493
0.000644076
0.00072799
0.000735377
0.000714641
0.00068454
0.000642489
0.000599578
0.000560546
0.000525992
0.00049548
0.000468447
0.000444429
0.000422952
0.000403237
0.000384306
0.000364817
0.000352682
0.000322837
0.00168217
0.00399204
0.0037797
0.00438485
0.00497776
0.00557226
0.00608858
0.00649089
0.00686456
0.00717518
0.00738028
0.00743631
0.00729084
0.00681956
0.0054988
0.00131985
0.000821542
0.000562386
0.00118562
0.00166338
0.0020259
0.00224107
0.00225294
0.00177926
0.00152801
0.00135005
0.00121443
0.0011074
0.00102079
0.000947368
0.000878914
0.000812427
0.000753279
0.000701117
0.00083277
0.000429313
0.00205288
0.00541367
0.004609
0.0057419
0.00626208
0.00664047
0.00693636
0.00719754
0.00750049
0.00782871
0.00814364
0.00838686
0.00850547
0.00841099
0.00784669
0.00602094
0.00136082
0.00105648
0.00154119
0.00201185
0.00246987
0.00281147
0.0027792
0.000913561
0.000807993
0.000722237
0.000652633
0.000595752
0.00054885
0.000509893
0.000477568
0.000451304
0.000487432
0.000562585
0.000941656
0.000501472
0.00240895
0.00692515
0.00454886
0.00599558
0.00638851
0.0064837
0.00656398
0.0067126
0.00696706
0.00730909
0.00770184
0.00806214
0.00833268
0.00843713
0.00831918
0.00767017
0.00513825
0.00159215
0.00190882
0.00243806
0.00302042
0.00354158
0.00390285
0.00372024
0.00103417
0.000946311
0.00088375
0.000836173
0.000795498
0.000757399
0.000720671
0.000681878
0.000636637
0.000597363
0.000603585
0.00109444
0.000558607
0.00277192
0.00889848
0.00491673
0.0057165
0.00625793
0.00620373
0.00615206
0.00626422
0.00650265
0.0068527
0.00728694
0.00768328
0.00795977
0.00806568
0.0080033
0.00774498
0.00708966
0.00601038
0.00564533
0.00559054
0.00565067
0.00572101
0.00573319
0.00555607
0.00472522
0.0043221
0.00408828
0.00390653
0.00371346
0.0034371
0.0030544
0.00258434
0.00205987
0.00153794
0.0011356
0.00112057
0.000760685
0.000689764
0.000831515
0.00093388
0.00315747
0.0110633
0.00676442
0.0055268
0.0060508
0.00622423
0.00605831
0.00616285
0.00636096
0.00668593
0.0071092
0.00752261
0.00779721
0.00785656
0.00771948
0.00748646
0.00726879
0.00713437
0.00715307
0.00719318
0.00716961
0.00707069
0.00689979
0.00664323
0.00625521
0.00590615
0.00559717
0.00530217
0.0050043
0.00468661
0.00428407
0.00377744
0.00316569
0.00248615
0.00187549
0.00138101
0.00105712
0.000901772
0.00128208
0.000976854
0.00351919
0.0126234
0.00969828
0.00701956
0.00655944
0.0065968
0.00643169
0.00633951
0.00643679
0.00674714
0.00719405
0.00762837
0.00788959
0.00789031
0.00767284
0.00741821
0.00736325
0.00757856
0.00784252
0.00793314
0.00781737
0.00755163
0.00718714
0.00676114
0.00631244
0.00590378
0.00553915
0.00520659
0.00490289
0.00463305
0.00439604
0.00407185
0.00360435
0.00302506
0.00245858
0.00193415
0.0015623
0.00145365
0.00148749
0.00112004
0.0035952
0.0114395
0.0099318
0.0088065
0.00812095
0.00735301
0.00671201
0.00644632
0.00657281
0.0069924
0.00753212
0.00798829
0.00818438
0.00806326
0.00773718
0.0074914
0.00759982
0.00795266
0.00810352
0.00794396
0.00756028
0.00704008
0.00646143
0.00589915
0.00541129
0.00501564
0.00469396
0.00443062
0.00422331
0.00407772
0.00400169
0.00396965
0.00374624
0.00338116
0.0030536
0.00288959
0.00301968
0.00349244
0.00426576
0.00173662
0.00350512
0.00418944
0.00473585
0.00490993
0.00492699
0.00504662
0.00538489
0.0059721
0.00675507
0.0075792
0.00824998
0.00859873
0.00851632
0.00808314
0.00762392
0.00754532
0.00762911
0.0076332
0.00739671
0.00692187
0.00629828
0.00562854
0.0050093
0.00450162
0.00411554
0.00382502
0.0035978
0.00341189
0.00325329
0.00311063
0.00297403
0.00284282
0.00273754
0.00265957
0.0026298
0.00263908
0.00261759
0.00250382
0.0023344
0.00162364
0.00216515
0.0038348
0.005294
0.00651358
0.00750211
0.00838741
0.00907302
0.00941307
0.00935974
0.0089331
0.00819852
0.00738388
0.00689419
0.00671903
0.00652178
0.00615225
0.00561879
0.00500202
0.00438586
0.00384721
0.00343241
0.00313553
0.00292794
0.0027808
0.00267433
0.00259726
0.00254363
0.00251093
0.00250218
0.00251946
0.00254751
0.00258262
0.00261551
0.00261692
0.00254041
0.00237239
0.00212853
0.0013327
0.00251469
0.0053767
0.00733768
0.00825243
0.00886419
0.00928362
0.00923062
0.00863659
0.00774013
0.00678653
0.00599152
0.00542084
0.00504028
0.00469532
0.00427707
0.00380594
0.00334222
0.0029427
0.00263745
0.00242468
0.00228004
0.00218452
0.00213006
0.00210804
0.00211201
0.00213775
0.00218146
0.00223812
0.00231452
0.0024073
0.00251348
0.00262549
0.00272532
0.00279188
0.00276959
0.00278628
0.00275285
0.00135514
0.00230242
0.00230934
0.00235266
0.00242376
0.00218966
0.00200763
0.00192146
0.00183404
0.00170781
0.00155215
0.00137544
0.00120074
0.00104673
0.000925016
0.000837173
0.000775253
0.000730728
0.000698789
0.000677571
0.000666251
0.000663784
0.000668832
0.0006802
0.00069729
0.000718921
0.000744784
0.000774998
0.000809917
0.000850233
0.000897243
0.000950135
0.00100913
0.00107494
0.00114822
0.00122874
0.00132586
0.00135608
0.00132128
0.00123771
0.00114848
)
;

boundaryField
{
    floor
    {
        type            compressible::alphatWallFunction;
        Prt             0.85;
        value           nonuniform List<scalar> 
29
(
0.000183364
7.52606e-05
9.09461e-05
0.000103305
0.000104385
0.000101352
9.69291e-05
9.07108e-05
8.43139e-05
7.84463e-05
7.32094e-05
6.85494e-05
6.43906e-05
6.067e-05
5.73216e-05
5.42286e-05
5.12403e-05
4.81439e-05
4.62052e-05
4.13996e-05
4.1399e-05
5.83158e-05
6.94678e-05
7.81542e-05
0.000183362
7.52597e-05
7.87235e-05
0.000150225
0.000223338
)
;
    }
    ceiling
    {
        type            compressible::alphatWallFunction;
        Prt             0.85;
        value           nonuniform List<scalar> 
43
(
0.00031622
0.000316995
0.00032254
0.000331744
0.000301765
0.000278198
0.000266966
0.00025551
0.000238851
0.000218116
0.000194288
0.000170389
0.000148988
0.000131816
0.000119259
0.000110313
0.000103828
9.91466e-05
9.60223e-05
9.43507e-05
9.39861e-05
9.47324e-05
9.64106e-05
9.8927e-05
0.000102101
0.000105881
0.000110278
0.000115333
0.000121138
0.000127865
0.000135384
0.000143714
0.000152939
0.000163135
0.000174253
0.000187552
0.000191669
0.000186929
0.000175487
0.000163175
0.000467198
0.000550436
0.00034308
)
;
    }
    sWall
    {
        type            compressible::alphatWallFunction;
        Prt             0.85;
        value           uniform 0.000315049;
    }
    nWall
    {
        type            compressible::alphatWallFunction;
        Prt             0.85;
        value           nonuniform List<scalar> 6(0.000132753 0.000138832 0.00015888 0.000188156 0.000191209 0.000162848);
    }
    sideWalls
    {
        type            empty;
    }
    glass1
    {
        type            compressible::alphatWallFunction;
        Prt             0.85;
        value           nonuniform List<scalar> 9(0.000170821 0.000230212 0.000278363 0.000323818 0.000369488 0.000417361 0.000461771 0.000471173 0.00046041);
    }
    glass2
    {
        type            compressible::alphatWallFunction;
        Prt             0.85;
        value           nonuniform List<scalar> 2(0.000240904 0.000226031);
    }
    sun
    {
        type            compressible::alphatWallFunction;
        Prt             0.85;
        value           nonuniform List<scalar> 
14
(
0.000175143
0.000190542
0.000194032
0.00020292
0.000211118
0.000218821
0.000226448
0.000233697
0.000238773
0.000240725
0.000238634
0.000231832
0.000219949
0.000203222
)
;
    }
    heatsource1
    {
        type            compressible::alphatWallFunction;
        Prt             0.85;
        value           nonuniform List<scalar> 3(9.78118e-05 0.000118439 0.00013307);
    }
    heatsource2
    {
        type            compressible::alphatWallFunction;
        Prt             0.85;
        value           nonuniform List<scalar> 4(0.000186723 0.000117002 0.000117001 0.000192301);
    }
    Table_master
    {
        type            compressible::alphatWallFunction;
        Prt             0.85;
        value           nonuniform List<scalar> 9(0.000130179 0.000115044 0.000102576 9.23252e-05 8.38486e-05 7.6784e-05 7.08588e-05 6.58991e-05 6.18382e-05);
    }
    Table_slave
    {
        type            compressible::alphatWallFunction;
        Prt             0.85;
        value           nonuniform List<scalar> 9(0.000147223 0.000134834 0.00012593 0.000119109 0.000113241 0.000107711 0.000102349 9.66501e-05 8.9953e-05);
    }
    inlet
    {
        type            fixedValue;
        value           uniform 1.94e-05;
    }
    outlet
    {
        type            zeroGradient;
    }
}


// ************************************************************************* //
