/*--------------------------------*- C++ -*----------------------------------*\
  =========                 |
  \\      /  F ield         | OpenFOAM: The Open Source CFD Toolbox
   \\    /   O peration     | Website:  https://openfoam.org
    \\  /    A nd           | Version:  6
     \\/     M anipulation  |
\*---------------------------------------------------------------------------*/
FoamFile
{
    version     2.0;
    format      ascii;
    class       volScalarField;
    location    "1600";
    object      epsilon;
}
// * * * * * * * * * * * * * * * * * * * * * * * * * * * * * * * * * * * * * //

dimensions      [0 2 -3 0 0 0 0];

internalField   nonuniform List<scalar> 
459
(
0.000427232
0.000553664
0.000585811
0.000673775
0.00076279
0.000853673
0.000950908
0.00105029
0.00112404
0.00115325
0.00112172
0.00102363
0.000867129
0.000676495
0.000491005
3.54326e-05
6.02799e-05
8.70369e-05
8.97153e-05
8.23411e-05
7.23714e-05
5.9839e-05
4.86342e-05
3.97426e-05
3.2838e-05
2.74495e-05
2.31982e-05
1.98105e-05
1.70758e-05
1.4798e-05
1.28107e-05
1.09593e-05
9.90218e-06
7.59654e-06
0.0010788
0.00157727
0.00051978
0.000503003
0.000525496
0.000565016
0.000625961
0.000706927
0.000784353
0.000832565
0.000831234
0.000774731
0.000671574
0.00054411
0.000438937
0.00051828
0.000124989
4.01412e-05
9.48709e-05
0.000105962
9.93882e-05
8.67482e-05
7.40752e-05
6.79061e-05
5.49058e-05
4.33142e-05
3.41739e-05
2.71641e-05
2.18112e-05
1.77161e-05
1.45981e-05
1.23087e-05
1.09022e-05
1.03005e-05
2.6201e-05
1.78626e-05
0.00196451
0.00387733
0.000638088
0.000476096
0.000496763
0.000557237
0.000649629
0.00076722
0.000875514
0.000940046
0.000943288
0.00088656
0.000781504
0.000653798
0.000535387
0.000477247
0.000568094
0.000266006
0.000209602
0.000167268
0.000134394
0.000108751
9.32211e-05
0.000172034
0.000119021
8.50043e-05
6.27203e-05
4.77089e-05
3.73049e-05
2.99118e-05
2.4576e-05
2.07404e-05
1.58229e-05
1.32705e-05
4.93918e-05
2.84684e-05
0.0031804
0.00806842
0.00100592
0.000477913
0.000481426
0.000566258
0.000705692
0.000881417
0.00101899
0.00108529
0.0010767
0.00100449
0.000879356
0.000733016
0.000604132
0.000520567
0.000502188
0.000910042
0.000527151
0.000324719
0.000221626
0.0001624
0.000125377
0.000108076
0.000249659
0.000191301
0.000155826
0.000131999
0.000113665
9.81074e-05
8.45191e-05
7.1594e-05
5.82687e-05
3.46736e-05
2.24359e-05
8.18594e-05
3.93522e-05
0.00485469
0.0144353
0.00198921
0.000558207
0.000483696
0.000596423
0.000847967
0.00111142
0.00125772
0.00130024
0.00125884
0.00115174
0.000993395
0.000809944
0.000633029
0.000488643
0.00039056
0.000349679
0.000287736
0.000231324
0.000185784
0.000149914
0.000122041
0.000102684
9.91006e-05
9.26495e-05
8.64102e-05
8.01951e-05
7.34648e-05
6.60833e-05
5.86902e-05
5.16491e-05
4.51637e-05
3.62586e-05
2.78216e-05
5.88108e-05
4.53846e-05
7.41463e-05
0.000129956
0.000184113
0.00718742
0.021504
0.00449386
0.0010428
0.000680498
0.000795584
0.00130195
0.00156751
0.00164467
0.00161743
0.00152082
0.00136284
0.00115093
0.000909934
0.00067634
0.00048483
0.000354003
0.0002811
0.000237121
0.000201654
0.000168998
0.000140393
0.00011722
0.000100777
9.25282e-05
8.91728e-05
8.744e-05
8.52783e-05
8.14649e-05
7.50549e-05
6.59077e-05
5.62839e-05
4.74402e-05
3.95211e-05
3.43022e-05
4.48151e-05
4.68916e-05
5.72843e-05
0.000240162
0.000210649
0.00996671
0.0257581
0.00938567
0.00345262
0.00221731
0.00219964
0.00240556
0.00237984
0.00224876
0.00208023
0.0018816
0.0016379
0.00134503
0.00102792
0.000728712
0.000491366
0.000336914
0.000254133
0.000210171
0.000178497
0.00015041
0.00012678
0.000109221
9.86299e-05
9.50956e-05
9.6432e-05
9.96657e-05
0.00010302
0.000105268
0.00010471
9.80891e-05
8.69307e-05
7.57808e-05
6.63055e-05
6.25127e-05
6.9801e-05
8.89306e-05
0.000142056
0.000326103
0.000317476
0.0106501
0.0287044
0.0156081
0.00995124
0.0070746
0.00547212
0.00433811
0.00357573
0.00305782
0.00267281
0.00232743
0.00195878
0.00154803
0.00112815
0.000747327
0.000463467
0.000295536
0.000213475
0.000173752
0.00014696
0.000125517
0.000109858
0.000100521
9.73966e-05
9.97765e-05
0.000106257
0.000115536
0.000127196
0.000141317
0.000157812
0.000175654
0.000187251
0.0001972
0.000218553
0.000262875
0.000395451
0.0007306
0.00137735
0.00400461
0.00118531
0.0099003
0.0168567
0.0135266
0.0102187
0.0077998
0.00615163
0.00503841
0.00427826
0.00373036
0.00326572
0.00278541
0.00224317
0.00165092
0.00109491
0.000618985
0.00033275
0.000213085
0.000159967
0.000131966
0.000113212
0.000100219
9.26151e-05
9.01649e-05
9.23882e-05
9.8685e-05
0.000108566
0.00012202
0.000139754
0.000163156
0.000194273
0.000235838
0.000291828
0.000368737
0.00048404
0.000653635
0.000883427
0.00114583
0.00137435
0.00155066
0.000970121
0.00493267
0.00663484
0.00668713
0.00619775
0.00552521
0.00488257
0.00424085
0.00353523
0.00275431
0.00191906
0.00105349
0.000560646
0.000301061
0.000180944
0.000128456
0.000102578
8.77949e-05
7.86668e-05
7.33417e-05
7.13384e-05
7.23329e-05
7.59664e-05
8.20393e-05
9.06179e-05
0.000102131
0.000117435
0.000137895
0.000165579
0.000203727
0.00025728
0.000331596
0.000433784
0.000567164
0.000719111
0.000848992
0.000902851
0.000847331
0.000536422
0.00339243
0.00675086
0.00666626
0.00536476
0.00452973
0.0038503
0.00299643
0.00209377
0.0013309
0.000779408
0.000430664
0.000243697
0.000149798
0.000105648
8.46999e-05
7.3874e-05
6.79723e-05
6.50378e-05
6.42942e-05
6.53717e-05
6.8029e-05
7.22635e-05
7.82559e-05
8.62898e-05
9.68586e-05
0.000110772
0.0001293
0.000154399
0.000188805
0.000236134
0.000301295
0.00038919
0.000500321
0.000626239
0.000719567
0.000814576
0.000763864
0.000563917
0.00270635
0.00268359
0.00283503
0.00315525
0.00234667
0.00181671
0.00159665
0.00139093
0.00112445
0.000844907
0.000588297
0.000391564
0.000259467
0.000179106
0.000132788
0.000105459
8.83173e-05
7.72389e-05
7.04169e-05
6.69481e-05
6.62086e-05
6.7732e-05
7.12462e-05
7.67537e-05
8.41219e-05
9.35327e-05
0.000105386
0.000120284
0.000139158
0.000163542
0.000194206
0.000232679
0.00028124
0.000342783
0.000420096
0.000527836
0.000564818
0.000522467
0.000429476
0.000343259
)
;

boundaryField
{
    floor
    {
        Cmu             0.09;
        kappa           0.41;
        E               9.8;
        type            epsilonWallFunction;
        value           nonuniform List<scalar> 
29
(
0.000491005
3.54326e-05
6.02799e-05
8.70369e-05
8.97153e-05
8.23411e-05
7.23714e-05
5.9839e-05
4.86342e-05
3.97426e-05
3.2838e-05
2.74495e-05
2.31982e-05
1.98105e-05
1.70758e-05
1.4798e-05
1.28107e-05
1.09593e-05
9.90218e-06
7.59654e-06
7.59654e-06
1.78626e-05
2.84684e-05
3.93522e-05
0.000491005
3.54326e-05
4.01412e-05
0.000266006
0.000910042
)
;
    }
    ceiling
    {
        Cmu             0.09;
        kappa           0.41;
        E               9.8;
        type            epsilonWallFunction;
        value           nonuniform List<scalar> 
43
(
0.00270635
0.00268359
0.00283503
0.00315525
0.00234667
0.00181671
0.00159665
0.00139093
0.00112445
0.000844907
0.000588297
0.000391564
0.000259467
0.000179106
0.000132788
0.000105459
8.83173e-05
7.72389e-05
7.04169e-05
6.69481e-05
6.62086e-05
6.7732e-05
7.12462e-05
7.67537e-05
8.41219e-05
9.35327e-05
0.000105386
0.000120284
0.000139158
0.000163542
0.000194206
0.000232679
0.00028124
0.000342783
0.000420096
0.000527836
0.000564818
0.000522467
0.000429476
0.000343259
0.0099003
0.0168567
0.00339243
)
;
    }
    sWall
    {
        Cmu             0.09;
        kappa           0.41;
        E               9.8;
        type            epsilonWallFunction;
        value           uniform 0.00270635;
    }
    nWall
    {
        Cmu             0.09;
        kappa           0.41;
        E               9.8;
        type            epsilonWallFunction;
        value           nonuniform List<scalar> 6(0.000184113 0.000210649 0.000317476 0.000536422 0.000563917 0.000343259);
    }
    sideWalls
    {
        type            empty;
    }
    glass1
    {
        Cmu             0.09;
        kappa           0.41;
        E               9.8;
        type            epsilonWallFunction;
        value           nonuniform List<scalar> 9(0.000427232 0.0010788 0.00196451 0.0031804 0.00485469 0.00718742 0.00996671 0.0106501 0.0099003);
    }
    glass2
    {
        Cmu             0.09;
        kappa           0.41;
        E               9.8;
        type            epsilonWallFunction;
        value           nonuniform List<scalar> 2(0.00118531 0.000970121);
    }
    sun
    {
        Cmu             0.09;
        kappa           0.41;
        E               9.8;
        type            epsilonWallFunction;
        value           nonuniform List<scalar> 
14
(
0.000427232
0.000553664
0.000585811
0.000673775
0.00076279
0.000853673
0.000950908
0.00105029
0.00112404
0.00115325
0.00112172
0.00102363
0.000867129
0.000676495
)
;
    }
    heatsource1
    {
        Cmu             0.09;
        kappa           0.41;
        E               9.8;
        type            epsilonWallFunction;
        value           nonuniform List<scalar> 3(7.41463e-05 0.000129956 0.000184113);
    }
    heatsource2
    {
        Cmu             0.09;
        kappa           0.41;
        E               9.8;
        type            epsilonWallFunction;
        value           nonuniform List<scalar> 4(0.00051828 0.000124989 0.000124989 0.000568094);
    }
    Table_master
    {
        Cmu             0.09;
        kappa           0.41;
        E               9.8;
        type            epsilonWallFunction;
        value           nonuniform List<scalar> 9(0.000172034 0.000119021 8.50043e-05 6.27203e-05 4.77089e-05 3.73049e-05 2.99118e-05 2.4576e-05 2.07404e-05);
    }
    Table_slave
    {
        Cmu             0.09;
        kappa           0.41;
        E               9.8;
        type            epsilonWallFunction;
        value           nonuniform List<scalar> 9(0.000249659 0.000191301 0.000155826 0.000131999 0.000113665 9.81074e-05 8.45191e-05 7.1594e-05 5.82687e-05);
    }
    inlet
    {
        type            turbulentMixingLengthDissipationRateInlet;
        mixingLength    0.01;
        phi             phi;
        k               k;
        value           uniform 0.000101881;
    }
    outlet
    {
        type            zeroGradient;
    }
}


// ************************************************************************* //
