/*--------------------------------*- C++ -*----------------------------------*\
  =========                 |
  \\      /  F ield         | OpenFOAM: The Open Source CFD Toolbox
   \\    /   O peration     | Website:  https://openfoam.org
    \\  /    A nd           | Version:  6
     \\/     M anipulation  |
\*---------------------------------------------------------------------------*/
FoamFile
{
    version     2.0;
    format      ascii;
    class       volScalarField;
    location    "100";
    object      alphat;
}
// * * * * * * * * * * * * * * * * * * * * * * * * * * * * * * * * * * * * * //

dimensions      [1 -1 -1 0 0 0 0];

internalField   nonuniform List<scalar> 
459
(
0.000844309
0.000874844
0.000853887
0.00088174
0.000906137
0.000926961
0.000944997
0.000961127
0.000976282
0.00099157
0.00100384
0.00101231
0.00101711
0.00102004
0.00102144
0.000852583
0.000806252
0.00076398
0.000739737
0.000723892
0.000703814
0.000671407
0.000639618
0.000609077
0.000580056
0.000552852
0.000527607
0.000504326
0.000482877
0.000462928
0.000443893
0.000425249
0.000423715
0.000398694
0.00132233
0.0019927
0.00161779
0.00191201
0.00203272
0.00216381
0.00229587
0.00241666
0.00250965
0.00255452
0.00256364
0.00250895
0.00235493
0.0020532
0.00156963
0.00106982
0.000998232
0.00102119
0.00192114
0.00253725
0.00295955
0.00311119
0.00293422
0.002309
0.00194945
0.00168849
0.00149051
0.00133488
0.00120984
0.00110682
0.00101788
0.000935949
0.000866314
0.000807363
0.00104255
0.000544314
0.00176372
0.00309695
0.001706
0.0026777
0.0028652
0.00299303
0.00309571
0.00317638
0.00323628
0.00326986
0.00327603
0.00322658
0.00308581
0.0028112
0.00237887
0.00183781
0.00121337
0.00118795
0.00349192
0.00430406
0.0044643
0.00432802
0.00355263
0.000879489
0.000756197
0.000671565
0.000610872
0.000565314
0.000529718
0.000501129
0.000478105
0.000460996
0.000532386
0.000640034
0.00124073
0.000656292
0.00221516
0.00476716
0.00167759
0.00300631
0.00334358
0.00344837
0.00351055
0.00355374
0.0035881
0.00361388
0.00363283
0.00362968
0.00357799
0.00343439
0.00313375
0.00261364
0.00191323
0.00132926
0.00397598
0.00450147
0.00475312
0.00477945
0.00458
0.00376758
0.000907201
0.00085445
0.000837293
0.000829745
0.00082012
0.000800822
0.000767881
0.000733633
0.000692562
0.000676388
0.000714112
0.00157831
0.000728665
0.00266602
0.0069105
0.00206233
0.00287108
0.00355391
0.00366536
0.00369962
0.00371471
0.00372945
0.00375108
0.00378061
0.00382424
0.00386503
0.00387767
0.00383708
0.00374541
0.00367213
0.00371779
0.00404033
0.00442585
0.00461517
0.00462442
0.00454658
0.0043395
0.0038082
0.00374472
0.00374556
0.00372645
0.00365624
0.00351936
0.00329063
0.00285899
0.00233138
0.00180848
0.00136173
0.00143961
0.00104138
0.000865258
0.00101734
0.00114498
0.0031132
0.00911544
0.00337804
0.00245364
0.00344528
0.00370694
0.0037768
0.00378875
0.00377454
0.00376502
0.00378324
0.0038492
0.00393091
0.00399402
0.00398929
0.00386086
0.00360321
0.00337883
0.00351077
0.00414869
0.00445483
0.00445878
0.00441997
0.00440564
0.00439917
0.00444524
0.00447344
0.00444751
0.00436264
0.00422901
0.00406207
0.00378055
0.00333731
0.00275948
0.00215604
0.00156792
0.00134696
0.00120292
0.00169889
0.00121786
0.00356797
0.0108768
0.00622879
0.00291668
0.0025401
0.00304198
0.0034965
0.00376881
0.00387984
0.00375049
0.00374323
0.00380837
0.00390203
0.00399839
0.00404929
0.00396358
0.00363057
0.00313185
0.00302237
0.00392387
0.00443521
0.00442745
0.00437352
0.0043803
0.00442793
0.00447788
0.00448761
0.00443379
0.00433271
0.00421593
0.00411707
0.00404283
0.00376894
0.00328015
0.00273439
0.00217873
0.00187784
0.00188514
0.0020037
0.00147202
0.00369337
0.0112518
0.00858719
0.00602079
0.00405922
0.00312975
0.00308159
0.00343119
0.00377888
0.00374442
0.00371563
0.0037408
0.00380907
0.00389956
0.00398231
0.00399476
0.00376656
0.00311133
0.00262125
0.00369305
0.0045331
0.0045235
0.00444162
0.00443014
0.0044438
0.00443509
0.0043748
0.00426164
0.00412879
0.00403257
0.0040222
0.00411653
0.00421633
0.00387372
0.00357748
0.00354629
0.00402436
0.0050182
0.00612254
0.00209445
0.0036262
0.00443979
0.00493424
0.00497578
0.00459783
0.00407411
0.00367565
0.00347855
0.00342919
0.00343259
0.00348485
0.00356743
0.00366251
0.00375548
0.00383681
0.0038865
0.00378445
0.00319484
0.00232946
0.00338289
0.0047109
0.004717
0.00461192
0.00458883
0.00456374
0.00448928
0.00434292
0.0041239
0.00386469
0.0036237
0.00344908
0.00334803
0.00329763
0.00327259
0.00329482
0.00333944
0.00330108
0.00309974
0.00283237
0.00190657
0.00274863
0.00413817
0.00443543
0.00429449
0.00407046
0.00388716
0.00376863
0.00369515
0.0036631
0.00365497
0.00365411
0.00365228
0.00365516
0.00367442
0.00361915
0.0030597
0.00211168
0.00299403
0.00494314
0.0049482
0.0048469
0.00488025
0.00488549
0.00482637
0.00468941
0.004464
0.00416786
0.00385726
0.00360931
0.00347854
0.00343452
0.00343527
0.00344279
0.00339739
0.00322553
0.00289633
0.00244923
0.00157298
0.00286547
0.00473528
0.00491277
0.00470718
0.00447757
0.00425778
0.00406153
0.00388768
0.00369001
0.00346847
0.00324803
0.00304999
0.00289649
0.00280813
0.0027378
0.00241918
0.00176856
0.00255181
0.00469125
0.00459253
0.00457579
0.00467028
0.00471253
0.0047027
0.00464841
0.00454737
0.00440337
0.00422625
0.00402454
0.00390195
0.00386014
0.00387304
0.00389836
0.00391807
0.00387997
0.00379009
0.00309628
0.00160211
0.00254577
0.0026534
0.00275142
0.00289492
0.00269909
0.00244779
0.00227653
0.00212523
0.00198899
0.00186564
0.00175762
0.00166216
0.00157439
0.0014921
0.00141478
0.00134331
0.0012785
0.00121723
0.00115378
0.00121337
0.00130761
0.00127716
0.00127791
0.00128237
0.00128379
0.00128341
0.00128365
0.00128743
0.00129861
0.00132214
0.0013644
0.00141936
0.0014894
0.00157215
0.00166486
0.00178687
0.00181582
0.00176943
0.00164882
0.00151987
)
;

boundaryField
{
    floor
    {
        type            compressible::alphatWallFunction;
        Prt             0.85;
        value           nonuniform List<scalar> 
29
(
0.000145208
0.000121254
0.000114581
0.000108455
0.000104923
0.000102608
9.96654e-05
9.48957e-05
9.01896e-05
8.56408e-05
8.12923e-05
7.71914e-05
7.33633e-05
6.98126e-05
6.65231e-05
6.34471e-05
6.04964e-05
5.75905e-05
5.73481e-05
5.34204e-05
5.34197e-05
7.58832e-05
9.26404e-05
0.000103286
0.000145206
0.000121253
0.000145179
0.000168393
0.000187762
)
;
    }
    ceiling
    {
        type            compressible::alphatWallFunction;
        Prt             0.85;
        value           nonuniform List<scalar> 
43
(
0.00034715
0.000360781
0.000373148
0.000391246
0.000366659
0.000334806
0.000312894
0.000293386
0.000275691
0.000259557
0.00024533
0.000232679
0.000220977
0.000209937
0.000199504
0.000189802
0.000180953
0.000172541
0.000163781
0.000172036
0.000184937
0.000180779
0.000180881
0.000181491
0.000181685
0.000181632
0.000181665
0.000182183
0.000183712
0.000186923
0.000192676
0.000200129
0.00020958
0.000220681
0.000233043
0.000249199
0.000253014
0.0002469
0.000230913
0.000213681
0.000481953
0.000580445
0.000387418
)
;
    }
    sWall
    {
        type            compressible::alphatWallFunction;
        Prt             0.85;
        value           uniform 0.000345899;
    }
    nWall
    {
        type            compressible::alphatWallFunction;
        Prt             0.85;
        value           nonuniform List<scalar> 6(0.000162163 0.000172223 0.000206812 0.000220402 0.000224293 0.000213284);
    }
    sideWalls
    {
        type            empty;
    }
    glass1
    {
        type            compressible::alphatWallFunction;
        Prt             0.85;
        value           nonuniform List<scalar> 9(0.000116322 0.000181869 0.000240221 0.000298413 0.000355388 0.000410985 0.000466726 0.00048212 0.000474207);
    }
    glass2
    {
        type            compressible::alphatWallFunction;
        Prt             0.85;
        value           nonuniform List<scalar> 2(0.000286516 0.000262298);
    }
    sun
    {
        type            compressible::alphatWallFunction;
        Prt             0.85;
        value           nonuniform List<scalar> 
14
(
0.000120081
0.000124437
0.000121435
0.000125423
0.000128904
0.000131866
0.000134425
0.000136709
0.00013885
0.000141007
0.000142734
0.000143926
0.0001446
0.000145011
)
;
    }
    heatsource1
    {
        type            compressible::alphatWallFunction;
        Prt             0.85;
        value           nonuniform List<scalar> 3(0.000123283 0.000144859 0.000162676);
    }
    heatsource2
    {
        type            compressible::alphatWallFunction;
        Prt             0.85;
        value           nonuniform List<scalar> 4(0.000152212 0.000142173 0.000142171 0.000172121);
    }
    Table_master
    {
        type            compressible::alphatWallFunction;
        Prt             0.85;
        value           nonuniform List<scalar> 9(0.000125327 0.000107545 9.51382e-05 8.61233e-05 7.92837e-05 7.38922e-05 6.9529e-05 6.59925e-05 6.33507e-05);
    }
    Table_slave
    {
        type            compressible::alphatWallFunction;
        Prt             0.85;
        value           nonuniform List<scalar> 9(0.000129286 0.000121742 0.000119276 0.000118188 0.000116801 0.000114013 0.000109238 0.000104248 9.82254e-05);
    }
    inlet
    {
        type            fixedValue;
        value           uniform 1.94e-05;
    }
    outlet
    {
        type            zeroGradient;
    }
}


// ************************************************************************* //
