/*--------------------------------*- C++ -*----------------------------------*\
  =========                 |
  \\      /  F ield         | OpenFOAM: The Open Source CFD Toolbox
   \\    /   O peration     | Website:  https://openfoam.org
    \\  /    A nd           | Version:  6
     \\/     M anipulation  |
\*---------------------------------------------------------------------------*/
FoamFile
{
    version     2.0;
    format      ascii;
    class       surfaceScalarField;
    location    "500";
    object      phi;
}
// * * * * * * * * * * * * * * * * * * * * * * * * * * * * * * * * * * * * * //

dimensions      [1 0 -1 0 0 0 0];

internalField   nonuniform List<scalar> 
852
(
-0.00323224
0.00328679
-0.00457721
0.00134485
-0.00529567
0.000718348
-0.00546734
0.000171569
-0.00501744
-0.00045001
-0.00389668
-0.00112086
-0.00221454
-0.00168224
-0.000259323
-0.00195532
0.00135919
-0.00161866
0.00249981
-0.00114076
0.00317416
-0.000674491
0.00339281
-0.000218794
0.0031279
0.000264772
0.00221602
0.000911736
0.00221746
-0.000966883
0.000968021
-0.00134859
0.000381446
-0.001131
-0.000217869
-0.000517135
-0.000614137
0.000217321
-0.00073473
0.000895384
-0.00067833
0.00134928
-0.00045418
0.00162916
-0.000280177
0.00185125
-0.000222415
0.00202755
-0.000176641
0.00212647
-9.92951e-05
0.00212558
5.03135e-07
0.00201665
0.000108526
0.00179333
0.000222942
0.00144565
0.000347429
0.000974756
0.000470881
0.000458794
0.000516129
0.000126237
0.000332626
0.000127745
-0.00231623
0.00575189
-0.00351909
0.0025476
-0.00425269
0.00145183
-0.00446108
0.000379852
-0.00406608
-0.0008451
-0.00306943
-0.0021176
-0.00168393
-0.00306784
-0.000242971
-0.00339639
0.00103867
-0.00290044
0.00200351
-0.00210576
0.00261927
-0.0012904
0.00291008
-0.000509748
0.00292311
0.000251584
0.00281323
0.00102146
0.00327292
0.00175762
0.00160773
0.00166498
0.00160751
-0.000351631
0.00132351
-0.000220285
0.000249851
0.000234365
-0.00067286
0.000690023
-0.00107007
0.00107758
-0.00112256
0.001381
-0.000982002
0.00146535
-0.000538798
0.00149361
-0.000308723
0.0015317
-0.000260834
0.0015713
-0.000216601
0.00158254
-0.000110906
0.00155466
2.80029e-05
0.00151144
0.000151384
0.00147731
0.000256749
0.00142844
0.000396078
0.00123446
0.000664774
0.000922778
0.000827807
0.000469463
0.000785914
0.000600863
-0.00162853
0.00761016
-0.00262158
0.00354053
-0.00328331
0.00211345
-0.00347917
0.000575606
-0.00308984
-0.00123453
-0.00215839
-0.00304914
-0.00099232
-0.00423398
0.00010435
-0.00449317
0.00106613
-0.00386237
0.00181402
-0.0028538
0.00230691
-0.00178345
0.0025736
-0.000776607
0.00267989
0.000145134
0.00270563
0.000995561
0.00266662
0.00179647
0.00196175
0.0023697
0.0035691
0.000660071
0.000670014
0.00128835
-0.000378812
0.00159194
-0.000976772
0.0017703
-0.00124872
0.00190781
-0.00126031
0.00211343
-0.00118785
0.00157454
0.00126569
0.00100467
0.000787818
0.000676667
0.00070453
0.000855844
0.00111256
0.00150864
0.00138294
0.000790355
0.0011639
0.00104677
0.000738453
0.00121128
0.00134511
-0.00113126
0.0090411
-0.00188312
0.00429226
-0.0023391
0.00256931
-0.00240836
0.000644758
-0.00191243
-0.00173055
-0.00102554
-0.00393608
-0.000104936
-0.00515465
0.000661118
-0.00525934
0.00130641
-0.00450781
0.00179529
-0.00334286
0.0021027
-0.00209106
0.00226474
-0.000938829
0.00234681
6.2893e-05
0.00241508
0.000927116
0.00254647
0.00166492
0.00278925
0.00212675
0.00402554
0.00233265
0.00284151
0.00119227
0.00305605
0.000455204
0.00297453
-0.000297562
0.00281902
-0.000821497
0.0026289
-0.00105881
0.00241865
-0.00105026
0.00207313
-0.000842504
0.00242006
-0.000347253
0.00253585
-0.000116109
0.00255697
-2.14494e-05
0.002518
3.86396e-05
0.00242963
8.80334e-05
0.00229724
0.000132053
0.00211555
0.000181348
0.00185988
0.000255325
0.00146698
0.000392563
0.00142877
0.000828422
0.00124997
0.00122547
0.000890909
0.00157024
0.00224377
-0.000775853
0.010177
-0.00131322
0.0048295
-0.0014225
0.00267847
-0.00113626
0.000358395
-0.000395353
-0.00247154
0.000367954
-0.00469943
0.000954843
-0.00574159
0.00136184
-0.00566644
0.00165302
-0.00479916
0.00181923
-0.00350927
0.00187156
-0.00214359
0.00186483
-0.000932302
0.00186851
5.90183e-05
0.00195733
0.000838111
0.00220446
0.00141761
0.00259783
0.00173321
0.00314379
0.00178651
0.00319449
0.00114141
0.00327539
0.000374115
0.00318312
-0.000205468
0.002945
-0.000583523
0.00263646
-0.000750416
0.00231605
-0.000729984
0.0020335
-0.000560099
0.00195782
-0.000271718
0.00188734
-4.57841e-05
0.00178341
8.23181e-05
0.00166798
0.000153902
0.00155385
0.000201984
0.00144227
0.000243453
0.0013312
0.000292222
0.00121908
0.000367261
0.00111328
0.000498171
0.00115228
0.000789243
0.00124415
0.00113344
0.00135979
0.00145448
0.00205386
0.00154958
0.00128985
0.000763678
0.000558116
0.000731416
0.000598113
-0.000599228
0.0111884
-0.000866395
0.00509654
-0.000314656
0.00212659
0.000571384
-0.000527784
0.00142986
-0.00333009
0.00194042
-0.00521001
0.00215191
-0.00595312
0.00214163
-0.00565626
0.00199155
-0.00464927
0.00175405
-0.00327201
0.00148229
-0.00187208
0.00125376
-0.000703996
0.00114573
0.000166843
0.00121247
0.000771181
0.00145425
0.00117564
0.00181322
0.00137407
0.00226706
0.00133251
0.00254536
0.000862945
0.00259445
0.000324874
0.00247534
-8.65039e-05
0.00223441
-0.000342732
0.00192973
-0.000445871
0.0016136
-0.000413991
0.00133304
-0.000279681
0.00113912
-7.79543e-05
0.000999193
9.39736e-05
0.000886166
0.00019517
0.000791385
0.000248502
0.000713482
0.000279703
0.000654079
0.00030267
0.000618133
0.000327978
0.000616146
0.000369054
0.000666805
0.000447311
0.000839071
0.000616773
0.00114273
0.000829583
0.00156663
0.0010304
0.00204066
0.00107539
0.00202353
0.000780657
0.00155422
0.00120057
0.0021921
-0.000396219
0.0120471
1.84953e-06
0.00469834
0.00157936
0.000548935
0.00283669
-0.00178522
0.00352045
-0.00401388
0.00368481
-0.00537438
0.00340601
-0.00567435
0.00283296
-0.00508334
0.00213381
-0.00395033
0.00141958
-0.00255805
0.000796526
-0.00124931
0.000366593
-0.000274313
0.000204203
0.000329016
0.000283593
0.000691594
0.000533715
0.000925336
0.000881646
0.00102597
0.00126509
0.000948898
0.00149082
0.000637061
0.00151959
0.000295956
0.0013996
3.33228e-05
0.00118081
-0.0001241
0.000908337
-0.000173561
0.000625419
-0.000131243
0.000370114
-2.45548e-05
0.000184624
0.000107347
6.93796e-05
0.000209025
-4.33208e-06
0.000268687
-5.52735e-05
0.000299251
-8.77988e-05
0.000312035
-9.96356e-05
0.000314313
-8.34641e-05
0.000311609
-2.56981e-05
0.000311084
9.43451e-05
0.000327054
0.000319817
0.000391075
0.000660095
0.000489074
0.00112046
0.000569814
0.00167186
0.000523785
0.00201284
0.000439481
0.00173691
0.00147631
0.00396822
0.00321121
0.00935598
0.00429325
0.00361617
0.00504392
-0.000201873
0.00591567
-0.00265705
0.00608535
-0.00418354
0.00551199
-0.00480098
0.00443036
-0.00459277
0.0030861
-0.00373925
0.00175258
-0.00261709
0.000554152
-0.00135995
-0.000291756
-0.000403718
-0.000710281
0.000143951
-0.000792967
0.000411476
-0.000678762
0.000577181
-0.000441846
0.000688227
-0.000141883
0.000725821
0.000144837
0.000662005
0.000294473
0.000487257
0.000292386
0.000297873
0.000175884
0.000149644
-1.41795e-05
6.5765e-05
-0.000238485
5.05333e-05
-0.000455004
8.50536e-05
-0.000626196
0.000146411
-0.000731857
0.000212784
-0.000788587
0.000265535
-0.000818122
0.000298006
-0.000832987
0.000313904
-0.000839359
0.0003182
-0.000841139
0.000315886
-0.00084392
0.00031418
-0.000859476
0.00032642
-0.000909053
0.000376394
-0.00101493
0.000496704
-0.00122474
0.000698632
-0.00160385
0.000948696
-0.00223407
0.0011538
-0.00308583
0.00129105
-0.00305866
0.00144894
0.00109498
0.00993135
0.0135417
0.0118762
0.0014635
0.0103956
-0.00117641
0.00858105
-0.00236891
0.00648626
-0.00270617
0.00429359
-0.00240024
0.00212419
-0.00157011
0.000273322
-0.000766573
-0.00100199
-8.50209e-05
-0.00161433
0.000208321
-0.00179696
0.00032631
-0.00177511
0.000389383
-0.00164272
0.00044456
-0.00144462
0.000489908
-0.00122503
0.000506015
-0.00103872
0.000475497
-0.000948267
0.000396594
-0.000958067
0.000307457
-0.00104373
0.000235074
-0.00117087
0.000192659
-0.00130323
0.000182644
-0.00141484
0.000196394
-0.0014915
0.000222815
-0.00153107
0.000252091
-0.0015427
0.000276913
-0.00153945
0.000294513
-0.00153231
0.000306533
-0.00153127
0.000316926
-0.00154767
0.000332063
-0.00159557
0.00036185
-0.00169092
0.000421537
-0.00184897
0.000534216
-0.00208152
0.000729033
-0.00241209
0.001029
-0.00290293
0.00143934
-0.00365153
0.00190217
-0.00451654
0.00215568
-0.00423228
0.00116409
-0.0029899
0.00544576
0.00288407
0.00388845
0.000381031
0.00298199
-0.00146252
0.00160511
-0.00132953
-4.81168e-05
-0.000747423
-0.00150067
-0.000117937
-0.00241693
0.000149327
-0.0027896
0.000287311
-0.00288382
0.000302238
-0.0028517
0.000293894
-0.00275629
0.000293692
-0.00262142
0.000309418
-0.0024646
0.000332821
-0.00230859
0.000349751
-0.00218163
0.00034827
-0.00211023
0.000324925
-0.00209445
0.000291393
-0.00211871
0.000259048
-0.00216177
0.000235413
-0.00220305
0.00022362
-0.00222908
0.000222116
-0.0022342
0.00022763
-0.00221901
0.000236599
-0.00218832
0.000245926
-0.00214818
0.000254091
-0.0021037
0.00026177
-0.00205889
0.000271848
-0.00201689
0.000289793
-0.00197956
0.000324254
-0.0019463
0.000388021
-0.00191127
0.000498925
-0.00186007
0.0006776
-0.00177112
0.000939824
-0.0016187
0.00128672
-0.00129673
0.00157998
-0.000425777
0.00128444
0.000472511
0.000265306
-0.00248536
0.000322269
0.00263711
0.000148943
0.000554204
-0.00136436
5.05037e-05
-0.00272017
2.59063e-05
-0.0036139
0.000145926
-0.00398064
0.00024842
-0.00409222
0.000260539
-0.00405151
0.000246249
-0.00396071
0.000211084
-0.00384997
0.000182817
-0.00372746
0.000170852
-0.00359332
0.00017495
-0.00344969
0.000188864
-0.0033047
0.000204427
-0.00317117
0.00021441
-0.00306162
0.000215029
-0.00297888
0.000208305
-0.00291792
0.000197733
-0.00286965
0.000186776
-0.0028244
0.000178013
-0.00277514
0.000172486
-0.00271815
0.000170279
-0.0026527
0.000170792
-0.00258013
0.000173008
-0.00250253
0.000176144
-0.00242137
0.000180262
-0.00233639
0.000186536
-0.00224437
0.000197442
-0.00213736
0.000216919
-0.00200036
0.000250711
-0.00180876
0.000307022
-0.00152659
0.000395152
-0.00109846
0.000511425
-0.000402232
0.00059025
0.000604647
0.000572842
0.00161697
0.000271831
0.00219565
-0.000313729
-0.000257016
0.00176485
-0.00932543
-0.00666849
-0.0061177
-0.00608026
-0.00607215
-0.00594722
-0.00572245
-0.00548758
-0.0052684
-0.00508535
-0.00493123
-0.00478956
-0.00464422
-0.00448541
-0.00431157
-0.00412837
-0.00394527
-0.00376967
-0.0036054
-0.00345277
-0.00330949
-0.00317221
-0.0030375
-0.00290256
-0.00276564
-0.0026258
-0.00248205
-0.00233225
-0.00217179
-0.00199213
-0.00177898
-0.00150983
-0.00115285
-0.000679939
-0.000128819
0.000403408
0.000632383
0.000273572
)
;

boundaryField
{
    floor
    {
        type            calculated;
        value           nonuniform List<scalar> 
29
(
0
0
0
0
0
0
0
0
0
0
0
0
0
0
0
0
0
0
0
0
-1.50149e-06
-3.70824e-06
-5.89143e-06
-7.85027e-06
-1.58755e-06
-1.3793e-06
-4.09122e-06
-6.81486e-06
-8.41058e-06
)
;
    }
    ceiling
    {
        type            calculated;
        value           nonuniform List<scalar> 
43
(
7.07077e-06
-1.59709e-05
-2.03968e-05
2.99335e-06
1.26579e-05
1.73859e-05
2.0584e-05
2.32262e-05
2.52592e-05
2.66618e-05
2.76218e-05
2.82827e-05
2.87722e-05
2.91969e-05
2.96411e-05
3.01627e-05
3.07882e-05
3.15066e-05
3.2271e-05
3.30223e-05
3.37073e-05
3.4291e-05
3.4762e-05
3.51303e-05
3.54193e-05
3.56577e-05
3.58724e-05
3.6086e-05
3.63158e-05
3.6573e-05
3.68606e-05
3.71708e-05
3.74874e-05
3.78025e-05
3.81637e-05
3.87827e-05
4.02619e-05
4.24404e-05
4.45744e-05
4.80902e-05
8.17588e-06
5.75626e-06
-7.53203e-05
)
;
    }
    sWall
    {
        type            calculated;
        value           uniform -0.000194417;
    }
    nWall
    {
        type            calculated;
        value           nonuniform List<scalar> 6(-4.02683e-05 -3.99112e-05 -3.93646e-05 -3.24014e-05 -3.3057e-05 -3.20984e-05);
    }
    sideWalls
    {
        type            empty;
        value           nonuniform 0();
    }
    glass1
    {
        type            calculated;
        value           nonuniform List<scalar> 9(-5.46715e-05 -0.000148985 -0.000229844 -0.000299787 -0.00036015 -0.000412278 -0.000462555 -0.000520236 -0.000583649);
    }
    glass2
    {
        type            calculated;
        value           nonuniform List<scalar> 2(-0.000185599 -0.000148216);
    }
    sun
    {
        type            calculated;
        value           uniform 0;
    }
    heatsource1
    {
        type            calculated;
        value           nonuniform List<scalar> 3(2.0228e-07 2.02566e-07 2.02783e-07);
    }
    heatsource2
    {
        type            calculated;
        value           nonuniform List<scalar> 4(5.08618e-08 5.10681e-08 0 0);
    }
    Table_master
    {
        type            calculated;
        value           nonuniform List<scalar> 9(-1.52248e-07 -1.52433e-07 -1.5247e-07 -1.52452e-07 -1.52394e-07 -1.52319e-07 -1.5221e-07 -1.52093e-07 -1.51946e-07);
    }
    Table_slave
    {
        type            calculated;
        value           nonuniform List<scalar> 9(1.52005e-07 1.5199e-07 1.51947e-07 1.51911e-07 1.5189e-07 1.51886e-07 1.51899e-07 1.51931e-07 1.51989e-07);
    }
    inlet
    {
        type            calculated;
        value           uniform -0.00686616;
    }
    outlet
    {
        type            calculated;
        value           nonuniform List<scalar> 2(-0.00157798 0.0111057);
    }
}


// ************************************************************************* //
