/*--------------------------------*- C++ -*----------------------------------*\
  =========                 |
  \\      /  F ield         | OpenFOAM: The Open Source CFD Toolbox
   \\    /   O peration     | Website:  https://openfoam.org
    \\  /    A nd           | Version:  6
     \\/     M anipulation  |
\*---------------------------------------------------------------------------*/
FoamFile
{
    version     2.0;
    format      ascii;
    class       surfaceScalarField;
    location    "600";
    object      phi;
}
// * * * * * * * * * * * * * * * * * * * * * * * * * * * * * * * * * * * * * //

dimensions      [1 0 -1 0 0 0 0];

internalField   nonuniform List<scalar> 
852
(
-0.00324183
0.00329747
-0.00455913
0.00131726
-0.0051906
0.000631442
-0.00521679
2.61591e-05
-0.00453746
-0.000679365
-0.00311091
-0.00142658
-0.001135
-0.00197596
0.000874828
-0.00200995
0.00239115
-0.00151644
0.00340595
-0.00101491
0.00393984
-0.000534017
0.00401025
-7.05363e-05
0.00359178
0.000418338
0.00249926
0.00109239
0.00250084
-0.000977606
0.000978927
-0.00134372
0.000365793
-0.000866935
-0.000477126
-3.56122e-05
-0.000831645
0.000806141
-0.000842041
0.0014807
-0.000674836
0.0018846
-0.000404196
0.00208998
-0.000205668
0.00223985
-0.000150173
0.00238772
-0.000148185
0.00253583
-0.000148439
0.0026622
-0.000126717
0.00273683
-7.49932e-05
0.00273133
5.12645e-06
0.00261167
0.000119254
0.0023253
0.000285928
0.00182407
0.000500752
0.0010879
0.000735707
0.00108902
-0.0023244
0.00577315
-0.0035152
0.00250803
-0.00418169
0.0012979
-0.0042619
0.000106348
-0.00367586
-0.00126541
-0.00246274
-0.00263971
-0.00091387
-0.00352486
0.000597013
-0.00352094
0.0018505
-0.00277006
0.00271987
-0.00188443
0.00321652
-0.00103082
0.0033854
-0.000239573
0.00328518
0.000518405
0.00309219
0.00128523
0.00357058
0.0020223
0.0017265
0.00184388
0.0017263
-0.000397748
0.00138121
-6.42304e-05
3.19918e-05
0.000594441
-0.00113615
0.00111586
-0.00135337
0.00156813
-0.00129457
0.00193576
-0.00104273
0.00202394
-0.00049263
0.00203942
-0.000221423
0.00206079
-0.000171833
0.00208971
-0.000177413
0.00212802
-0.000187126
0.00216531
-0.000164423
0.00217118
-8.12983e-05
0.00212472
5.11487e-05
0.00200641
0.000237105
0.0017261
0.000565768
0.00128448
0.000941913
0.000714351
0.00130543
0.00180714
-0.00164201
0.00764815
-0.00263851
0.0035045
-0.00325394
0.00191331
-0.00334569
0.000198089
-0.00279505
-0.00181606
-0.00171303
-0.0037217
-0.000470855
-0.00476704
0.000658956
-0.00465086
0.00161495
-0.00372622
0.00229507
-0.00256473
0.00269426
-0.0014302
0.00287084
-0.000416341
0.00290398
0.000485087
0.00288397
0.00130506
0.00282166
0.00208445
0.00206138
0.002604
0.00378752
0.000928517
0.000460453
0.00170159
-0.000741429
0.00190263
-0.0013375
0.00208231
-0.0015333
0.00225402
-0.00146651
0.00256996
-0.00135886
0.00207726
0.00185575
0.0016838
0.0015062
0.00131877
0.00115388
0.00107208
0.00112287
0.00135974
0.00120199
0.000723154
0.000935856
0.00120769
0.000532514
0.00170845
0.00234583
-0.00114924
0.00910091
-0.00192042
0.00427565
-0.00235916
0.00235203
-0.00233439
0.000173309
-0.00170818
-0.00244224
-0.000745449
-0.00468439
0.000171741
-0.00568423
0.000949444
-0.00542867
0.00158723
-0.00436419
0.00201987
-0.0029976
0.0022518
-0.00166237
0.00234875
-0.000513508
0.00238998
0.000443655
0.0024478
0.00124704
0.00259845
0.00193363
0.00288255
0.00231974
0.00422673
0.00244317
0.00309764
0.00113837
0.00332785
0.000229983
0.00318951
-0.000603337
0.00297669
-0.00112488
0.00274691
-0.00130369
0.00250567
-0.00122543
0.00209392
-0.000947268
0.00244919
-0.000355571
0.0025381
-8.92191e-05
0.0025241
1.36907e-05
0.00244886
7.49283e-05
0.00232555
0.000122987
0.00215939
0.000165826
0.00194463
0.000214428
0.00165753
0.00028676
0.00123546
0.00042173
0.00108262
0.000875751
0.000859244
0.0014308
0.000568455
0.00199898
0.00292256
-0.000792175
0.0102575
-0.00134905
0.00483248
-0.00145607
0.00245901
-0.0010713
-0.00021149
-0.000280319
-0.00323318
0.00046434
-0.00542896
0.00100756
-0.00622743
0.00140135
-0.00582256
0.00166697
-0.00463003
0.00178177
-0.00311268
0.00177643
-0.0016573
0.00173239
-0.00046973
0.00173783
0.000437993
0.00186695
0.00111771
0.002183
0.0016174
0.0026546
0.00184797
0.00328194
0.00181567
0.0033757
0.00104445
0.00344342
0.000162093
0.00329154
-0.0004516
0.00298026
-0.000813739
0.00260849
-0.000932052
0.00223472
-0.000851791
0.00190615
-0.000618839
0.00181231
-0.000261879
0.00171909
3.84284e-06
0.00159125
0.000141365
0.00145842
0.000207583
0.00133025
0.000250972
0.00120452
0.000291357
0.00107617
0.000342571
0.000940193
0.000422528
0.000799429
0.00056228
0.000778623
0.000896333
0.000830451
0.00137874
0.000944383
0.00188484
0.00170378
0.00216297
0.000560299
0.00114312
-0.00054992
0.00111014
-0.000513955
-0.000611575
0.0112866
-0.000867689
0.00508855
-0.000277081
0.00186836
0.000644016
-0.00113261
0.00144261
-0.00403171
0.00186923
-0.00585548
0.00200764
-0.00636582
0.00194507
-0.00576011
0.00174995
-0.00443517
0.00146687
-0.00282992
0.00116351
-0.00135426
0.000945314
-0.00025181
0.000901537
0.000481534
0.00105765
0.000961396
0.00139165
0.00128321
0.00183283
0.00140661
0.00235811
0.00129023
0.00266325
0.000739166
0.002673
0.000152202
0.0024873
-0.000266031
0.00217204
-0.000498618
0.00179871
-0.000558868
0.0014251
-0.000478325
0.00110107
-0.000294979
0.000880151
-4.1128e-05
0.000728987
0.000154823
0.00061524
0.00025492
0.000520314
0.000302308
0.000441159
0.000329918
0.000378306
0.000353994
0.00033478
0.000385873
0.000317825
0.00043925
0.000342183
0.000537681
0.000481702
0.00075657
0.000781253
0.00107895
0.00125515
0.00141071
0.00190345
0.00151447
0.00211931
0.00092706
0.00215511
0.00107419
0.00168375
-0.000351144
0.0121075
5.39624e-05
0.0046834
0.00162521
0.000297056
0.00283704
-0.00234443
0.0034348
-0.00462938
0.00347583
-0.00589639
0.00307762
-0.00596759
0.00241879
-0.00510143
0.00165885
-0.00367554
0.000916689
-0.00208814
0.000308176
-0.000746094
-1.19793e-05
6.80431e-05
-4.12882e-05
0.000510605
0.000145607
0.00077429
0.000480137
0.000948493
0.00089025
0.000996318
0.00131005
0.000870265
0.0015265
0.000522562
0.00150624
0.000172299
0.00131986
-7.98086e-05
0.00103007
-0.000209014
0.000692977
-0.000221961
0.000357709
-0.000143256
6.51418e-05
-2.62223e-06
-0.000131789
0.000155587
-0.000239116
0.00026193
-0.000302864
0.000318444
-0.000345476
0.000344694
-0.000370936
0.000355146
-0.000376159
0.000358977
-0.000354894
0.000364357
-0.00029823
0.00038232
-0.000192112
0.000431285
2.01161e-05
0.000544057
0.000391368
0.000707408
0.000973361
0.000828438
0.00175199
0.000735562
0.00222303
0.000455744
0.0019695
0.00132748
0.00369353
0.00327515
0.00936178
0.00442183
0.00353668
0.00517504
-0.000456205
0.0058977
-0.00306705
0.00590251
-0.00463404
0.00516177
-0.00515553
0.00391975
-0.0047256
0.00247577
-0.00365768
0.00107904
-0.0022792
-8.08602e-05
-0.000928677
-0.000763818
-6.34733e-05
-0.000995031
0.000298978
-0.00095696
0.000472285
-0.000770116
0.000587219
-0.000485068
0.000663235
-0.000161116
0.000672166
0.000120855
0.000588098
0.000235395
0.000407824
0.000180834
0.000226649
4.37097e-06
9.64208e-05
-0.000242763
3.78757e-05
-0.000512694
4.77129e-05
-0.000759076
0.000102865
-0.000941617
0.000179659
-0.00104193
0.000255647
-0.0010902
0.000309945
-0.00111142
0.000339416
-0.00111793
0.000350952
-0.0011143
0.000351257
-0.00110299
0.000347395
-0.00108903
0.000350114
-0.00108427
0.000377256
-0.00111006
0.000456752
-0.00119155
0.000625206
-0.00138198
0.000897489
-0.00177489
0.00122099
-0.0024908
0.00145115
-0.00352211
0.00148678
-0.00350628
0.00131138
0.000371202
0.00995068
0.0134833
0.0117484
0.00127872
0.0101331
-0.00145157
0.00817154
-0.00267228
0.00594642
-0.00293033
0.00360417
-0.00238353
0.00133996
-0.00139382
-0.000461283
-0.000478473
-0.00151878
0.000128403
-0.00189616
0.000313554
-0.0019574
0.000359915
-0.00187499
0.000389589
-0.00171192
0.000423877
-0.00150401
0.000455069
-0.00129469
0.000462587
-0.00113755
0.000430711
-0.00108865
0.000358657
-0.00114332
0.000281047
-0.00126966
0.000222461
-0.00142687
0.000194791
-0.00157724
0.000197776
-0.00169637
0.000221691
-0.00177243
0.000255422
-0.00180604
0.000288963
-0.00181074
0.000314359
-0.00180099
0.000329384
-0.00178639
0.000336063
-0.0017739
0.000338489
-0.00177077
0.000343958
-0.0017861
0.000365138
-0.00183147
0.000422292
-0.00191986
0.000544806
-0.00206246
0.000767462
-0.0022791
0.0011138
-0.00262876
0.00157034
-0.00321
0.00203211
-0.00392032
0.0021968
-0.00358376
0.000974397
-0.00308015
0.00566283
0.00252079
0.00403976
0.000171692
0.00282062
-0.00145321
0.00116841
-0.00127841
-0.000622846
-0.000592823
-0.00203318
1.60218e-05
-0.00277453
0.000262426
-0.00299159
0.000345066
-0.00300242
0.000324005
-0.00293473
0.000291875
-0.00282568
0.000280193
-0.00269241
0.000290269
-0.00254922
0.000311551
-0.00241668
0.000329722
-0.0023193
0.000332991
-0.00227793
0.000316952
-0.00228821
0.000290976
-0.00233166
0.000265551
-0.00238539
0.000248168
-0.00242955
0.000241574
-0.00245253
0.000244317
-0.00245055
0.000253096
-0.00242584
0.000263915
-0.0023847
0.000272893
-0.00233359
0.00027794
-0.00227703
0.000279177
-0.00221813
0.000279259
-0.00215902
0.000284502
-0.00210046
0.000306233
-0.00204039
0.00036187
-0.00197056
0.000474613
-0.00187221
0.000668764
-0.00171752
0.000958775
-0.00148093
0.00133344
-0.00106893
0.00161982
-0.000131713
0.0012593
0.000637566
0.000204749
-0.00241208
0.000176711
0.00241494
-0.000277587
0.000625307
-0.00182014
8.88032e-05
-0.0031549
5.58335e-05
-0.00393467
0.000186432
-0.00419395
0.000274827
-0.00421583
0.000283848
-0.00412704
0.000255838
-0.00401396
0.000210491
-0.00389881
0.000176299
-0.00378176
0.000162727
-0.00365916
0.000167259
-0.00353092
0.000182891
-0.00340299
0.000201385
-0.00328571
0.000215297
-0.00318924
0.000220061
-0.00311534
0.000216657
-0.00305862
0.000208406
-0.00300999
0.000199117
-0.00296043
0.000191594
-0.00290361
0.000187082
-0.0028365
0.00018558
-0.00275905
0.000186067
-0.00267347
0.000186917
-0.00258283
0.000186901
-0.0024899
0.000185854
-0.00239612
0.000185078
-0.00229979
0.000187771
-0.0021933
0.000199345
-0.00205952
0.000227696
-0.00186866
0.000283373
-0.00157759
0.000377318
-0.00112447
0.000505288
-0.000387849
0.000596481
0.000649188
0.000582457
0.00164382
0.00026434
0.00216927
-0.000321064
-0.000211867
0.00232954
-0.00930257
-0.00687326
-0.0062542
-0.00618128
-0.00614625
-0.00598389
-0.00573572
-0.00548035
-0.00525422
-0.00507426
-0.00492906
-0.00479784
-0.00466246
-0.00451184
-0.00434323
-0.0041613
-0.00397533
-0.00379353
-0.00362075
-0.00345794
-0.00330324
-0.0031535
-0.0030056
-0.00285745
-0.00270861
-0.00255991
-0.00241234
-0.00226563
-0.00211633
-0.0019556
-0.00176673
-0.00152243
-0.00118448
-0.000718951
-0.000162897
0.000377683
0.000598132
0.000231244
)
;

boundaryField
{
    floor
    {
        type            calculated;
        value           nonuniform List<scalar> 
29
(
0
0
0
0
0
0
0
0
0
0
0
0
0
0
0
0
0
0
0
0
-1.44643e-06
-4.05591e-06
-6.41194e-06
-8.4863e-06
-1.71831e-06
-1.61288e-06
-4.81373e-06
-8.0408e-06
-9.44756e-06
)
;
    }
    ceiling
    {
        type            calculated;
        value           nonuniform List<scalar> 
43
(
2.22271e-05
-7.88068e-06
-1.52094e-05
5.67088e-06
1.53436e-05
2.02636e-05
2.35491e-05
2.61317e-05
2.79584e-05
2.91865e-05
3.00148e-05
3.05802e-05
3.09963e-05
3.13639e-05
3.17647e-05
3.22557e-05
3.28635e-05
3.35775e-05
3.43486e-05
3.51109e-05
3.58028e-05
3.63837e-05
3.68393e-05
3.71772e-05
3.74175e-05
3.75844e-05
3.77012e-05
3.77905e-05
3.78773e-05
3.79882e-05
3.8146e-05
3.8361e-05
3.86282e-05
3.89425e-05
3.93457e-05
4.00256e-05
4.14807e-05
4.34712e-05
4.53453e-05
4.89799e-05
6.14805e-06
4.03036e-06
-7.10663e-05
)
;
    }
    sWall
    {
        type            calculated;
        value           uniform -0.000175846;
    }
    nWall
    {
        type            calculated;
        value           nonuniform List<scalar> 6(-3.62906e-05 -4.28323e-05 -4.05439e-05 -3.08818e-05 -3.13285e-05 -3.0139e-05);
    }
    sideWalls
    {
        type            empty;
        value           nonuniform 0();
    }
    glass1
    {
        type            calculated;
        value           nonuniform List<scalar> 9(-5.56731e-05 -0.000151306 -0.000233012 -0.000303526 -0.00036446 -0.000417462 -0.000469785 -0.000529467 -0.000595073);
    }
    glass2
    {
        type            calculated;
        value           nonuniform List<scalar> 2(-0.000184199 -0.000133092);
    }
    sun
    {
        type            calculated;
        value           uniform 0;
    }
    heatsource1
    {
        type            calculated;
        value           nonuniform List<scalar> 3(2.02426e-07 2.02578e-07 2.02653e-07);
    }
    heatsource2
    {
        type            calculated;
        value           nonuniform List<scalar> 4(5.09056e-08 5.11294e-08 0 0);
    }
    Table_master
    {
        type            calculated;
        value           nonuniform List<scalar> 9(-1.52243e-07 -1.5244e-07 -1.52483e-07 -1.52493e-07 -1.52472e-07 -1.52408e-07 -1.52313e-07 -1.52214e-07 -1.52089e-07);
    }
    Table_slave
    {
        type            calculated;
        value           nonuniform List<scalar> 9(1.52052e-07 1.52054e-07 1.52017e-07 1.51986e-07 1.51976e-07 1.51983e-07 1.52006e-07 1.52046e-07 1.52109e-07);
    }
    inlet
    {
        type            calculated;
        value           uniform -0.00690461;
    }
    outlet
    {
        type            calculated;
        value           nonuniform List<scalar> 2(-0.00217697 0.011639);
    }
}


// ************************************************************************* //
