/*--------------------------------*- C++ -*----------------------------------*\
  =========                 |
  \\      /  F ield         | OpenFOAM: The Open Source CFD Toolbox
   \\    /   O peration     | Website:  https://openfoam.org
    \\  /    A nd           | Version:  6
     \\/     M anipulation  |
\*---------------------------------------------------------------------------*/
FoamFile
{
    version     2.0;
    format      ascii;
    class       volScalarField;
    location    "500";
    object      alphat;
}
// * * * * * * * * * * * * * * * * * * * * * * * * * * * * * * * * * * * * * //

dimensions      [1 -1 -1 0 0 0 0];

internalField   nonuniform List<scalar> 
459
(
0.00084431
0.00086014
0.000716922
0.000731883
0.000758915
0.000786927
0.000815051
0.000843534
0.000873364
0.000902071
0.000926496
0.000944806
0.000955301
0.000956342
0.000942003
0.000356315
0.000474546
0.00033282
0.000283587
0.000261627
0.000246946
0.000241702
0.000245701
0.00025961
0.000277586
0.000296877
0.000316384
0.000336411
0.000364017
0.000406682
0.000460858
0.00050941
0.000508182
0.000460542
0.00153618
0.00296858
0.00185084
0.00278279
0.00310209
0.00332016
0.00354314
0.00375495
0.00392555
0.00405056
0.00410882
0.00405464
0.00381131
0.0032525
0.00224532
0.00102605
0.000682782
0.00050005
0.00202234
0.00119132
0.000865014
0.000646838
0.000449825
0.00037447
0.000369618
0.000425916
0.00052505
0.000663926
0.000837114
0.00102656
0.00117676
0.00136678
0.00171658
0.0015092
0.00127309
0.000522926
0.00213609
0.00526151
0.00215671
0.00347608
0.00461695
0.00498999
0.00524607
0.00546264
0.00562792
0.00573925
0.00577104
0.00567006
0.00534983
0.00469037
0.00360948
0.00227509
0.00111245
0.000835428
0.00271989
0.00217191
0.00176382
0.00141328
0.00104805
0.000293309
0.000285369
0.000348473
0.000409638
0.000468418
0.000528667
0.000595089
0.000675676
0.000787795
0.00222377
0.00205233
0.00157993
0.000802353
0.00268377
0.00795403
0.00311084
0.00328412
0.00514468
0.00579628
0.00611676
0.00637194
0.00658496
0.00675757
0.00689076
0.00693522
0.00679843
0.00633506
0.00537405
0.00387611
0.00224916
0.00129618
0.00317295
0.00340383
0.00321054
0.00267272
0.00208517
0.00143107
0.000902355
0.000885797
0.000873212
0.000863946
0.000861566
0.000871636
0.000901047
0.00095802
0.00105712
0.00311894
0.00330515
0.00291801
0.00112403
0.00317458
0.0106697
0.00492569
0.00333825
0.00485076
0.00579905
0.0062698
0.00661883
0.00692062
0.00720532
0.00753242
0.00787542
0.00817706
0.00835681
0.00832285
0.00800651
0.00742923
0.00676944
0.00656523
0.00639027
0.00627721
0.00609953
0.00585507
0.00556903
0.0052652
0.00504036
0.0047817
0.00449222
0.00420314
0.00396556
0.00382837
0.00381091
0.00390148
0.00409766
0.00412883
0.00406881
0.00352658
0.00152458
0.00132621
0.0011466
0.00362204
0.0129896
0.00784436
0.00472729
0.00438185
0.00500189
0.00563472
0.00613299
0.00650507
0.00688993
0.00738503
0.00797641
0.00861125
0.00921199
0.00968945
0.00995935
0.00996639
0.00973096
0.00937385
0.00899644
0.00867882
0.00844056
0.00824499
0.00804814
0.0078091
0.00750952
0.00713012
0.00666152
0.00611706
0.00555374
0.00506567
0.00472741
0.00453921
0.00444234
0.00436356
0.00423005
0.00391477
0.00329396
0.00242833
0.00120394
0.00400089
0.0143911
0.0113434
0.00784144
0.00558493
0.00482009
0.0049968
0.00542128
0.00572135
0.00607122
0.00656754
0.00724494
0.00806949
0.00894778
0.00975891
0.0103833
0.0107224
0.0107596
0.0105696
0.0102777
0.00999461
0.009771
0.0095975
0.00944213
0.00926839
0.00905199
0.00877154
0.00839329
0.00787633
0.00720475
0.006441
0.00572982
0.0051887
0.00481824
0.00453404
0.00422765
0.00379391
0.00319718
0.0025001
0.00120588
0.00402093
0.0130426
0.0116167
0.0104211
0.00839227
0.00678476
0.00595307
0.00565575
0.00556562
0.00558478
0.00577058
0.00618291
0.00685693
0.00775666
0.00875148
0.00966756
0.0103101
0.0106316
0.0106855
0.0105724
0.0103998
0.010237
0.0101052
0.00999817
0.00990066
0.00980293
0.00969736
0.00956274
0.00935225
0.00899276
0.00842209
0.00766595
0.00683725
0.0060893
0.00546615
0.00491315
0.00437824
0.00383892
0.00341502
0.00174803
0.0038339
0.00442911
0.00960709
0.010325
0.00920011
0.00789835
0.00686605
0.00616004
0.00570539
0.00544627
0.00537849
0.00549866
0.00582938
0.00640174
0.00719356
0.00808135
0.00887657
0.00945008
0.00977321
0.00989323
0.00989002
0.00983352
0.00976578
0.00970504
0.0096574
0.00962935
0.0096306
0.0096675
0.00973176
0.00978198
0.00971419
0.00944733
0.0090086
0.00856005
0.00832784
0.00825646
0.00776183
0.00662791
0.00667418
0.00193933
0.0205567
0.0194411
0.011308
0.0089059
0.00763126
0.00679579
0.00623081
0.00585842
0.00562952
0.00552663
0.00555247
0.00572112
0.00604738
0.00651937
0.00707601
0.00762199
0.0080723
0.00838681
0.00857273
0.00866225
0.00868991
0.00868439
0.00866775
0.0086589
0.00867669
0.00873953
0.0088607
0.00903479
0.00920323
0.0093051
0.00928407
0.00912853
0.00889064
0.00850068
0.00775035
0.00663726
0.00561384
0.001872
0.00748599
0.0156406
0.011009
0.00864564
0.00732888
0.00649372
0.00594531
0.00559394
0.00538361
0.0052885
0.00529849
0.00540643
0.00560379
0.00586822
0.0061807
0.00651018
0.00681869
0.00707511
0.00726508
0.00738916
0.00744509
0.00744995
0.00742454
0.00738781
0.00735572
0.00734092
0.00735201
0.00738897
0.0074201
0.00743813
0.00742063
0.00734275
0.00716047
0.00673994
0.00611499
0.00521544
0.00493832
0.00170297
0.00202106
0.00304275
0.0054129
0.0049173
0.00407686
0.00342266
0.00294376
0.00258731
0.0023145
0.00210114
0.00193355
0.00180287
0.00170203
0.00162646
0.00157319
0.00154089
0.00152583
0.00152348
0.00152857
0.00153603
0.001542
0.00154439
0.00154406
0.00154065
0.00153426
0.00152553
0.00151527
0.0015043
0.0014933
0.00148283
0.00147669
0.00147255
0.00146619
0.00145136
0.00142318
0.00139178
0.00135327
0.00130569
0.00133213
0.00122906
)
;

boundaryField
{
    floor
    {
        type            compressible::alphatWallFunction;
        Prt             0.85;
        value           nonuniform List<scalar> 
29
(
0.000134106
4.66941e-05
6.51762e-05
4.29251e-05
3.49453e-05
3.13255e-05
2.8878e-05
2.79997e-05
2.86697e-05
3.09957e-05
3.39799e-05
3.71547e-05
4.03382e-05
4.35828e-05
4.80195e-05
5.47892e-05
6.32538e-05
7.07252e-05
7.05246e-05
6.31818e-05
6.3181e-05
7.27585e-05
0.000114215
0.000159762
0.000134105
4.66935e-05
6.91742e-05
0.000118778
0.000183329
)
;
    }
    ceiling
    {
        type            compressible::alphatWallFunction;
        Prt             0.85;
        value           nonuniform List<scalar> 
43
(
0.000280278
0.000410197
0.000696197
0.000637629
0.000536952
0.000457138
0.000397724
0.00035285
0.000318064
0.000290554
0.000268733
0.000251573
0.000238238
0.000228184
0.000221065
0.000216732
0.000214706
0.000214385
0.000215065
0.000216062
0.000216859
0.000217177
0.00021713
0.000216669
0.000215811
0.000214637
0.000213257
0.000211782
0.0002103
0.00020889
0.000208061
0.000207501
0.000206641
0.000204638
0.000200828
0.000196573
0.00019134
0.000184853
0.000188457
0.000174344
0.000507408
0.000579289
0.000935905
)
;
    }
    sWall
    {
        type            compressible::alphatWallFunction;
        Prt             0.85;
        value           uniform 0.000279325;
    }
    nWall
    {
        type            compressible::alphatWallFunction;
        Prt             0.85;
        value           nonuniform List<scalar> 6(0.000162638 0.000170562 0.000170834 0.000260246 0.000237947 0.000174034);
    }
    sideWalls
    {
        type            empty;
    }
    glass1
    {
        type            compressible::alphatWallFunction;
        Prt             0.85;
        value           nonuniform List<scalar> 9(0.000116881 0.000211115 0.00028918 0.000358551 0.00041956 0.000474397 0.000520336 0.000522906 0.000500553);
    }
    glass2
    {
        type            compressible::alphatWallFunction;
        Prt             0.85;
        value           nonuniform List<scalar> 2(0.000242851 0.000267915);
    }
    sun
    {
        type            compressible::alphatWallFunction;
        Prt             0.85;
        value           nonuniform List<scalar> 
14
(
0.000120186
0.000122439
0.000101692
0.000103883
0.000107825
0.000111893
0.00011596
0.000120061
0.000124339
0.00012844
0.000131916
0.000134514
0.000135999
0.000136143
)
;
    }
    heatsource1
    {
        type            compressible::alphatWallFunction;
        Prt             0.85;
        value           nonuniform List<scalar> 3(0.000214436 0.000187598 0.00016291);
    }
    heatsource2
    {
        type            compressible::alphatWallFunction;
        Prt             0.85;
        value           nonuniform List<scalar> 4(0.000146071 9.67807e-05 9.67796e-05 0.000158129);
    }
    Table_master
    {
        type            compressible::alphatWallFunction;
        Prt             0.85;
        value           nonuniform List<scalar> 9(3.665e-05 3.53517e-05 4.56095e-05 5.53251e-05 6.44878e-05 7.37298e-05 8.37678e-05 9.57629e-05 0.000112165);
    }
    Table_slave
    {
        type            compressible::alphatWallFunction;
        Prt             0.85;
        value           nonuniform List<scalar> 9(0.000128595 0.000126235 0.000124437 0.000123111 0.000122771 0.000124214 0.000128417 0.000136514 0.000150465);
    }
    inlet
    {
        type            fixedValue;
        value           uniform 1.94e-05;
    }
    outlet
    {
        type            zeroGradient;
    }
}


// ************************************************************************* //
