/*--------------------------------*- C++ -*----------------------------------*\
  =========                 |
  \\      /  F ield         | OpenFOAM: The Open Source CFD Toolbox
   \\    /   O peration     | Website:  https://openfoam.org
    \\  /    A nd           | Version:  6
     \\/     M anipulation  |
\*---------------------------------------------------------------------------*/
FoamFile
{
    version     2.0;
    format      ascii;
    class       volScalarField;
    location    "500";
    object      epsilon;
}
// * * * * * * * * * * * * * * * * * * * * * * * * * * * * * * * * * * * * * //

dimensions      [0 2 -3 0 0 0 0];

internalField   nonuniform List<scalar> 
459
(
0.00013641
0.000143766
8.32412e-05
8.85729e-05
9.87643e-05
0.000110119
0.000122362
0.000135652
0.000150567
0.000165913
0.000179757
0.000190614
0.000197012
0.000197617
0.000188807
1.01034e-05
2.38081e-05
8.23331e-06
5.10958e-06
4.01838e-06
3.38167e-06
3.17201e-06
3.33144e-06
3.92938e-06
4.80398e-06
5.87807e-06
7.1168e-06
8.56046e-06
1.08572e-05
1.51588e-05
2.20884e-05
2.98504e-05
2.96135e-05
2.20184e-05
0.000823702
0.00187783
0.00017121
7.01259e-05
6.90933e-05
7.5111e-05
8.23715e-05
9.07212e-05
0.000100702
0.000112325
0.000125271
0.00013929
0.000153437
0.00016575
0.000179343
0.000243902
7.17906e-05
2.79934e-05
0.000135526
2.63081e-05
1.45292e-05
1.24151e-05
6.09876e-06
2.84051e-06
3.28221e-06
5.09806e-06
7.87787e-06
1.16195e-05
1.63854e-05
2.25437e-05
3.08776e-05
4.00961e-05
4.44619e-05
4.55706e-05
6.48659e-05
3.2243e-05
0.00221961
0.00640781
0.000568428
0.000103764
7.63466e-05
8.00686e-05
8.81844e-05
9.81162e-05
0.000109757
0.000123216
0.000138046
0.000154004
0.000170514
0.000186537
0.000203119
0.000231904
0.000310689
0.000130692
0.000213796
7.50892e-05
5.87809e-05
5.94836e-05
5.98907e-05
5.65187e-06
5.20905e-06
9.49628e-06
1.54498e-05
2.31369e-05
3.33133e-05
4.7584e-05
6.97523e-05
0.00011072
8.45801e-05
8.55027e-05
0.000111345
0.000117251
0.00441116
0.0137468
0.00153044
0.000192964
9.70709e-05
9.43492e-05
0.0001032
0.000115211
0.000129109
0.000144769
0.000161075
0.000177764
0.000194587
0.00021124
0.000229496
0.000259371
0.000330231
0.000491175
0.000244788
0.000120466
9.51524e-05
9.42009e-05
0.000103335
0.000123239
0.00016641
0.00015746
0.000150884
0.000146174
0.000145016
0.000150218
0.000166019
0.000199646
0.000268356
0.000166437
0.000190876
0.000215328
0.00032338
0.00731489
0.0226075
0.00337121
0.000436329
0.000154035
0.000127304
0.000133231
0.000146905
0.000163925
0.000182632
0.000200813
0.000218789
0.000236464
0.0002516
0.000259567
0.000255386
0.00023742
0.000203939
0.00014915
0.000117322
0.000106513
0.000105665
0.000108146
0.000111145
0.000112982
0.000111993
0.000112346
0.000115293
0.000122332
0.000135463
0.000157049
0.000189388
0.000233625
0.000285742
0.000365303
0.000466423
0.000566685
0.000807171
0.000531122
0.000343184
0.010883
0.0297761
0.00650695
0.001268
0.000407859
0.000250086
0.000222328
0.000225131
0.000239531
0.000253824
0.000266125
0.000279972
0.000297605
0.000317249
0.000332582
0.000334336
0.000314466
0.000273363
0.000224435
0.000186667
0.000164949
0.000156003
0.000153282
0.000152457
0.000151155
0.000149509
0.000149269
0.000151826
0.00015911
0.000174133
0.000201143
0.000245252
0.000311685
0.000405067
0.000529285
0.000676197
0.000802761
0.000831301
0.000502779
0.00039733
0.0146905
0.0321222
0.0119491
0.00435128
0.00179401
0.000902178
0.000608248
0.000494845
0.000452243
0.000415673
0.000386104
0.000369358
0.000368819
0.000382487
0.000402376
0.000415356
0.000407801
0.000375851
0.000329464
0.000285137
0.000253281
0.00023466
0.0002249
0.000219574
0.000215726
0.00021286
0.00021188
0.00021403
0.000221349
0.000237454
0.00026821
0.000321137
0.000403474
0.000520263
0.000671878
0.000844224
0.000992826
0.00105477
0.000968276
0.000399341
0.0149459
0.0351201
0.0208149
0.0142663
0.00799563
0.00421361
0.00238394
0.00151333
0.00105835
0.000801259
0.000634853
0.000528672
0.000469527
0.000448401
0.000455016
0.000473727
0.000482215
0.000468562
0.000435798
0.000396225
0.000361499
0.000336344
0.000319879
0.00030922
0.000301724
0.000296491
0.000293955
0.000295264
0.000302681
0.000320645
0.00035744
0.000424232
0.000532729
0.000687307
0.000877505
0.00109127
0.00133768
0.00165042
0.00202201
0.00122006
0.0129953
0.0200021
0.0492048
0.0361948
0.020513
0.0112143
0.0062733
0.00369132
0.00229687
0.00150481
0.00104832
0.000782181
0.00062883
0.00054798
0.000517152
0.000518416
0.000531249
0.000537742
0.000529629
0.000509503
0.000484998
0.000462132
0.000443278
0.000428352
0.000416379
0.00040682
0.000399821
0.000396036
0.000396859
0.000405116
0.000426135
0.000466183
0.00053527
0.000643344
0.000797305
0.000996172
0.00119555
0.0015148
0.00426689
0.00166613
0.144754
0.133743
0.029153
0.0125255
0.00670577
0.00398855
0.0025633
0.00176125
0.00128319
0.000991199
0.000811501
0.000704085
0.00064691
0.000625849
0.00062907
0.000643816
0.000658084
0.00066461
0.000662135
0.000652947
0.000639543
0.000624129
0.00060825
0.000592929
0.000578937
0.000566891
0.000557396
0.000551158
0.000549237
0.00055326
0.000565674
0.000587001
0.000610921
0.000621498
0.000635483
0.0007276
0.00145799
0.0014972
0.0987646
0.0720401
0.0244778
0.0111314
0.00616504
0.00387388
0.00267569
0.00199958
0.00160146
0.00136212
0.00122177
0.00114759
0.00111994
0.00112263
0.00114239
0.00116668
0.00118504
0.00119168
0.00118595
0.00117039
0.00114658
0.00111701
0.00108417
0.00104993
0.00101519
0.000979851
0.000943022
0.00090377
0.000856017
0.000799739
0.000741108
0.00068961
0.000653956
0.000632612
0.000629324
0.000672672
0.00171293
0.00112737
0.00194905
0.00664359
0.0373171
0.027847
0.0158128
0.00933395
0.00592921
0.0040212
0.00287614
0.0021503
0.00167464
0.00135669
0.00114086
0.000994952
0.000899822
0.000845025
0.000820011
0.000815755
0.000823514
0.000835175
0.000844496
0.000847982
0.000846989
0.00084094
0.000830101
0.000815586
0.000798833
0.000781218
0.000763814
0.000747493
0.000737855
0.00073127
0.000721453
0.000699448
0.000659226
0.000616331
0.00056638
0.00050857
0.000539911
0.000424001
)
;

boundaryField
{
    floor
    {
        Cmu             0.09;
        kappa           0.41;
        E               9.8;
        type            epsilonWallFunction;
        value           nonuniform List<scalar> 
29
(
0.000188807
1.01034e-05
2.38081e-05
8.23331e-06
5.10958e-06
4.01838e-06
3.38167e-06
3.17201e-06
3.33144e-06
3.92938e-06
4.80398e-06
5.87807e-06
7.1168e-06
8.56046e-06
1.08572e-05
1.51588e-05
2.20884e-05
2.98504e-05
2.96135e-05
2.20184e-05
2.20184e-05
3.2243e-05
0.000117251
0.00032338
0.000188807
1.01034e-05
2.79934e-05
0.000130692
0.000491175
)
;
    }
    ceiling
    {
        Cmu             0.09;
        kappa           0.41;
        E               9.8;
        type            epsilonWallFunction;
        value           nonuniform List<scalar> 
43
(
0.00194905
0.00664359
0.0373171
0.027847
0.0158128
0.00933395
0.00592921
0.0040212
0.00287614
0.0021503
0.00167464
0.00135669
0.00114086
0.000994952
0.000899822
0.000845025
0.000820011
0.000815755
0.000823514
0.000835175
0.000844496
0.000847982
0.000846989
0.00084094
0.000830101
0.000815586
0.000798833
0.000781218
0.000763814
0.000747493
0.000737855
0.00073127
0.000721453
0.000699448
0.000659226
0.000616331
0.00056638
0.00050857
0.000539911
0.000424001
0.0129953
0.0200021
0.0987646
)
;
    }
    sWall
    {
        Cmu             0.09;
        kappa           0.41;
        E               9.8;
        type            epsilonWallFunction;
        value           uniform 0.00194905;
    }
    nWall
    {
        Cmu             0.09;
        kappa           0.41;
        E               9.8;
        type            epsilonWallFunction;
        value           nonuniform List<scalar> 6(0.000343184 0.00039733 0.000399341 0.0014972 0.00112737 0.000424001);
    }
    sideWalls
    {
        type            empty;
    }
    glass1
    {
        Cmu             0.09;
        kappa           0.41;
        E               9.8;
        type            epsilonWallFunction;
        value           nonuniform List<scalar> 9(0.00013641 0.000823702 0.00221961 0.00441116 0.00731489 0.010883 0.0146905 0.0149459 0.0129953);
    }
    glass2
    {
        Cmu             0.09;
        kappa           0.41;
        E               9.8;
        type            epsilonWallFunction;
        value           nonuniform List<scalar> 2(0.00122006 0.00166613);
    }
    sun
    {
        Cmu             0.09;
        kappa           0.41;
        E               9.8;
        type            epsilonWallFunction;
        value           nonuniform List<scalar> 
14
(
0.00013641
0.000143766
8.32412e-05
8.85729e-05
9.87643e-05
0.000110119
0.000122362
0.000135652
0.000150567
0.000165913
0.000179757
0.000190614
0.000197012
0.000197617
)
;
    }
    heatsource1
    {
        Cmu             0.09;
        kappa           0.41;
        E               9.8;
        type            epsilonWallFunction;
        value           nonuniform List<scalar> 3(0.000807171 0.000531122 0.000343184);
    }
    heatsource2
    {
        Cmu             0.09;
        kappa           0.41;
        E               9.8;
        type            epsilonWallFunction;
        value           nonuniform List<scalar> 4(0.000243902 7.17906e-05 7.17906e-05 0.000310689);
    }
    Table_master
    {
        Cmu             0.09;
        kappa           0.41;
        E               9.8;
        type            epsilonWallFunction;
        value           nonuniform List<scalar> 9(5.65187e-06 5.20905e-06 9.49628e-06 1.54498e-05 2.31369e-05 3.33133e-05 4.7584e-05 6.97523e-05 0.00011072);
    }
    Table_slave
    {
        Cmu             0.09;
        kappa           0.41;
        E               9.8;
        type            epsilonWallFunction;
        value           nonuniform List<scalar> 9(0.00016641 0.00015746 0.000150884 0.000146174 0.000145016 0.000150218 0.000166019 0.000199646 0.000268356);
    }
    inlet
    {
        type            turbulentMixingLengthDissipationRateInlet;
        mixingLength    0.01;
        phi             phi;
        k               k;
        value           uniform 0.144754;
    }
    outlet
    {
        type            zeroGradient;
    }
}


// ************************************************************************* //
