/*--------------------------------*- C++ -*----------------------------------*\
  =========                 |
  \\      /  F ield         | OpenFOAM: The Open Source CFD Toolbox
   \\    /   O peration     | Website:  https://openfoam.org
    \\  /    A nd           | Version:  6
     \\/     M anipulation  |
\*---------------------------------------------------------------------------*/
FoamFile
{
    version     2.0;
    format      ascii;
    class       volScalarField;
    location    "600";
    object      alphat;
}
// * * * * * * * * * * * * * * * * * * * * * * * * * * * * * * * * * * * * * //

dimensions      [1 -1 -1 0 0 0 0];

internalField   nonuniform List<scalar> 
459
(
0.00136163
0.00149957
0.00154343
0.00162372
0.00170087
0.00177844
0.00185383
0.0019078
0.0019308
0.00191592
0.00185978
0.00175983
0.00153603
0.00129925
0.00108479
0.000587391
0.000692074
0.000811339
0.000875418
0.000881935
0.000859991
0.000804467
0.000744244
0.000689718
0.000642048
0.000600465
0.000564093
0.000532004
0.000503321
0.000477308
0.000452578
0.000427132
0.000402087
0.000359376
0.00180063
0.00452841
0.00440717
0.00512726
0.00585064
0.00649301
0.0069802
0.00742204
0.00778062
0.00801729
0.00810001
0.00798896
0.0076148
0.00681676
0.00468618
0.00138378
0.00106427
0.000580236
0.00140044
0.00219751
0.0028654
0.00329371
0.00328972
0.00233055
0.00192569
0.00165692
0.00145911
0.00130638
0.00118413
0.00108446
0.000998895
0.000910779
0.000826171
0.000750626
0.000810073
0.000425058
0.00215967
0.00613271
0.00544642
0.00644811
0.00694111
0.00731553
0.00763647
0.00799613
0.00838871
0.00877785
0.0091152
0.00930129
0.00924734
0.00883748
0.00766741
0.00518644
0.00138552
0.00086092
0.00157273
0.00244228
0.00338771
0.00410505
0.00401557
0.00111877
0.000971784
0.000852478
0.000756377
0.000678436
0.00061449
0.000561384
0.000517291
0.000482457
0.00052365
0.000603265
0.00091694
0.000472948
0.00249914
0.00764639
0.00550751
0.00664828
0.00686808
0.0069958
0.00718728
0.00747837
0.00788812
0.00837417
0.00886592
0.009194
0.00934554
0.00927521
0.00882945
0.00746447
0.00415624
0.00158046
0.00185436
0.00257587
0.00362808
0.00471987
0.0054987
0.00520387
0.00127504
0.00115133
0.00105897
0.000984991
0.000923235
0.000867209
0.000812462
0.000755459
0.000691231
0.000626135
0.000617976
0.00105035
0.000516459
0.00284362
0.00957995
0.00596516
0.00660541
0.00679761
0.00678338
0.00688814
0.00711194
0.00752778
0.0080538
0.00855987
0.00891997
0.00908272
0.00907018
0.00889223
0.00835692
0.00709116
0.00614236
0.00626685
0.00671376
0.00727171
0.00773222
0.00794484
0.00768295
0.00628421
0.00554849
0.00508559
0.00472112
0.00431409
0.0038471
0.00331363
0.00272008
0.00209265
0.00150255
0.00108662
0.00110513
0.000677096
0.000652644
0.000799199
0.000898098
0.00321054
0.0117275
0.00792529
0.00694651
0.00723466
0.0069974
0.00692907
0.00704865
0.00743106
0.00798388
0.00852024
0.00887108
0.00897676
0.00891316
0.00882891
0.00880319
0.0087584
0.00891236
0.00933703
0.00970595
0.00991054
0.00991382
0.00971026
0.00927856
0.00855926
0.00789097
0.00730741
0.0067466
0.00615928
0.00552769
0.00483725
0.00408066
0.00327099
0.00246626
0.00182038
0.00138501
0.00100152
0.000855596
0.00122447
0.000936792
0.00354193
0.0132069
0.0108389
0.00873843
0.00817723
0.00747584
0.00708747
0.00713307
0.00756069
0.00819003
0.00877182
0.0091082
0.00916067
0.00908653
0.00917789
0.00964032
0.0102533
0.0108395
0.0112805
0.011413
0.0112852
0.0109506
0.0104589
0.00984413
0.00912983
0.00841987
0.0077464
0.00708725
0.00643552
0.00580982
0.0051917
0.00454731
0.00385883
0.00314259
0.00251869
0.00199258
0.00159197
0.00146238
0.0014414
0.00108435
0.00360465
0.0115199
0.0103095
0.00920281
0.00800729
0.00716323
0.00690924
0.00721651
0.00790917
0.00871154
0.00932837
0.00959183
0.00957423
0.00959307
0.0100871
0.0109084
0.0114846
0.0118527
0.0119831
0.0118169
0.011394
0.0107845
0.0100481
0.00923124
0.00838462
0.00756516
0.00679203
0.0060708
0.00542709
0.00489928
0.00450899
0.00421251
0.00385527
0.00343722
0.00308384
0.00289605
0.00293195
0.00324507
0.00407046
0.0016261
0.00351081
0.00416249
0.00461971
0.00470656
0.00490563
0.00547484
0.0064258
0.00763109
0.00883613
0.00974666
0.0101375
0.01006
0.0100307
0.0104152
0.0109201
0.0113385
0.0115458
0.0115468
0.0113201
0.0108516
0.0101775
0.00935782
0.00844853
0.00750963
0.00660141
0.00576198
0.00500067
0.0043292
0.00377322
0.00334092
0.00302305
0.00280178
0.0026567
0.00256148
0.00251598
0.00251096
0.00249248
0.0024067
0.00224674
0.00150862
0.00184414
0.00355519
0.00629434
0.0084248
0.00991001
0.0108339
0.011181
0.0110495
0.0105322
0.010008
0.00988106
0.0100844
0.010246
0.0102531
0.0101003
0.00977081
0.00924348
0.00853593
0.00771106
0.00684932
0.00602019
0.00526879
0.00461166
0.00404668
0.00357116
0.00318699
0.00289335
0.00268914
0.00256395
0.00250029
0.00248336
0.00249896
0.00253224
0.00255819
0.00253856
0.00244765
0.00215965
0.0012174
0.00234582
0.00628981
0.00891059
0.0103327
0.010661
0.0103333
0.0096357
0.0088788
0.00828361
0.00789931
0.00768611
0.00752838
0.00735611
0.00715623
0.0068995
0.00655221
0.00611014
0.0056093
0.00510632
0.00464826
0.00425664
0.00393036
0.00365671
0.00342132
0.00321352
0.00302777
0.00286375
0.00272645
0.00262335
0.00256111
0.00254196
0.00255868
0.00259058
0.00260667
0.00256544
0.00247037
0.00191868
0.00124707
0.00206424
0.00217683
0.00225608
0.00237833
0.00223217
0.00214549
0.00204711
0.0019181
0.00176412
0.00160972
0.00147487
0.00137135
0.00129951
0.00125036
0.00121411
0.00118328
0.0011527
0.00111991
0.00108523
0.00105078
0.00101884
0.000990762
0.000966759
0.000946448
0.000929493
0.000916124
0.000907325
0.000904647
0.000909791
0.000924105
0.000948368
0.000982879
0.00102767
0.00108234
0.00114457
0.0012102
0.00121116
0.00108142
0.00104827
0.00127771
)
;

boundaryField
{
    floor
    {
        type            compressible::alphatWallFunction;
        Prt             0.85;
        value           nonuniform List<scalar> 
29
(
0.000154181
8.24932e-05
9.80426e-05
0.000115417
0.000124625
0.000125559
0.000122419
0.000114428
0.000105687
9.76987e-05
9.06522e-05
8.44535e-05
7.89882e-05
7.41304e-05
6.97573e-05
6.57641e-05
6.19425e-05
5.79823e-05
5.40549e-05
4.72829e-05
4.72822e-05
5.7659e-05
6.50948e-05
7.17689e-05
0.000154179
8.24922e-05
8.14188e-05
0.000122538
0.000221773
)
;
    }
    ceiling
    {
        type            compressible::alphatWallFunction;
        Prt             0.85;
        value           nonuniform List<scalar> 
43
(
0.000285384
0.000299955
0.000310165
0.000325984
0.000307289
0.000296129
0.00028339
0.000266572
0.000246333
0.000225843
0.000207768
0.000193768
0.000183983
0.000177252
0.000172271
0.00016802
0.000163792
0.000159242
0.000154414
0.000149599
0.000145119
0.000141166
0.000137777
0.000134901
0.000132495
0.000130593
0.000129339
0.000128956
0.000129688
0.000131723
0.000135165
0.000140045
0.00014635
0.000154001
0.000162658
0.000171729
0.00017186
0.000153872
0.00014924
0.000181012
0.00046789
0.000547178
0.000321486
)
;
    }
    sWall
    {
        type            compressible::alphatWallFunction;
        Prt             0.85;
        value           uniform 0.000284179;
    }
    nWall
    {
        type            compressible::alphatWallFunction;
        Prt             0.85;
        value           nonuniform List<scalar> 6(0.000127694 0.000133194 0.00015395 0.000172407 0.000176485 0.000180693);
    }
    sideWalls
    {
        type            empty;
    }
    glass1
    {
        type            compressible::alphatWallFunction;
        Prt             0.85;
        value           nonuniform List<scalar> 9(0.000187679 0.00024563 0.000291986 0.000335136 0.000378349 0.000423819 0.00046447 0.000472253 0.00046104);
    }
    glass2
    {
        type            compressible::alphatWallFunction;
        Prt             0.85;
        value           nonuniform List<scalar> 2(0.000226456 0.000210869);
    }
    sun
    {
        type            compressible::alphatWallFunction;
        Prt             0.85;
        value           nonuniform List<scalar> 
14
(
0.000192301
0.000210934
0.000216823
0.000227555
0.000237812
0.000248072
0.000257999
0.000265077
0.000268085
0.000266136
0.000258776
0.000245607
0.000215825
0.000183779
)
;
    }
    heatsource1
    {
        type            compressible::alphatWallFunction;
        Prt             0.85;
        value           nonuniform List<scalar> 3(9.23292e-05 0.000113777 0.00012798);
    }
    heatsource2
    {
        type            compressible::alphatWallFunction;
        Prt             0.85;
        value           nonuniform List<scalar> 4(0.000195424 0.000151443 0.000151442 0.000195656);
    }
    Table_master
    {
        type            compressible::alphatWallFunction;
        Prt             0.85;
        value           nonuniform List<scalar> 9(0.000159034 0.000138435 0.000121447 0.000107558 9.61374e-05 8.66479e-05 7.86747e-05 7.19831e-05 6.6646e-05);
    }
    Table_slave
    {
        type            compressible::alphatWallFunction;
        Prt             0.85;
        value           nonuniform List<scalar> 9(0.0001806 0.00016356 0.0001507 0.000140307 0.000131561 0.000123567 0.000115696 0.000107432 9.8031e-05);
    }
    inlet
    {
        type            fixedValue;
        value           uniform 1.94e-05;
    }
    outlet
    {
        type            zeroGradient;
    }
}


// ************************************************************************* //
