/*--------------------------------*- C++ -*----------------------------------*\
  =========                 |
  \\      /  F ield         | OpenFOAM: The Open Source CFD Toolbox
   \\    /   O peration     | Website:  https://openfoam.org
    \\  /    A nd           | Version:  6
     \\/     M anipulation  |
\*---------------------------------------------------------------------------*/
FoamFile
{
    version     2.0;
    format      ascii;
    class       volScalarField;
    location    "600";
    object      epsilon;
}
// * * * * * * * * * * * * * * * * * * * * * * * * * * * * * * * * * * * * * //

dimensions      [0 2 -3 0 0 0 0];

internalField   nonuniform List<scalar> 
459
(
0.00057066
0.000760332
0.000828913
0.000965084
0.00110924
0.00126797
0.00143608
0.00156505
0.00162215
0.00158474
0.00144941
0.001228
0.000816699
0.000494315
0.000287797
4.58021e-05
7.48876e-05
0.000120636
0.000151538
0.000154969
0.000143703
0.000117638
9.31547e-05
7.41501e-05
5.98189e-05
4.89375e-05
4.05765e-05
3.4042e-05
2.88307e-05
2.45905e-05
2.09656e-05
1.76268e-05
1.47068e-05
1.05033e-05
0.00132194
0.00178901
0.000707757
0.000702393
0.000757211
0.000855084
0.000990269
0.00111494
0.00118173
0.00116366
0.00106084
0.000900581
0.000687777
0.000515934
0.000377355
0.000597286
0.000271764
4.41572e-05
8.37743e-05
0.000126262
0.000137958
0.000133789
0.000125194
0.000125701
0.000100539
7.73183e-05
5.93647e-05
4.59405e-05
3.59591e-05
2.84718e-05
2.27725e-05
1.84698e-05
1.56524e-05
1.41692e-05
2.31586e-05
1.73804e-05
0.00228501
0.00402492
0.000824324
0.000675876
0.000748726
0.000897686
0.00109067
0.00124914
0.00132135
0.0012983
0.00118606
0.00101337
0.000824107
0.000655135
0.000508786
0.000461925
0.000599567
0.000144107
0.00017458
0.00017961
0.000172608
0.000158335
0.000151603
0.000316385
0.000207362
0.000139989
9.77886e-05
7.05715e-05
5.24416e-05
3.99893e-05
3.12896e-05
2.53868e-05
1.87089e-05
1.50691e-05
3.69036e-05
2.39451e-05
0.00354737
0.00805219
0.00121336
0.000701802
0.000785722
0.0010203
0.00129906
0.00147234
0.00152445
0.00147985
0.00133994
0.00114837
0.000941967
0.000754062
0.000607143
0.000514335
0.000505479
0.000890072
0.000557355
0.000381498
0.000289624
0.000235804
0.000199321
0.000186071
0.0004687
0.000345184
0.000268657
0.000216242
0.000178103
0.000147634
0.000121422
9.76313e-05
7.47967e-05
4.09287e-05
2.39013e-05
5.91143e-05
3.11869e-05
0.00523544
0.0141902
0.00226321
0.000849074
0.000910844
0.00136054
0.00170838
0.00183648
0.00183175
0.0017366
0.00155668
0.00131306
0.00104423
0.000799887
0.000613101
0.000492804
0.000442797
0.000454777
0.000398745
0.000345942
0.000302425
0.000262636
0.000224385
0.000192101
0.000184908
0.00016807
0.000151509
0.000135283
0.000119389
0.000103448
8.76402e-05
7.24604e-05
5.82709e-05
4.21723e-05
2.90811e-05
4.76948e-05
3.39707e-05
6.30265e-05
0.000115808
0.000164345
0.00754768
0.0211331
0.00497062
0.00157079
0.0014836
0.00224683
0.00242307
0.00239373
0.00228442
0.00210907
0.00185135
0.00151967
0.00115952
0.000838544
0.00060191
0.000459333
0.000399786
0.000388356
0.000377206
0.000355749
0.000322143
0.000280366
0.000236161
0.000196176
0.00016846
0.000150706
0.000137632
0.000125074
0.000111699
9.73811e-05
8.2652e-05
6.84063e-05
5.5557e-05
4.40482e-05
3.63342e-05
4.08932e-05
3.91367e-05
4.94381e-05
0.000210736
0.000186447
0.0101508
0.0253594
0.010215
0.0048408
0.00429732
0.00394476
0.00355177
0.00320693
0.00291108
0.00260299
0.00222321
0.00176635
0.00128523
0.000874181
0.000589981
0.000436082
0.000384145
0.000380071
0.000375825
0.000353351
0.000314737
0.000268653
0.000222958
0.000184253
0.00015771
0.00014273
0.000133362
0.000125313
0.000117104
0.00010809
9.79559e-05
8.72447e-05
7.69962e-05
6.79557e-05
6.45332e-05
6.88099e-05
8.19535e-05
0.000125131
0.000300119
0.00028916
0.0107236
0.0268783
0.0153679
0.0105977
0.00788761
0.00605933
0.00490433
0.00418278
0.00367766
0.00320295
0.0026493
0.00201294
0.00136179
0.000849365
0.000533544
0.0003958
0.000363199
0.000357836
0.000343763
0.000313404
0.000272464
0.000229506
0.00019162
0.000162987
0.000145128
0.000136204
0.000132739
0.000132831
0.000136298
0.000143349
0.000152974
0.000163054
0.000175814
0.00019692
0.000235676
0.000339041
0.000577426
0.00109025
0.00378313
0.000976564
0.00993943
0.0165191
0.0131979
0.0101836
0.00796459
0.00653716
0.00564027
0.00503778
0.00449661
0.00382438
0.00298019
0.00206052
0.00113986
0.000630563
0.000427098
0.000349412
0.000322516
0.00030625
0.000283342
0.000252245
0.000218159
0.000186559
0.00016087
0.000142775
0.000132258
0.000128061
0.000128947
0.0001349
0.000147165
0.000167742
0.000199436
0.000246197
0.000313225
0.000412674
0.000557722
0.000759199
0.00100639
0.0012505
0.00143889
0.000781128
0.00407318
0.00558042
0.0065661
0.00649632
0.0061301
0.00552787
0.00458676
0.00319455
0.00187486
0.00107993
0.000641643
0.000431804
0.000339196
0.000297861
0.000275267
0.000255119
0.000231891
0.000206805
0.000183192
0.000163438
0.000148301
0.000137474
0.000130172
0.000125802
0.000124515
0.000127291
0.000135728
0.00015198
0.00017888
0.000220272
0.000281506
0.000369564
0.000490654
0.000642934
0.000804916
0.000932448
0.000881578
0.000410641
0.00273523
0.00698081
0.00731772
0.00583783
0.00458497
0.0033836
0.00229474
0.00145619
0.000912048
0.000596501
0.000430365
0.000349027
0.000309874
0.000290062
0.000278186
0.00026884
0.000260152
0.000252064
0.000244948
0.000238917
0.000233737
0.000228958
0.000224074
0.000218736
0.000213037
0.000207809
0.000204738
0.000206378
0.00021587
0.000236902
0.000273744
0.000330479
0.000408069
0.000499559
0.00057998
0.000663608
0.000419873
0.000441353
0.0019217
0.00225189
0.00250674
0.00300051
0.00250286
0.00223076
0.00194168
0.00159936
0.00124544
0.000946869
0.000728642
0.000585957
0.000498764
0.000444385
0.000406935
0.000376782
0.000348376
0.000319525
0.000290781
0.000263975
0.000240639
0.000221288
0.00020559
0.000192898
0.000182709
0.00017493
0.000169927
0.000168415
0.00017129
0.000179489
0.000193987
0.000215932
0.000246807
0.000288314
0.000340955
0.000403043
0.000404025
0.000287638
0.000262148
0.000475204
)
;

boundaryField
{
    floor
    {
        Cmu             0.09;
        kappa           0.41;
        E               9.8;
        type            epsilonWallFunction;
        value           nonuniform List<scalar> 
29
(
0.000287797
4.58021e-05
7.48876e-05
0.000120636
0.000151538
0.000154969
0.000143703
0.000117638
9.31547e-05
7.41501e-05
5.98189e-05
4.89375e-05
4.05765e-05
3.4042e-05
2.88307e-05
2.45905e-05
2.09656e-05
1.76268e-05
1.47068e-05
1.05033e-05
1.05033e-05
1.73804e-05
2.39451e-05
3.11869e-05
0.000287797
4.58021e-05
4.41572e-05
0.000144107
0.000890072
)
;
    }
    ceiling
    {
        Cmu             0.09;
        kappa           0.41;
        E               9.8;
        type            epsilonWallFunction;
        value           nonuniform List<scalar> 
43
(
0.0019217
0.00225189
0.00250674
0.00300051
0.00250286
0.00223076
0.00194168
0.00159936
0.00124544
0.000946869
0.000728642
0.000585957
0.000498764
0.000444385
0.000406935
0.000376782
0.000348376
0.000319525
0.000290781
0.000263975
0.000240639
0.000221288
0.00020559
0.000192898
0.000182709
0.00017493
0.000169927
0.000168415
0.00017129
0.000179489
0.000193987
0.000215932
0.000246807
0.000288314
0.000340955
0.000403043
0.000404025
0.000287638
0.000262148
0.000475204
0.00993943
0.0165191
0.00273523
)
;
    }
    sWall
    {
        Cmu             0.09;
        kappa           0.41;
        E               9.8;
        type            epsilonWallFunction;
        value           uniform 0.0019217;
    }
    nWall
    {
        Cmu             0.09;
        kappa           0.41;
        E               9.8;
        type            epsilonWallFunction;
        value           nonuniform List<scalar> 6(0.000164345 0.000186447 0.00028916 0.000410641 0.000441353 0.000475204);
    }
    sideWalls
    {
        type            empty;
    }
    glass1
    {
        Cmu             0.09;
        kappa           0.41;
        E               9.8;
        type            epsilonWallFunction;
        value           nonuniform List<scalar> 9(0.00057066 0.00132194 0.00228501 0.00354737 0.00523544 0.00754768 0.0101508 0.0107236 0.00993943);
    }
    glass2
    {
        Cmu             0.09;
        kappa           0.41;
        E               9.8;
        type            epsilonWallFunction;
        value           nonuniform List<scalar> 2(0.000976564 0.000781128);
    }
    sun
    {
        Cmu             0.09;
        kappa           0.41;
        E               9.8;
        type            epsilonWallFunction;
        value           nonuniform List<scalar> 
14
(
0.00057066
0.000760332
0.000828913
0.000965084
0.00110924
0.00126797
0.00143608
0.00156505
0.00162215
0.00158474
0.00144941
0.001228
0.000816699
0.000494315
)
;
    }
    heatsource1
    {
        Cmu             0.09;
        kappa           0.41;
        E               9.8;
        type            epsilonWallFunction;
        value           nonuniform List<scalar> 3(6.30265e-05 0.000115808 0.000164345);
    }
    heatsource2
    {
        Cmu             0.09;
        kappa           0.41;
        E               9.8;
        type            epsilonWallFunction;
        value           nonuniform List<scalar> 4(0.000597286 0.000271764 0.000271764 0.000599567);
    }
    Table_master
    {
        Cmu             0.09;
        kappa           0.41;
        E               9.8;
        type            epsilonWallFunction;
        value           nonuniform List<scalar> 9(0.000316385 0.000207362 0.000139989 9.77886e-05 7.05715e-05 5.24416e-05 3.99893e-05 3.12896e-05 2.53868e-05);
    }
    Table_slave
    {
        Cmu             0.09;
        kappa           0.41;
        E               9.8;
        type            epsilonWallFunction;
        value           nonuniform List<scalar> 9(0.0004687 0.000345184 0.000268657 0.000216242 0.000178103 0.000147634 0.000121422 9.76313e-05 7.47967e-05);
    }
    inlet
    {
        type            turbulentMixingLengthDissipationRateInlet;
        mixingLength    0.01;
        phi             phi;
        k               k;
        value           uniform 0.000101881;
    }
    outlet
    {
        type            zeroGradient;
    }
}


// ************************************************************************* //
