// -*- C++ -*-
// File generated by PyFoam - sorry for the ugliness

FoamFile
{
 version 2.0;
 format ascii;
 class volScalarField;
 location "500";
 object T;
}

dimensions [ 0 0 0 1 0 0 0 ];

internalField nonuniform List<scalar> 459
(
  303.708
  303.458
  303.436
  303.424
  303.414
  303.403
  303.39
  303.375
  303.362
  303.355
  303.36
  303.389
  303.415
  303.446
  303.489
  303.557
  303.55
  303.549
  303.543
  303.524
  303.492
  303.444
  303.394
  303.356
  303.33
  303.311
  303.296
  303.285
  303.281
  303.283
  303.295
  303.311
  303.281
  303.225
  303.864
  303.498
  303.465
  303.455
  303.445
  303.432
  303.409
  303.375
  303.343
  303.324
  303.328
  303.354
  303.382
  303.414
  303.453
  303.472
  303.507
  303.565
  303.572
  303.588
  303.6
  303.608
  303.611
  303.605
  303.591
  303.571
  303.549
  303.527
  303.503
  303.478
  303.454
  303.43
  303.406
  303.363
  303.306
  303.24
  304.032
  303.551
  303.508
  303.508
  303.507
  303.497
  303.46
  303.395
  303.334
  303.3
  303.303
  303.33
  303.362
  303.393
  303.426
  303.453
  303.486
  303.566
  303.567
  303.576
  303.594
  303.616
  303.635
  303.645
  303.653
  303.659
  303.661
  303.66
  303.657
  303.653
  303.648
  303.638
  303.625
  303.596
  303.488
  303.456
  304.208
  303.618
  303.561
  303.576
  303.596
  303.596
  303.531
  303.42
  303.325
  303.276
  303.28
  303.312
  303.352
  303.387
  303.417
  303.444
  303.473
  303.488
  303.512
  303.531
  303.558
  303.591
  303.627
  303.661
  303.692
  303.721
  303.749
  303.775
  303.8
  303.824
  303.845
  303.865
  303.88
  303.842
  303.781
  303.71
  303.669
  304.384
  303.703
  303.623
  303.65
  303.696
  303.703
  303.59
  303.428
  303.307
  303.251
  303.258
  303.303
  303.356
  303.4
  303.431
  303.457
  303.481
  303.504
  303.532
  303.566
  303.606
  303.652
  303.699
  303.744
  303.788
  303.827
  303.862
  303.895
  303.923
  303.947
  303.965
  303.976
  303.977
  303.956
  303.913
  303.858
  303.812
  303.817
  303.818
  303.848
  304.549
  303.811
  303.711
  303.735
  303.812
  303.763
  303.598
  303.407
  303.268
  303.214
  303.238
  303.307
  303.384
  303.445
  303.485
  303.513
  303.537
  303.567
  303.608
  303.658
  303.712
  303.767
  303.82
  303.868
  303.912
  303.952
  303.987
  304.018
  304.043
  304.064
  304.078
  304.085
  304.08
  304.062
  304.029
  303.989
  303.957
  303.941
  303.918
  303.904
  304.708
  303.975
  303.877
  303.893
  303.918
  303.773
  303.533
  303.31
  303.179
  303.159
  303.226
  303.338
  303.45
  303.534
  303.59
  303.62
  303.646
  303.684
  303.735
  303.795
  303.858
  303.917
  303.969
  304.015
  304.054
  304.088
  304.118
  304.145
  304.167
  304.186
  304.198
  304.203
  304.195
  304.175
  304.146
  304.113
  304.082
  304.051
  304.006
  303.961
  304.923
  304.38
  304.264
  304.225
  304.008
  303.656
  303.314
  303.094
  303.032
  303.105
  303.254
  303.43
  303.581
  303.686
  303.743
  303.769
  303.797
  303.841
  303.898
  303.96
  304.021
  304.077
  304.124
  304.163
  304.196
  304.224
  304.25
  304.274
  304.295
  304.312
  304.321
  304.321
  304.308
  304.281
  304.246
  304.207
  304.162
  304.113
  304.074
  304.091
  305.233
  304.97
  304.728
  304.362
  303.633
  303.036
  302.735
  302.711
  302.882
  303.141
  303.402
  303.642
  303.805
  303.879
  303.915
  303.942
  303.976
  304.022
  304.077
  304.134
  304.187
  304.234
  304.273
  304.305
  304.332
  304.357
  304.38
  304.401
  304.419
  304.429
  304.426
  304.409
  304.385
  304.361
  304.342
  304.332
  304.333
  304.345
  304.374
  304.466
  296.147
  297.013
  298.744
  300.357
  301.564
  302.455
  303.122
  303.578
  303.81
  303.945
  304.019
  304.063
  304.095
  304.126
  304.163
  304.208
  304.256
  304.304
  304.347
  304.384
  304.415
  304.44
  304.462
  304.481
  304.498
  304.512
  304.52
  304.52
  304.51
  304.491
  304.467
  304.442
  304.421
  304.408
  304.408
  304.425
  304.476
  304.693
  296.566
  298.372
  300.246
  302.037
  302.94
  303.473
  303.799
  303.99
  304.098
  304.166
  304.211
  304.245
  304.277
  304.309
  304.345
  304.383
  304.422
  304.458
  304.49
  304.517
  304.539
  304.557
  304.572
  304.585
  304.594
  304.601
  304.603
  304.599
  304.59
  304.575
  304.555
  304.533
  304.511
  304.492
  304.483
  304.509
  304.613
  304.67
  300.336
  300.253
  300.246
  302.584
  303.434
  303.795
  304.008
  304.146
  304.242
  304.308
  304.356
  304.393
  304.423
  304.451
  304.477
  304.503
  304.529
  304.555
  304.578
  304.599
  304.617
  304.631
  304.643
  304.652
  304.66
  304.665
  304.669
  304.671
  304.672
  304.67
  304.665
  304.657
  304.647
  304.634
  304.619
  304.609
  304.617
  304.671
  304.755
  304.967
)
;

boundaryField
{
  floor
  {
    type wallHeatTransfer;
    Tinf uniform 305.2;
    alphaWall uniform 0.24;
    value nonuniform List<scalar> 29
(
  303.679
  303.902
  303.867
  303.845
  303.826
  303.811
  303.8
  303.801
  303.806
  303.811
  303.812
  303.812
  303.81
  303.808
  303.801
  303.782
  303.747
  303.684
  303.59
  303.602
  303.602
  303.584
  303.714
  303.889
  303.679
  303.902
  303.888
  303.862
  303.64
)
;
  }
  ceiling
  {
    type wallHeatTransfer;
    Tinf uniform 303.2;
    alphaWall uniform 0.24;
    value nonuniform List<scalar> 43
(
  300.546
  300.46
  300.447
  302.623
  303.419
  303.755
  303.952
  304.078
  304.162
  304.218
  304.257
  304.287
  304.312
  304.336
  304.359
  304.382
  304.405
  304.427
  304.447
  304.464
  304.478
  304.49
  304.498
  304.505
  304.51
  304.514
  304.516
  304.517
  304.516
  304.514
  304.51
  304.504
  304.496
  304.485
  304.473
  304.464
  304.468
  304.506
  304.576
  304.793
  305.138
  304.897
  297.018
)
;
  }
  sWall
  {
    type wallHeatTransfer;
    Tinf uniform 315.2;
    alphaWall uniform 0.36;
    value uniform 301.918;
  }
  nWall
  {
    type wallHeatTransfer;
    Tinf uniform 307.2;
    alphaWall uniform 0.36;
    value nonuniform List<scalar> 6
(
  304.504
  304.441
  304.43
  305.063
  305.029
  305.282
)
;
  }
  sideWalls
  {
    type empty;
  }
  glass1
  {
    type wallHeatTransfer;
    Tinf uniform 315.2;
    alphaWall uniform 4.3;
    value nonuniform List<scalar> 9
(
  311.299
  310.775
  310.445
  310.195
  309.984
  309.789
  309.653
  309.729
  309.951
)
;
  }
  glass2
  {
    type wallHeatTransfer;
    Tinf uniform 307.2;
    alphaWall uniform 4.3;
    value nonuniform List<scalar> 2
(
  306.149
  306.288
)
;
  }
  sun
  {
    type wallHeatTransfer;
    Tinf uniform 305.2;
    alphaWall uniform 0.24;
    value nonuniform List<scalar> 14
(
  303.851
  303.613
  303.588
  303.571
  303.556
  303.541
  303.525
  303.508
  303.495
  303.49
  303.498
  303.536
  303.572
  303.62
)
;
  }
  heatsource1
  {
    type fixedGradient;
    gradient uniform 0;
  }
  heatsource2
  {
    type fixedGradient;
    gradient uniform 0;
  }
  Table_master
  {
    type zeroGradient;
  }
  Table_slave
  {
    type zeroGradient;
  }
  inlet
  {
    type fixedValue;
    value uniform 293.15;
  }
  outlet
  {
    type zeroGradient;
  }
} 	// ************************************************************************* //

