/*--------------------------------*- C++ -*----------------------------------*\
  =========                 |
  \\      /  F ield         | OpenFOAM: The Open Source CFD Toolbox
   \\    /   O peration     | Website:  https://openfoam.org
    \\  /    A nd           | Version:  6
     \\/     M anipulation  |
\*---------------------------------------------------------------------------*/
FoamFile
{
    version     2.0;
    format      ascii;
    class       volScalarField;
    location    "1200";
    object      epsilon;
}
// * * * * * * * * * * * * * * * * * * * * * * * * * * * * * * * * * * * * * //

dimensions      [0 2 -3 0 0 0 0];

internalField   nonuniform List<scalar> 
459
(
0.000423318
0.000547998
0.000579203
0.000665838
0.000753379
0.000842564
0.000937685
0.00103569
0.00110893
0.00113892
0.00110952
0.00101456
0.000862003
0.00067592
0.000494537
3.49574e-05
5.95858e-05
8.57232e-05
8.7808e-05
8.03978e-05
7.05569e-05
5.8356e-05
4.74674e-05
3.88174e-05
3.20912e-05
2.68362e-05
2.26867e-05
1.93802e-05
1.67093e-05
1.44838e-05
1.25414e-05
1.07313e-05
9.7209e-06
7.47453e-06
0.00107179
0.00157126
0.000514491
0.000497418
0.000519178
0.000557461
0.000616535
0.00069578
0.000772306
0.000820971
0.000821358
0.00076712
0.000666334
0.000541024
0.000437926
0.00052066
0.000120426
3.98918e-05
9.4287e-05
0.0001046
9.77428e-05
8.50434e-05
7.24246e-05
6.61989e-05
5.35421e-05
4.22719e-05
3.33788e-05
2.65528e-05
2.13361e-05
1.73449e-05
1.43049e-05
1.2076e-05
1.07105e-05
1.01326e-05
2.62401e-05
1.77882e-05
0.00195493
0.00387288
0.000632757
0.000470786
0.000490406
0.000549001
0.00063874
0.000753852
0.000861271
0.000926697
0.000932141
0.000877872
0.000775507
0.000650074
0.0005325
0.000474849
0.000561237
0.00026794
0.000208917
0.000165559
0.000132337
0.000106702
9.1183e-05
0.000167814
0.000116362
8.32874e-05
6.15757e-05
4.69204e-05
3.6745e-05
2.95033e-05
2.42683e-05
2.04975e-05
1.56466e-05
1.3134e-05
4.96355e-05
2.84493e-05
0.00316903
0.00806801
0.000999589
0.000472425
0.000474627
0.000556543
0.000691372
0.000863954
0.0010016
0.00106969
0.00106391
0.000994433
0.000872871
0.000728034
0.000599945
0.000516367
0.000497447
0.000902025
0.000521198
0.000319864
0.000217601
0.000158999
0.000122484
0.00010541
0.000243289
0.000186816
0.000152514
0.000129489
0.000111748
9.66007e-05
8.33567e-05
7.07331e-05
5.76827e-05
3.44067e-05
2.23123e-05
8.23848e-05
3.9377e-05
0.0048421
0.0144403
0.00197933
0.000551349
0.000475567
0.000583191
0.000824504
0.00108718
0.00123629
0.00128208
0.00124405
0.00114047
0.000985636
0.000804819
0.000629375
0.000485249
0.000386491
0.000344723
0.00028271
0.000226479
0.000181279
0.000145913
0.000118651
9.98803e-05
9.65313e-05
9.04421e-05
8.45498e-05
7.86572e-05
7.22152e-05
6.50584e-05
5.78726e-05
5.10252e-05
4.47239e-05
3.60112e-05
2.77086e-05
5.90437e-05
4.55709e-05
7.44284e-05
0.000130367
0.0001846
0.00717376
0.0215108
0.00447416
0.0010289
0.000665882
0.000769195
0.0012617
0.0015355
0.00161892
0.00159605
0.00150323
0.00134965
0.00114229
0.000905016
0.000673538
0.000482375
0.000350736
0.000276738
0.000232095
0.000196466
0.000164089
0.000136092
0.000113695
9.80275e-05
9.03799e-05
8.74656e-05
8.60843e-05
8.42339e-05
8.06925e-05
7.45023e-05
6.54724e-05
5.59373e-05
4.71727e-05
3.93374e-05
3.41937e-05
4.48748e-05
4.70183e-05
5.74483e-05
0.000240899
0.000211065
0.00995678
0.0257637
0.00935557
0.00341442
0.00216944
0.00211938
0.0023519
0.00234199
0.00221908
0.00205527
0.00186093
0.00162257
0.00133543
0.00102314
0.000726721
0.000489635
0.000333943
0.000249681
0.0002049
0.00017317
0.000145572
0.000122741
0.000106078
9.63114e-05
9.34165e-05
9.52106e-05
9.88056e-05
0.000102479
0.000105003
0.000104655
9.81616e-05
8.69609e-05
7.57685e-05
6.62748e-05
6.24736e-05
6.97815e-05
8.88817e-05
0.000141969
0.000326207
0.00031703
0.0106436
0.028757
0.0156154
0.00993359
0.00701804
0.00542833
0.00430269
0.00354419
0.00302786
0.00264457
0.00230308
0.0019411
0.00153762
0.00112388
0.000746812
0.000462543
0.00029266
0.000208877
0.000168579
0.000142131
0.00012142
0.000106619
9.81069e-05
9.56798e-05
9.85995e-05
0.000105495
0.000115124
0.000127095
0.000141491
0.000158214
0.000176228
0.000187939
0.000197815
0.000219143
0.000263431
0.000396001
0.000731259
0.00137891
0.00401226
0.00118595
0.00989603
0.0168623
0.0135344
0.0102205
0.00779238
0.00613472
0.00501354
0.00424621
0.00369343
0.00322907
0.00275522
0.0022247
0.00164237
0.001094
0.000623787
0.000331721
0.000209596
0.000155658
0.000127617
0.000109351
9.70516e-05
9.01738e-05
8.83846e-05
9.11599e-05
9.79021e-05
0.000108153
0.000121932
0.000139958
0.000163623
0.00019498
0.000236771
0.000292946
0.000370043
0.000485588
0.000655585
0.000885907
0.00114879
0.0013775
0.00155354
0.000970872
0.00496159
0.00666749
0.00667276
0.00617338
0.00548986
0.00483614
0.0041939
0.00349982
0.00273758
0.00193246
0.00106474
0.000564887
0.000300589
0.000177372
0.000124411
9.86782e-05
8.43151e-05
7.56838e-05
7.08904e-05
6.94234e-05
7.09088e-05
7.49758e-05
8.14294e-05
9.03446e-05
0.000102157
0.000117723
0.000138411
0.000166289
0.000204599
0.000258335
0.000332853
0.00043527
0.000568895
0.000720995
0.000850727
0.000903895
0.000847491
0.000536205
0.00341703
0.00675573
0.00664273
0.0053374
0.0045022
0.00383926
0.00300211
0.00210643
0.00134166
0.000785566
0.000429122
0.000239966
0.000145035
0.000100515
7.96912e-05
6.91455e-05
6.36123e-05
6.11006e-05
6.08143e-05
6.23348e-05
6.54211e-05
7.00738e-05
7.64587e-05
8.48544e-05
9.57684e-05
0.000110022
0.000128896
0.000154354
0.000189137
0.000236854
0.000302425
0.000390764
0.000502373
0.00062873
0.000722466
0.000817732
0.00076295
0.000563328
0.00271138
0.00269958
0.00285303
0.00317425
0.00235247
0.00180594
0.0015723
0.00136952
0.00110714
0.000835166
0.000580605
0.000384083
0.000251865
0.00017185
0.000126202
9.96934e-05
8.34269e-05
7.32297e-05
6.72379e-05
6.44972e-05
6.43641e-05
6.63749e-05
7.03014e-05
7.61528e-05
8.3762e-05
9.33865e-05
0.000105434
0.000120511
0.000139547
0.000164073
0.000194899
0.000233525
0.000282227
0.000343894
0.000421339
0.000529305
0.000566596
0.000524362
0.000430907
0.000344338
)
;

boundaryField
{
    floor
    {
        Cmu             0.09;
        kappa           0.41;
        E               9.8;
        type            epsilonWallFunction;
        value           nonuniform List<scalar> 
29
(
0.000494537
3.49574e-05
5.95858e-05
8.57232e-05
8.7808e-05
8.03978e-05
7.05569e-05
5.8356e-05
4.74674e-05
3.88174e-05
3.20912e-05
2.68362e-05
2.26867e-05
1.93802e-05
1.67093e-05
1.44838e-05
1.25414e-05
1.07313e-05
9.7209e-06
7.47453e-06
7.47453e-06
1.77882e-05
2.84493e-05
3.9377e-05
0.000494537
3.49574e-05
3.98918e-05
0.00026794
0.000902025
)
;
    }
    ceiling
    {
        Cmu             0.09;
        kappa           0.41;
        E               9.8;
        type            epsilonWallFunction;
        value           nonuniform List<scalar> 
43
(
0.00271138
0.00269958
0.00285303
0.00317425
0.00235247
0.00180594
0.0015723
0.00136952
0.00110714
0.000835166
0.000580605
0.000384083
0.000251865
0.00017185
0.000126202
9.96934e-05
8.34269e-05
7.32297e-05
6.72379e-05
6.44972e-05
6.43641e-05
6.63749e-05
7.03014e-05
7.61528e-05
8.3762e-05
9.33865e-05
0.000105434
0.000120511
0.000139547
0.000164073
0.000194899
0.000233525
0.000282227
0.000343894
0.000421339
0.000529305
0.000566596
0.000524362
0.000430907
0.000344338
0.00989603
0.0168623
0.00341703
)
;
    }
    sWall
    {
        Cmu             0.09;
        kappa           0.41;
        E               9.8;
        type            epsilonWallFunction;
        value           uniform 0.00271138;
    }
    nWall
    {
        Cmu             0.09;
        kappa           0.41;
        E               9.8;
        type            epsilonWallFunction;
        value           nonuniform List<scalar> 6(0.0001846 0.000211065 0.00031703 0.000536205 0.000563328 0.000344338);
    }
    sideWalls
    {
        type            empty;
    }
    glass1
    {
        Cmu             0.09;
        kappa           0.41;
        E               9.8;
        type            epsilonWallFunction;
        value           nonuniform List<scalar> 9(0.000423318 0.00107179 0.00195493 0.00316903 0.0048421 0.00717376 0.00995678 0.0106436 0.00989603);
    }
    glass2
    {
        Cmu             0.09;
        kappa           0.41;
        E               9.8;
        type            epsilonWallFunction;
        value           nonuniform List<scalar> 2(0.00118595 0.000970872);
    }
    sun
    {
        Cmu             0.09;
        kappa           0.41;
        E               9.8;
        type            epsilonWallFunction;
        value           nonuniform List<scalar> 
14
(
0.000423318
0.000547998
0.000579203
0.000665838
0.000753379
0.000842564
0.000937685
0.00103569
0.00110893
0.00113892
0.00110952
0.00101456
0.000862003
0.00067592
)
;
    }
    heatsource1
    {
        Cmu             0.09;
        kappa           0.41;
        E               9.8;
        type            epsilonWallFunction;
        value           nonuniform List<scalar> 3(7.44284e-05 0.000130367 0.0001846);
    }
    heatsource2
    {
        Cmu             0.09;
        kappa           0.41;
        E               9.8;
        type            epsilonWallFunction;
        value           nonuniform List<scalar> 4(0.00052066 0.000120426 0.000120426 0.000561237);
    }
    Table_master
    {
        Cmu             0.09;
        kappa           0.41;
        E               9.8;
        type            epsilonWallFunction;
        value           nonuniform List<scalar> 9(0.000167814 0.000116362 8.32874e-05 6.15757e-05 4.69204e-05 3.6745e-05 2.95033e-05 2.42683e-05 2.04975e-05);
    }
    Table_slave
    {
        Cmu             0.09;
        kappa           0.41;
        E               9.8;
        type            epsilonWallFunction;
        value           nonuniform List<scalar> 9(0.000243289 0.000186816 0.000152514 0.000129489 0.000111748 9.66007e-05 8.33567e-05 7.07331e-05 5.76827e-05);
    }
    inlet
    {
        type            turbulentMixingLengthDissipationRateInlet;
        mixingLength    0.01;
        phi             phi;
        k               k;
        value           uniform 0.000101881;
    }
    outlet
    {
        type            zeroGradient;
    }
}


// ************************************************************************* //
