/*--------------------------------*- C++ -*----------------------------------*\
  =========                 |
  \\      /  F ield         | OpenFOAM: The Open Source CFD Toolbox
   \\    /   O peration     | Website:  https://openfoam.org
    \\  /    A nd           | Version:  6
     \\/     M anipulation  |
\*---------------------------------------------------------------------------*/
FoamFile
{
    version     2.0;
    format      ascii;
    class       volScalarField;
    location    "800";
    object      epsilon;
}
// * * * * * * * * * * * * * * * * * * * * * * * * * * * * * * * * * * * * * //

dimensions      [0 2 -3 0 0 0 0];

internalField   nonuniform List<scalar> 
459
(
0.000122824
0.000130978
7.93048e-05
8.51057e-05
9.48896e-05
0.000105882
0.000118006
0.000131537
0.000146954
0.000162157
0.00017577
0.000185809
0.000189742
0.000184654
0.000166102
6.46784e-06
6.00355e-06
4.52409e-06
4.34756e-06
4.36486e-06
4.44898e-06
4.73149e-06
5.43595e-06
6.65091e-06
8.54895e-06
1.14069e-05
1.56191e-05
2.13911e-05
2.94e-05
4.03023e-05
5.23459e-05
5.39765e-05
4.25883e-05
2.6652e-05
0.000745074
0.00171408
0.000157188
6.65745e-05
6.58692e-05
7.19224e-05
7.9399e-05
8.80882e-05
9.83742e-05
0.000109785
0.000122066
0.000134521
0.000145329
0.000151132
0.000152953
0.000197427
6.6894e-05
1.69991e-05
2.79624e-05
6.54311e-06
4.95252e-06
5.41031e-06
4.8398e-06
3.69024e-06
4.80571e-06
6.77616e-06
9.74152e-06
1.41208e-05
2.0599e-05
3.0132e-05
4.3696e-05
6.01306e-05
6.59472e-05
6.48701e-05
6.68076e-05
5.50963e-05
0.00203853
0.00594713
0.000529961
0.000100812
7.49262e-05
7.87011e-05
8.68805e-05
9.68394e-05
0.000108376
0.000121334
0.00013514
0.000148946
0.000160904
0.000167865
0.000168003
0.000169695
0.000203352
4.90481e-05
7.80189e-05
3.08275e-05
2.80698e-05
3.11092e-05
3.16723e-05
5.47964e-06
7.61751e-06
1.19649e-05
1.82865e-05
2.73718e-05
4.10356e-05
6.26686e-05
9.82721e-05
0.000159737
0.000116482
0.000124391
0.000145858
0.000206715
0.00411954
0.012941
0.0014864
0.000198046
0.000100201
9.62504e-05
0.000104676
0.000116477
0.000130152
0.00014545
0.000161245
0.000176543
0.000189369
0.000196543
0.000195825
0.000191668
0.00020208
0.000257976
0.000124144
8.47291e-05
8.22511e-05
9.33398e-05
0.000109781
0.00013757
0.000188689
0.000190219
0.000190141
0.0001889
0.000188637
0.000192726
0.000206524
0.000239141
0.000308561
0.000181954
0.00021202
0.000266069
0.000452442
0.00693036
0.0214845
0.00342793
0.000492859
0.000175604
0.000137613
0.000139595
0.000151407
0.000167352
0.000185972
0.000205529
0.000225605
0.000244384
0.00025742
0.000258364
0.00024267
0.00021307
0.000175073
0.000123483
0.000101551
0.000100608
0.000107494
0.000117182
0.000127015
0.000134298
0.000137235
0.00013944
0.000142022
0.000146342
0.000154329
0.000168463
0.0001912
0.000223264
0.000259444
0.000318622
0.000392673
0.00047317
0.000688013
0.000489383
0.000320994
0.0104207
0.0284714
0.00684184
0.00151646
0.000520627
0.000293317
0.000241007
0.000232441
0.000239365
0.000252605
0.000269191
0.000290643
0.000316686
0.000342983
0.00036087
0.000359552
0.000331323
0.000279107
0.000219234
0.000180009
0.000164766
0.000164495
0.000170964
0.000178127
0.000183668
0.00018706
0.000189418
0.000191504
0.00019436
0.000199899
0.000211416
0.000233835
0.000273082
0.000334318
0.000421092
0.00052791
0.000627885
0.000687823
0.000556532
0.000345647
0.01411
0.0307252
0.0125053
0.00492229
0.00223626
0.00107211
0.000669486
0.000507437
0.000432818
0.000392819
0.000372668
0.000371294
0.000387968
0.000418018
0.000451201
0.000472173
0.000465398
0.000426462
0.000367684
0.00031247
0.00027814
0.000263066
0.000258831
0.000260182
0.000263436
0.000266816
0.000270004
0.000272954
0.000275956
0.000280221
0.000288893
0.000308348
0.000348562
0.00042028
0.000529312
0.0006706
0.000819837
0.000932335
0.0009188
0.000379009
0.0142686
0.0326813
0.0209382
0.01504
0.00866108
0.00459657
0.00254364
0.00154207
0.00102097
0.000746866
0.00059417
0.000510878
0.000477252
0.000481919
0.000512687
0.00055157
0.000571192
0.000558978
0.000518551
0.000468411
0.000425815
0.000396737
0.000379859
0.000371951
0.000369492
0.00037008
0.000372478
0.000375935
0.000380093
0.000385402
0.000394121
0.000412118
0.000451311
0.000530914
0.000670128
0.000872488
0.00113373
0.00147524
0.00190536
0.00148167
0.0123608
0.0190564
0.0574362
0.0415205
0.0224999
0.0117762
0.00632437
0.00358992
0.00218753
0.00142645
0.000998841
0.000761341
0.000637567
0.000587737
0.000587827
0.000616804
0.00064996
0.00066685
0.00065891
0.000632762
0.000600759
0.000571431
0.000548275
0.000531847
0.000521123
0.000514717
0.000511534
0.00051066
0.000511315
0.000513097
0.000516649
0.0005247
0.000543046
0.000580647
0.00065024
0.00076302
0.000917356
0.00115037
0.0027966
0.00178135
0.17537
0.150875
0.0285594
0.0119695
0.00639216
0.00381139
0.00247213
0.00173045
0.00130171
0.00104642
0.000897754
0.00081945
0.000790052
0.000795446
0.000821676
0.000852928
0.000875146
0.000881801
0.000874478
0.000858312
0.000838267
0.000817898
0.000799046
0.00078229
0.000767995
0.000756154
0.0007463
0.000737602
0.000729136
0.000720307
0.000711146
0.000702508
0.000696468
0.000697404
0.000713459
0.000801733
0.001377
0.00154327
0.114519
0.0790276
0.0264244
0.0116728
0.00636795
0.0040189
0.00283647
0.00219659
0.00184111
0.0016498
0.00155813
0.00152801
0.00153562
0.0015639
0.00159811
0.00162482
0.00163496
0.00162659
0.00160334
0.00157074
0.00153391
0.00149662
0.00146049
0.00142543
0.00139162
0.00135874
0.00132565
0.00129042
0.00125077
0.00120485
0.00115238
0.00109597
0.00104207
0.000999856
0.000979306
0.00100749
0.00195562
0.00129495
0.00151069
0.00438906
0.0404087
0.0302941
0.017523
0.0103492
0.00654712
0.004434
0.00318654
0.00241273
0.00191704
0.00159553
0.00138933
0.00126243
0.00119124
0.00115949
0.00115474
0.00116604
0.00118318
0.00119768
0.00120421
0.00120096
0.00118867
0.00116943
0.00114719
0.0011244
0.00110154
0.0010792
0.00105767
0.00103677
0.00101563
0.000992653
0.000965583
0.000931869
0.000889216
0.000835975
0.000770994
0.000696179
0.000702694
0.000502432
)
;

boundaryField
{
    floor
    {
        Cmu             0.09;
        kappa           0.41;
        E               9.8;
        type            epsilonWallFunction;
        value           nonuniform List<scalar> 
29
(
0.000166102
6.46784e-06
6.00355e-06
4.52409e-06
4.34756e-06
4.36486e-06
4.44898e-06
4.73149e-06
5.43595e-06
6.65091e-06
8.54895e-06
1.14069e-05
1.56191e-05
2.13911e-05
2.94e-05
4.03023e-05
5.23459e-05
5.39765e-05
4.25883e-05
2.6652e-05
2.6652e-05
5.50963e-05
0.000206715
0.000452442
0.000166102
6.46784e-06
1.69991e-05
4.90481e-05
0.000257976
)
;
    }
    ceiling
    {
        Cmu             0.09;
        kappa           0.41;
        E               9.8;
        type            epsilonWallFunction;
        value           nonuniform List<scalar> 
43
(
0.00151069
0.00438906
0.0404087
0.0302941
0.017523
0.0103492
0.00654712
0.004434
0.00318654
0.00241273
0.00191704
0.00159553
0.00138933
0.00126243
0.00119124
0.00115949
0.00115474
0.00116604
0.00118318
0.00119768
0.00120421
0.00120096
0.00118867
0.00116943
0.00114719
0.0011244
0.00110154
0.0010792
0.00105767
0.00103677
0.00101563
0.000992653
0.000965583
0.000931869
0.000889216
0.000835975
0.000770994
0.000696179
0.000702694
0.000502432
0.0123608
0.0190564
0.114519
)
;
    }
    sWall
    {
        Cmu             0.09;
        kappa           0.41;
        E               9.8;
        type            epsilonWallFunction;
        value           uniform 0.00151069;
    }
    nWall
    {
        Cmu             0.09;
        kappa           0.41;
        E               9.8;
        type            epsilonWallFunction;
        value           nonuniform List<scalar> 6(0.000320994 0.000345647 0.000379009 0.00154327 0.00129495 0.000502432);
    }
    sideWalls
    {
        type            empty;
    }
    glass1
    {
        Cmu             0.09;
        kappa           0.41;
        E               9.8;
        type            epsilonWallFunction;
        value           nonuniform List<scalar> 9(0.000122824 0.000745074 0.00203853 0.00411954 0.00693036 0.0104207 0.01411 0.0142686 0.0123608);
    }
    glass2
    {
        Cmu             0.09;
        kappa           0.41;
        E               9.8;
        type            epsilonWallFunction;
        value           nonuniform List<scalar> 2(0.00148167 0.00178135);
    }
    sun
    {
        Cmu             0.09;
        kappa           0.41;
        E               9.8;
        type            epsilonWallFunction;
        value           nonuniform List<scalar> 
14
(
0.000122824
0.000130978
7.93048e-05
8.51057e-05
9.48896e-05
0.000105882
0.000118006
0.000131537
0.000146954
0.000162157
0.00017577
0.000185809
0.000189742
0.000184654
)
;
    }
    heatsource1
    {
        Cmu             0.09;
        kappa           0.41;
        E               9.8;
        type            epsilonWallFunction;
        value           nonuniform List<scalar> 3(0.000688013 0.000489383 0.000320994);
    }
    heatsource2
    {
        Cmu             0.09;
        kappa           0.41;
        E               9.8;
        type            epsilonWallFunction;
        value           nonuniform List<scalar> 4(0.000197427 6.6894e-05 6.6894e-05 0.000203352);
    }
    Table_master
    {
        Cmu             0.09;
        kappa           0.41;
        E               9.8;
        type            epsilonWallFunction;
        value           nonuniform List<scalar> 9(5.47964e-06 7.61751e-06 1.19649e-05 1.82865e-05 2.73718e-05 4.10356e-05 6.26686e-05 9.82721e-05 0.000159737);
    }
    Table_slave
    {
        Cmu             0.09;
        kappa           0.41;
        E               9.8;
        type            epsilonWallFunction;
        value           nonuniform List<scalar> 9(0.000188689 0.000190219 0.000190141 0.0001889 0.000188637 0.000192726 0.000206524 0.000239141 0.000308561);
    }
    inlet
    {
        type            turbulentMixingLengthDissipationRateInlet;
        mixingLength    0.01;
        phi             phi;
        k               k;
        value           uniform 0.17537;
    }
    outlet
    {
        type            zeroGradient;
    }
}


// ************************************************************************* //
