/*--------------------------------*- C++ -*----------------------------------*\
  =========                 |
  \\      /  F ield         | OpenFOAM: The Open Source CFD Toolbox
   \\    /   O peration     | Website:  https://openfoam.org
    \\  /    A nd           | Version:  6
     \\/     M anipulation  |
\*---------------------------------------------------------------------------*/
FoamFile
{
    version     2.0;
    format      ascii;
    class       volScalarField;
    location    "800";
    object      nut;
}
// * * * * * * * * * * * * * * * * * * * * * * * * * * * * * * * * * * * * * //

dimensions      [0 2 -1 0 0 0 0];

internalField   nonuniform List<scalar> 
459
(
0.000702847
0.000718075
0.00060745
0.000621903
0.000644873
0.000668869
0.000693479
0.000719028
0.000746087
0.000770975
0.000791974
0.000806774
0.000812434
0.000805122
0.000777236
0.000263215
0.000256823
0.00023374
0.000230691
0.000230998
0.00023246
0.000237269
0.000248503
0.000265773
0.000288942
0.000318063
0.000353155
0.000392161
0.000435994
0.000484319
0.000528448
0.000533915
0.000493417
0.000422124
0.00128183
0.002461
0.00161622
0.00247597
0.002775
0.00297104
0.00316463
0.00334783
0.00350366
0.00363511
0.00371567
0.0037032
0.00352443
0.00305307
0.0021217
0.000823335
0.000573904
0.000363321
0.000747938
0.000508469
0.000427765
0.000357562
0.000320483
0.000349075
0.000376847
0.000442651
0.000538614
0.000652272
0.000770828
0.000900327
0.00104463
0.00121677
0.00155412
0.00133489
0.000976696
0.000537766
0.00179278
0.00440385
0.00186174
0.00307425
0.00409043
0.00443473
0.00466715
0.00486394
0.00501961
0.00513939
0.00519323
0.00513251
0.00487785
0.0043135
0.00333347
0.00202677
0.000831615
0.00051755
0.00134195
0.000993823
0.000780963
0.000621948
0.000464875
0.000249375
0.000278342
0.000323521
0.000372592
0.000426141
0.000487652
0.000561488
0.000652221
0.000766766
0.00206489
0.00190278
0.00143192
0.000835521
0.00226655
0.00676516
0.00274805
0.00290996
0.0045105
0.00512937
0.00544594
0.00569359
0.00589719
0.00606707
0.0061929
0.00622964
0.00609787
0.00567636
0.00481988
0.00346135
0.00188744
0.000900434
0.00176927
0.00201814
0.00185127
0.00163244
0.00137583
0.00110517
0.000810904
0.000813028
0.000812873
0.000811067
0.000810664
0.000816459
0.000835477
0.000877309
0.000955077
0.00271804
0.00265844
0.00216602
0.00108496
0.00269563
0.00920869
0.00452844
0.00309033
0.00420891
0.00509128
0.00559272
0.00596896
0.00628751
0.00657695
0.00687369
0.00715008
0.00735131
0.00740175
0.00722072
0.00675864
0.00605039
0.00521911
0.00446512
0.0043895
0.00450393
0.00467188
0.00480534
0.00479994
0.00472103
0.00465951
0.00455368
0.0044018
0.00421242
0.00400753
0.00382399
0.00370062
0.00365334
0.00367781
0.00349061
0.00321242
0.00272292
0.00124771
0.00111357
0.000967604
0.00308817
0.0113288
0.00733281
0.00462741
0.00401519
0.00440214
0.00500307
0.00555115
0.00601132
0.00644661
0.00693853
0.00747042
0.00799145
0.00843135
0.00871324
0.00876987
0.00856611
0.0081315
0.00757644
0.00719946
0.00708343
0.00712222
0.00719348
0.00720146
0.00715243
0.00704724
0.00688231
0.00665284
0.0063517
0.00597637
0.00554126
0.00508679
0.00466314
0.0042914
0.0039545
0.00362303
0.00322679
0.00275545
0.00214733
0.000991986
0.00341643
0.012546
0.0103548
0.00743366
0.0054446
0.00448122
0.00444869
0.00480371
0.00521293
0.00567009
0.00625467
0.00696841
0.00775201
0.00851152
0.00914956
0.00957972
0.00973765
0.00962734
0.0093332
0.00901446
0.00880471
0.0087136
0.00867555
0.00864474
0.00859443
0.00851042
0.00838695
0.00821546
0.00797861
0.00764779
0.00718757
0.0065783
0.00585906
0.00513697
0.00450276
0.00395369
0.00342236
0.00287091
0.00223474
0.00102288
0.00342915
0.0111224
0.0101206
0.00930106
0.0076476
0.00618362
0.00531948
0.00493588
0.00485707
0.00497674
0.00529928
0.00586755
0.00666864
0.00760366
0.00852189
0.00928531
0.00975834
0.00994237
0.00989081
0.00971574
0.00953586
0.00940705
0.00932886
0.00928187
0.00924534
0.00920508
0.00915423
0.00908683
0.0089921
0.00884862
0.00861665
0.00823104
0.00761482
0.00676148
0.00581209
0.00495594
0.0042164
0.00363195
0.00320352
0.00161128
0.00326892
0.00377626
0.00904547
0.00965669
0.00842931
0.00711242
0.00608962
0.00540034
0.00498846
0.00479071
0.00480142
0.00504427
0.00553848
0.00626907
0.00714149
0.0079997
0.00868942
0.00913722
0.00934359
0.00937116
0.0093077
0.00922071
0.00914492
0.00909186
0.00906012
0.00904473
0.00904165
0.00904759
0.00905804
0.00906466
0.00905156
0.00899043
0.00883792
0.00854741
0.00814069
0.00765113
0.00706218
0.00617848
0.00596795
0.00171366
0.0197082
0.0180432
0.0102723
0.00801526
0.00683996
0.00608196
0.00559139
0.00529871
0.00516439
0.00516714
0.00530654
0.00558589
0.00600036
0.00651529
0.00705878
0.0075465
0.00791409
0.00814132
0.00825008
0.00827971
0.00826673
0.0082377
0.00820849
0.00818784
0.00818139
0.00819281
0.00822293
0.00826824
0.00831869
0.00835417
0.00834019
0.00822761
0.00796608
0.00752297
0.00688643
0.00605111
0.0051143
0.00163381
0.00686579
0.0142005
0.00995369
0.00774218
0.00653919
0.00581666
0.00538201
0.00514479
0.00505366
0.00507505
0.0051831
0.00535753
0.00558375
0.00584892
0.00613409
0.00641131
0.00665093
0.00683371
0.00695618
0.00702695
0.00706009
0.00706959
0.00706143
0.00704105
0.00701808
0.006999
0.00698603
0.00697653
0.00696228
0.00692841
0.00685252
0.00670596
0.00645997
0.00609543
0.00560722
0.00496829
0.00465995
0.00154111
0.00162204
0.00231436
0.00485153
0.00440724
0.00367212
0.00308093
0.0026448
0.00232258
0.00208039
0.00189616
0.00175625
0.00165202
0.00157758
0.00152803
0.00149878
0.00148537
0.00148335
0.00148818
0.00149544
0.00150152
0.00150424
0.00150289
0.00149774
0.00148961
0.00148012
0.00147026
0.00146022
0.00145027
0.00144055
0.00143099
0.00142117
0.00141035
0.00139739
0.00138091
0.0013595
0.0013318
0.00129635
0.00125299
0.00125693
0.00112395
)
;

boundaryField
{
    floor
    {
        type            nutkWallFunction;
        Cmu             0.09;
        kappa           0.41;
        E               9.8;
        value           nonuniform List<scalar> 
29
(
9.41334e-05
2.8332e-05
2.74371e-05
2.41978e-05
2.37641e-05
2.38075e-05
2.40153e-05
2.46944e-05
2.62712e-05
2.86779e-05
3.18756e-05
3.58473e-05
4.05708e-05
4.57496e-05
5.14914e-05
5.77371e-05
6.33697e-05
6.40601e-05
5.88935e-05
4.96679e-05
4.96678e-05
6.45306e-05
0.000101213
0.000130723
9.41334e-05
2.83319e-05
4.19215e-05
6.19432e-05
0.000108901
)
;
    }
    ceiling
    {
        type            nutkWallFunction;
        Cmu             0.09;
        kappa           0.41;
        E               9.8;
        value           nonuniform List<scalar> 
43
(
0.000191992
0.000267772
0.000529125
0.000484567
0.000409891
0.000348762
0.000302909
0.000268534
0.000242368
0.000222249
0.000206828
0.000195254
0.000186938
0.000181378
0.000178084
0.00017657
0.00017634
0.000176881
0.000177697
0.000178379
0.000178684
0.00017853
0.000177949
0.000177032
0.00017596
0.000174846
0.000173713
0.000172589
0.00017149
0.000170409
0.000169299
0.000168074
0.000166605
0.000164736
0.000162303
0.000159149
0.000155102
0.000150133
0.000150581
0.000135231
0.000368161
0.00042033
0.000726416
)
;
    }
    sWall
    {
        type            nutkWallFunction;
        Cmu             0.09;
        kappa           0.41;
        E               9.8;
        value           uniform 0.000192032;
    }
    nWall
    {
        type            nutkWallFunction;
        Cmu             0.09;
        kappa           0.41;
        E               9.8;
        value           nonuniform List<scalar> 6(0.000116953 0.000119811 0.00012345 0.000193178 0.000182806 0.000135238);
    }
    sideWalls
    {
        type            empty;
    }
    glass1
    {
        type            nutkWallFunction;
        Cmu             0.09;
        kappa           0.41;
        E               9.8;
        value           nonuniform List<scalar> 9(8.50286e-05 0.000153564 0.000211029 0.000262701 0.000308504 0.000349741 0.00038381 0.000385138 0.000368582);
    }
    glass2
    {
        type            nutkWallFunction;
        Cmu             0.09;
        kappa           0.41;
        E               9.8;
        value           nonuniform List<scalar> 2(0.000190747 0.000202114);
    }
    sun
    {
        type            nutkWallFunction;
        Cmu             0.09;
        kappa           0.41;
        E               9.8;
        value           nonuniform List<scalar> 
14
(
8.50634e-05
8.6929e-05
7.32671e-05
7.50695e-05
7.79224e-05
8.08896e-05
8.39196e-05
8.70519e-05
9.03545e-05
9.33795e-05
9.59228e-05
9.77104e-05
9.83924e-05
9.75089e-05
)
;
    }
    heatsource1
    {
        type            nutkWallFunction;
        Cmu             0.09;
        kappa           0.41;
        E               9.8;
        value           nonuniform List<scalar> 3(0.000149551 0.000134068 0.000116949);
    }
    heatsource2
    {
        type            nutkWallFunction;
        Cmu             0.09;
        kappa           0.41;
        E               9.8;
        value           nonuniform List<scalar> 4(9.96982e-05 6.90737e-05 6.90737e-05 0.000100683);
    }
    Table_master
    {
        type            nutkWallFunction;
        Cmu             0.09;
        kappa           0.41;
        E               9.8;
        value           nonuniform List<scalar> 9(2.63876e-05 3.04018e-05 3.65617e-05 4.31303e-05 5.01741e-05 5.81295e-05 6.75184e-05 7.88552e-05 9.29011e-05);
    }
    Table_slave
    {
        type            nutkWallFunction;
        Cmu             0.09;
        kappa           0.41;
        E               9.8;
        value           nonuniform List<scalar> 9(9.821e-05 9.84717e-05 9.84569e-05 9.82423e-05 9.81962e-05 9.88967e-05 0.000101187 0.000106203 0.000115454);
    }
    inlet
    {
        type            calculated;
        value           uniform 0.0197082;
    }
    outlet
    {
        type            calculated;
        value           nonuniform List<scalar> 2(0.00162204 0.00231436);
    }
}


// ************************************************************************* //
