/*--------------------------------*- C++ -*----------------------------------*\
  =========                 |
  \\      /  F ield         | OpenFOAM: The Open Source CFD Toolbox
   \\    /   O peration     | Website:  https://openfoam.org
    \\  /    A nd           | Version:  6
     \\/     M anipulation  |
\*---------------------------------------------------------------------------*/
FoamFile
{
    version     2.0;
    format      ascii;
    class       volScalarField;
    location    "700";
    object      alphat;
}
// * * * * * * * * * * * * * * * * * * * * * * * * * * * * * * * * * * * * * //

dimensions      [1 -1 -1 0 0 0 0];

internalField   nonuniform List<scalar> 
459
(
0.00123467
0.00134678
0.00137197
0.00143731
0.00149785
0.00155493
0.00161161
0.00166575
0.0017037
0.00171817
0.00170217
0.00165076
0.00156165
0.00143758
0.00129255
0.000537965
0.000641597
0.000724268
0.000731014
0.000710147
0.000680131
0.00063846
0.000595956
0.000557268
0.000522994
0.000492714
0.000465878
0.00044205
0.000420739
0.000401176
0.000382389
0.000363058
0.000351556
0.000322448
0.00168143
0.00397863
0.00376004
0.00435972
0.00494705
0.00553647
0.00604952
0.00644936
0.00682148
0.00713131
0.00733613
0.00739185
0.00724596
0.00677361
0.00544596
0.00131482
0.000814429
0.00056113
0.00117629
0.001645
0.00199948
0.00220842
0.00221859
0.00175663
0.00150942
0.00133364
0.0011993
0.00109304
0.00100689
0.00093358
0.000865576
0.000800081
0.000742171
0.000691125
0.00082823
0.000430594
0.00205293
0.00539725
0.00457944
0.00570042
0.00621342
0.00658815
0.00688317
0.00714494
0.007449
0.00777759
0.00809196
0.00833318
0.00844921
0.00835415
0.00779114
0.00598148
0.00135447
0.00105272
0.00152974
0.00198899
0.00243476
0.00276593
0.00273344
0.00090719
0.000803013
0.000718319
0.000649515
0.000593237
0.000546793
0.000508187
0.000476119
0.000450017
0.000485067
0.000557674
0.000939221
0.00050425
0.00240986
0.00691117
0.00451965
0.00594727
0.00633072
0.00642542
0.00650928
0.00666354
0.00692222
0.00726526
0.00765705
0.0080135
0.00827881
0.00837923
0.00825733
0.00761258
0.00511797
0.00158416
0.00189761
0.00241668
0.00298332
0.00348653
0.0038326
0.00365322
0.00102688
0.000940637
0.000879386
0.000832892
0.000793082
0.000755516
0.000719262
0.000680885
0.000635995
0.000596048
0.000600877
0.00109715
0.000562126
0.00277363
0.00888762
0.0048892
0.00567041
0.00619447
0.00613911
0.00609725
0.00622083
0.00646567
0.00681621
0.00724912
0.00764083
0.0079116
0.00801154
0.0079434
0.0076808
0.00702632
0.00595057
0.00557762
0.00550884
0.00555193
0.00560606
0.00560703
0.00543144
0.0046336
0.0042471
0.00402415
0.0038508
0.00366481
0.00339596
0.00301932
0.00255512
0.00203721
0.00152256
0.00112507
0.0011154
0.000764498
0.000695017
0.000836523
0.000939332
0.00315985
0.0110547
0.00673573
0.00548628
0.00599435
0.0061588
0.00600861
0.00612539
0.00632941
0.00665487
0.0070745
0.00748218
0.00775038
0.00780351
0.00766021
0.00741935
0.00719036
0.00703967
0.00703671
0.00705337
0.00700896
0.00689592
0.00672078
0.00647233
0.00610588
0.00577934
0.00549038
0.00521247
0.00492899
0.00462416
0.00423143
0.00373261
0.00312812
0.00245668
0.00185391
0.00136461
0.0010549
0.000905698
0.00129106
0.000982986
0.00352252
0.0126186
0.00967457
0.00697911
0.00650635
0.00654564
0.00639376
0.00631043
0.00641047
0.00671826
0.00715882
0.00758532
0.00783876
0.00783217
0.00760697
0.00734013
0.00726374
0.00744713
0.00767571
0.00773688
0.00760317
0.00733381
0.00698034
0.0065773
0.00615807
0.0057779
0.00543764
0.00512503
0.0048373
0.00457993
0.00435199
0.00403423
0.00357076
0.00299483
0.00243272
0.0019136
0.00155245
0.00145298
0.00149455
0.00112853
0.00359883
0.011446
0.00992855
0.00879058
0.00809261
0.00733601
0.00669803
0.00643067
0.00655171
0.00696231
0.00749102
0.00793686
0.00812382
0.00799388
0.00765685
0.00738983
0.0074625
0.00776992
0.00788106
0.00770161
0.00731833
0.0068163
0.00626833
0.0057419
0.00528806
0.00492053
0.00462083
0.00437452
0.00418042
0.00404508
0.00397682
0.00394964
0.00372996
0.00336638
0.00304195
0.00288529
0.00303128
0.00352754
0.00431519
0.00174738
0.00350878
0.00419443
0.00474166
0.00491771
0.00493672
0.00505047
0.00538117
0.00595788
0.00672721
0.00753601
0.00819285
0.00853259
0.00844257
0.00799848
0.00751845
0.00739855
0.00743487
0.00739973
0.00714321
0.0066721
0.00607223
0.00543915
0.00486071
0.00439015
0.00403347
0.00376468
0.00355337
0.00337938
0.00323008
0.00309521
0.00296574
0.00284071
0.00274072
0.00266732
0.00264122
0.00265265
0.0026311
0.00251508
0.0023436
0.00163069
0.00217591
0.00384745
0.00529557
0.00650158
0.00747493
0.00834241
0.00901278
0.00934104
0.00928114
0.00885678
0.00811194
0.00726316
0.00672752
0.00650725
0.00628068
0.00590146
0.00537854
0.00478902
0.00421057
0.00371101
0.00333089
0.00306184
0.00287569
0.00274507
0.00265161
0.00258498
0.00253978
0.00251386
0.00251008
0.0025316
0.00256297
0.00260058
0.00263509
0.00263699
0.00255976
0.00239076
0.00214396
0.0013364
0.002527
0.00536884
0.0073242
0.00823039
0.00882853
0.0092287
0.00917234
0.00856337
0.00764475
0.0066649
0.00583796
0.00523418
0.00482681
0.00446612
0.00404336
0.00357898
0.00313285
0.00275852
0.00248118
0.00229539
0.00217414
0.00209874
0.00206301
0.00205731
0.00207574
0.0021144
0.00216961
0.00223622
0.00232067
0.00242012
0.00253166
0.00264765
0.00275005
0.00281912
0.00279731
0.00281452
0.0027627
0.00135813
0.0021584
0.00227308
0.00235787
0.00242485
0.00219044
0.00200476
0.00191317
0.00182267
0.00169324
0.00153529
0.0013559
0.00117858
0.00102194
0.000897875
0.000808496
0.000746215
0.000702591
0.000672714
0.000654415
0.000646422
0.000647284
0.000655451
0.000669668
0.000689282
0.000712992
0.000740718
0.000772599
0.000809004
0.000850648
0.000898866
0.000953024
0.00101324
0.00108024
0.0011547
0.00123639
0.00133599
0.00136523
0.00132961
0.00124531
0.00115459
)
;

boundaryField
{
    floor
    {
        type            compressible::alphatWallFunction;
        Prt             0.85;
        value           nonuniform List<scalar> 
29
(
0.000182863
7.50269e-05
9.05761e-05
0.000102759
0.000103746
0.000100691
9.62773e-05
9.01104e-05
8.37694e-05
7.79492e-05
7.2751e-05
6.81231e-05
6.39918e-05
6.02983e-05
5.69733e-05
5.39021e-05
5.09346e-05
4.78614e-05
4.60229e-05
4.13346e-05
4.1334e-05
5.85137e-05
6.98907e-05
7.86833e-05
0.000182861
7.5026e-05
7.85318e-05
0.000149696
0.000222269
)
;
    }
    ceiling
    {
        type            compressible::alphatWallFunction;
        Prt             0.85;
        value           nonuniform List<scalar> 
43
(
0.000297561
0.000312334
0.000323207
0.000331882
0.000301863
0.000277824
0.00026588
0.000254011
0.000236917
0.000215854
0.000191632
0.000167328
0.000145508
0.00012795
0.000115124
0.000106087
9.97032e-05
9.53035e-05
9.25971e-05
9.14121e-05
9.15401e-05
9.27509e-05
9.48542e-05
9.7747e-05
0.000101231
0.000105286
0.000109928
0.000115199
0.000121195
0.000128094
0.000135792
0.00014429
0.000153678
0.000164031
0.000175303
0.000188931
0.00019291
0.000188062
0.000176529
0.00016402
0.000467645
0.000551036
0.000344646
)
;
    }
    sWall
    {
        type            compressible::alphatWallFunction;
        Prt             0.85;
        value           uniform 0.00029634;
    }
    nWall
    {
        type            compressible::alphatWallFunction;
        Prt             0.85;
        value           nonuniform List<scalar> 6(0.000133523 0.000139694 0.000160056 0.000188657 0.000191611 0.000163692);
    }
    sideWalls
    {
        type            empty;
    }
    glass1
    {
        type            compressible::alphatWallFunction;
        Prt             0.85;
        value           nonuniform List<scalar> 9(0.00017062 0.000230101 0.000278353 0.000323916 0.000369684 0.000417637 0.000462157 0.000471596 0.000460837);
    }
    glass2
    {
        type            compressible::alphatWallFunction;
        Prt             0.85;
        value           nonuniform List<scalar> 2(0.000242303 0.000226951);
    }
    sun
    {
        type            compressible::alphatWallFunction;
        Prt             0.85;
        value           nonuniform List<scalar> 
14
(
0.000174948
0.000190265
0.000193691
0.000202541
0.000210701
0.000218362
0.000225938
0.000233146
0.000238184
0.000240101
0.00023798
0.000231151
0.000219258
0.000202573
)
;
    }
    heatsource1
    {
        type            compressible::alphatWallFunction;
        Prt             0.85;
        value           nonuniform List<scalar> 3(9.85848e-05 0.000119159 0.000133844);
    }
    heatsource2
    {
        type            compressible::alphatWallFunction;
        Prt             0.85;
        value           nonuniform List<scalar> 4(0.000186037 0.000115976 0.000115975 0.000191438);
    }
    Table_master
    {
        type            compressible::alphatWallFunction;
        Prt             0.85;
        value           nonuniform List<scalar> 9(0.000129271 0.000114325 0.000102003 9.1863e-05 8.34716e-05 7.64725e-05 7.0598e-05 6.56759e-05 6.16385e-05);
    }
    Table_slave
    {
        type            compressible::alphatWallFunction;
        Prt             0.85;
        value           nonuniform List<scalar> 9(0.0001462 0.000134029 0.000125306 0.000118637 0.000112891 0.000107437 0.000102143 9.65036e-05 8.98576e-05);
    }
    inlet
    {
        type            fixedValue;
        value           uniform 1.94e-05;
    }
    outlet
    {
        type            zeroGradient;
    }
}


// ************************************************************************* //
