/*--------------------------------*- C++ -*----------------------------------*\
  =========                 |
  \\      /  F ield         | OpenFOAM: The Open Source CFD Toolbox
   \\    /   O peration     | Website:  https://openfoam.org
    \\  /    A nd           | Version:  6
     \\/     M anipulation  |
\*---------------------------------------------------------------------------*/
FoamFile
{
    version     2.0;
    format      ascii;
    class       volScalarField;
    location    "700";
    object      epsilon;
}
// * * * * * * * * * * * * * * * * * * * * * * * * * * * * * * * * * * * * * //

dimensions      [0 2 -3 0 0 0 0];

internalField   nonuniform List<scalar> 
459
(
0.000425651
0.000551006
0.000582444
0.000669658
0.000757862
0.000847815
0.000943914
0.00104221
0.00111498
0.0011435
0.00111173
0.0010139
0.000858353
0.000669579
0.000486712
3.51196e-05
5.9565e-05
8.56785e-05
8.8097e-05
8.07687e-05
7.09566e-05
5.86991e-05
4.77407e-05
3.9035e-05
3.22676e-05
2.69821e-05
2.28099e-05
1.94866e-05
1.68025e-05
1.45664e-05
1.26148e-05
1.07971e-05
9.80363e-06
7.56595e-06
0.00107706
0.00157916
0.000517861
0.000501143
0.00052365
0.000563024
0.000623562
0.000703948
0.000780706
0.000828303
0.000826528
0.000769737
0.000666539
0.000539301
0.000434509
0.000512221
0.000121728
3.9858e-05
9.35734e-05
0.000104369
9.78964e-05
8.54908e-05
7.30388e-05
6.68867e-05
5.41465e-05
4.27749e-05
3.37926e-05
2.68934e-05
2.1618e-05
1.758e-05
1.45016e-05
1.22404e-05
1.08447e-05
1.02358e-05
2.67208e-05
1.80155e-05
0.00196407
0.00389
0.000636997
0.000475282
0.000496161
0.000556557
0.000648531
0.00076546
0.000873059
0.000936969
0.0009397
0.0008824
0.000776969
0.000649105
0.00053017
0.000471507
0.000560006
0.000263084
0.000206829
0.000164778
0.000132348
0.000107166
9.18755e-05
0.000168402
0.000116793
8.35991e-05
6.18037e-05
4.70901e-05
3.68733e-05
2.96013e-05
2.43437e-05
2.05555e-05
1.57229e-05
1.323e-05
5.09924e-05
2.89321e-05
0.00318311
0.00809969
0.0010053
0.000477507
0.000481543
0.000566356
0.000705113
0.000880051
0.0010171
0.00108297
0.00107395
0.00100099
0.000875432
0.000728214
0.000598734
0.000514593
0.000495605
0.000896143
0.000519444
0.000319606
0.00021808
0.000159908
0.000123607
0.000106576
0.000244341
0.000187819
0.000153478
0.000130408
0.000112595
9.73449e-05
8.39962e-05
7.12575e-05
5.80729e-05
3.46487e-05
2.25168e-05
8.57826e-05
4.0084e-05
0.00486233
0.0144919
0.00198844
0.000556919
0.000483449
0.00059613
0.000846071
0.00110923
0.00125566
0.00129826
0.00125647
0.00114867
0.000989583
0.000805498
0.000628251
0.000483806
0.000385784
0.000345005
0.000283594
0.000227844
0.000183001
0.000147809
0.000120524
0.000101584
9.8034e-05
9.18269e-05
8.58554e-05
7.98804e-05
7.33294e-05
6.60346e-05
5.87025e-05
5.17134e-05
4.52695e-05
3.63768e-05
2.79609e-05
6.09746e-05
4.66391e-05
7.58236e-05
0.000132265
0.000187283
0.00720172
0.0215835
0.00449248
0.00103729
0.000676401
0.000789381
0.00129535
0.00156324
0.00164178
0.00161502
0.00151809
0.0013595
0.00114693
0.000905474
0.000671736
0.000480389
0.000349829
0.000277155
0.000233534
0.000198594
0.000166552
0.000138552
0.000115907
9.98909e-05
9.19533e-05
8.88767e-05
8.74013e-05
8.54681e-05
8.18228e-05
7.54846e-05
6.62656e-05
5.65646e-05
4.76709e-05
3.97095e-05
3.44963e-05
4.58642e-05
4.81116e-05
5.86014e-05
0.000244673
0.000214555
0.00999224
0.0258486
0.00939232
0.00343717
0.00219909
0.00217489
0.00239271
0.00237301
0.00224462
0.00207678
0.0018778
0.00163346
0.00134003
0.00102266
0.000723524
0.000486538
0.000332522
0.000250145
0.000206708
0.000175645
0.000148146
0.000125035
0.000107927
9.77387e-05
9.45672e-05
9.62413e-05
9.98094e-05
0.000103507
0.00010608
0.000105758
9.91602e-05
8.77916e-05
7.64774e-05
6.69124e-05
6.31538e-05
7.09174e-05
9.08115e-05
0.000145895
0.000334717
0.000324627
0.0106795
0.0288314
0.015659
0.00996385
0.00706181
0.00546318
0.0043325
0.00357189
0.00305413
0.0026681
0.00232144
0.001952
0.00154095
0.00112131
0.000741129
0.000458016
0.000290807
0.000209342
0.000170308
0.000144083
0.000123131
0.000107928
9.90246e-05
9.6308e-05
9.90741e-05
0.000105951
0.000115681
0.000127872
0.000142604
0.000159766
0.000178285
0.00019034
0.00020054
0.000222661
0.000268499
0.000405652
0.000752771
0.00142254
0.00411559
0.00120703
0.00992873
0.0169124
0.0135693
0.0102483
0.00781852
0.00616227
0.00504356
0.00427843
0.00372549
0.00325683
0.00277462
0.00223277
0.00164153
0.00108709
0.000612988
0.000326723
0.000207863
0.00015546
0.000128046
0.000109797
9.72735e-05
9.01427e-05
8.81605e-05
9.08391e-05
9.75911e-05
0.000107965
0.000121996
0.000140425
0.000164676
0.000196846
0.00023975
0.000297395
0.000376407
0.000494539
0.000667803
0.000901481
0.00116665
0.00139566
0.00157238
0.000982481
0.00496579
0.00667413
0.00671411
0.00621902
0.00553433
0.00487809
0.00422708
0.00351909
0.00274166
0.00191478
0.00104828
0.000554224
0.000294464
0.000174697
0.000122782
9.73786e-05
8.30375e-05
7.43859e-05
6.95876e-05
6.81159e-05
6.96654e-05
7.38852e-05
8.05855e-05
8.98477e-05
0.000102112
0.000118242
0.000139618
0.000168334
0.000207687
0.000262792
0.000339084
0.000443742
0.000579915
0.000734239
0.00086492
0.000917437
0.000855987
0.00054072
0.00344334
0.00676111
0.00666963
0.00535397
0.00451073
0.00382216
0.00296234
0.00206037
0.00130249
0.000757795
0.000414131
0.000230661
0.000138687
9.55173e-05
7.50555e-05
6.45513e-05
5.90112e-05
5.65637e-05
5.64361e-05
5.8228e-05
6.16572e-05
6.6715e-05
7.35589e-05
8.24792e-05
9.3997e-05
0.00010895
0.000128641
0.000155066
0.000191018
0.000240169
0.000307524
0.000398016
0.000511995
0.000641075
0.000735446
0.000830147
0.000769481
0.000567456
0.00219051
0.00255679
0.00285356
0.003159
0.00234861
0.00180848
0.00157568
0.00136485
0.00109563
0.000817442
0.000563427
0.000370174
0.000241395
0.000163749
0.000119568
9.40176e-05
7.84784e-05
6.88894e-05
6.34212e-05
6.1127e-05
6.13731e-05
6.37268e-05
6.79653e-05
7.41151e-05
8.20305e-05
9.19784e-05
0.000104375
0.000119837
0.000139314
0.000164375
0.000195916
0.000235455
0.000285328
0.000348498
0.000427842
0.000539847
0.000576117
0.000532221
0.000437285
0.000348647
)
;

boundaryField
{
    floor
    {
        Cmu             0.09;
        kappa           0.41;
        E               9.8;
        type            epsilonWallFunction;
        value           nonuniform List<scalar> 
29
(
0.000486712
3.51196e-05
5.9565e-05
8.56785e-05
8.8097e-05
8.07687e-05
7.09566e-05
5.86991e-05
4.77407e-05
3.9035e-05
3.22676e-05
2.69821e-05
2.28099e-05
1.94866e-05
1.68025e-05
1.45664e-05
1.26148e-05
1.07971e-05
9.80363e-06
7.56595e-06
7.56595e-06
1.80155e-05
2.89321e-05
4.0084e-05
0.000486712
3.51196e-05
3.9858e-05
0.000263084
0.000896143
)
;
    }
    ceiling
    {
        Cmu             0.09;
        kappa           0.41;
        E               9.8;
        type            epsilonWallFunction;
        value           nonuniform List<scalar> 
43
(
0.00219051
0.00255679
0.00285356
0.003159
0.00234861
0.00180848
0.00157568
0.00136485
0.00109563
0.000817442
0.000563427
0.000370174
0.000241395
0.000163749
0.000119568
9.40176e-05
7.84784e-05
6.88894e-05
6.34212e-05
6.1127e-05
6.13731e-05
6.37268e-05
6.79653e-05
7.41151e-05
8.20305e-05
9.19784e-05
0.000104375
0.000119837
0.000139314
0.000164375
0.000195916
0.000235455
0.000285328
0.000348498
0.000427842
0.000539847
0.000576117
0.000532221
0.000437285
0.000348647
0.00992873
0.0169124
0.00344334
)
;
    }
    sWall
    {
        Cmu             0.09;
        kappa           0.41;
        E               9.8;
        type            epsilonWallFunction;
        value           uniform 0.00219051;
    }
    nWall
    {
        Cmu             0.09;
        kappa           0.41;
        E               9.8;
        type            epsilonWallFunction;
        value           nonuniform List<scalar> 6(0.000187283 0.000214555 0.000324627 0.00054072 0.000567456 0.000348647);
    }
    sideWalls
    {
        type            empty;
    }
    glass1
    {
        Cmu             0.09;
        kappa           0.41;
        E               9.8;
        type            epsilonWallFunction;
        value           nonuniform List<scalar> 9(0.000425651 0.00107706 0.00196407 0.00318311 0.00486233 0.00720172 0.00999224 0.0106795 0.00992873);
    }
    glass2
    {
        Cmu             0.09;
        kappa           0.41;
        E               9.8;
        type            epsilonWallFunction;
        value           nonuniform List<scalar> 2(0.00120703 0.000982481);
    }
    sun
    {
        Cmu             0.09;
        kappa           0.41;
        E               9.8;
        type            epsilonWallFunction;
        value           nonuniform List<scalar> 
14
(
0.000425651
0.000551006
0.000582444
0.000669658
0.000757862
0.000847815
0.000943914
0.00104221
0.00111498
0.0011435
0.00111173
0.0010139
0.000858353
0.000669579
)
;
    }
    heatsource1
    {
        Cmu             0.09;
        kappa           0.41;
        E               9.8;
        type            epsilonWallFunction;
        value           nonuniform List<scalar> 3(7.58236e-05 0.000132265 0.000187283);
    }
    heatsource2
    {
        Cmu             0.09;
        kappa           0.41;
        E               9.8;
        type            epsilonWallFunction;
        value           nonuniform List<scalar> 4(0.000512221 0.000121728 0.000121728 0.000560006);
    }
    Table_master
    {
        Cmu             0.09;
        kappa           0.41;
        E               9.8;
        type            epsilonWallFunction;
        value           nonuniform List<scalar> 9(0.000168402 0.000116793 8.35991e-05 6.18037e-05 4.70901e-05 3.68733e-05 2.96013e-05 2.43437e-05 2.05555e-05);
    }
    Table_slave
    {
        Cmu             0.09;
        kappa           0.41;
        E               9.8;
        type            epsilonWallFunction;
        value           nonuniform List<scalar> 9(0.000244341 0.000187819 0.000153478 0.000130408 0.000112595 9.73449e-05 8.39962e-05 7.12575e-05 5.80729e-05);
    }
    inlet
    {
        type            turbulentMixingLengthDissipationRateInlet;
        mixingLength    0.01;
        phi             phi;
        k               k;
        value           uniform 0.000101881;
    }
    outlet
    {
        type            zeroGradient;
    }
}


// ************************************************************************* //
