// -*- C++ -*-
// File generated by PyFoam - sorry for the ugliness

FoamFile
{
 version 2.0;
 format ascii;
 class volVectorField;
 location "700";
 object U;
}

dimensions [ 0 1 -1 0 0 0 0 ];

internalField nonuniform List<vector> 459
(
  (0.0345836 0.0858772 0)
  (-0.167064 0.0253914 0)
  (-0.19167 0.0178168 0)
  (-0.22265 0.0121405 0)
  (-0.245087 0.00586723 0)
  (-0.257874 -0.000814231 0)
  (-0.259313 -0.00797084 0)
  (-0.248126 -0.0156251 0)
  (-0.224905 -0.0230765 0)
  (-0.191558 -0.0289906 0)
  (-0.151824 -0.032267 0)
  (-0.110107 -0.0323692 0)
  (-0.0706447 -0.0294659 0)
  (-0.0386243 -0.0247245 0)
  (-0.028092 -0.0200191 0)
  (-0.00607387 0.00894608 0)
  (-0.0293996 -0.0167119 0)
  (-0.00778777 -0.0265546 0)
  (0.0159089 -0.0204956 0)
  (0.0313834 -0.01408 0)
  (0.0441424 -0.00914088 0)
  (0.0522076 -0.00531306 0)
  (0.0564042 -0.00330417 0)
  (0.058289 -0.00250229 0)
  (0.0592136 -0.00215958 0)
  (0.0597831 -0.00194778 0)
  (0.0600993 -0.00177654 0)
  (0.0601049 -0.00156821 0)
  (0.0596162 -0.001158 0)
  (0.0581133 -0.00018257 0)
  (0.0544786 0.00185848 0)
  (0.0475005 0.00399225 0)
  (0.0414293 0.0056268 0)
  (-0.0140223 0.020268 0)
  (0.2095 0.176017 0)
  (-0.156458 0.0672677 0)
  (-0.154734 0.0529861 0)
  (-0.186911 0.041194 0)
  (-0.209225 0.0277893 0)
  (-0.222327 0.0126515 0)
  (-0.224477 -0.00453893 0)
  (-0.214235 -0.0231823 0)
  (-0.192802 -0.0406614 0)
  (-0.162503 -0.0538654 0)
  (-0.127206 -0.060678 0)
  (-0.0909936 -0.0604693 0)
  (-0.0574227 -0.0538596 0)
  (-0.0299235 -0.042497 0)
  (-0.0124891 -0.0288932 0)
  (0.00128661 -0.0109289 0)
  (0.00014975 0.0155024 0)
  (0.0622814 0.0365252 0)
  (0.0243585 -0.0178381 0)
  (0.032974 -0.0313041 0)
  (0.0441455 -0.0279558 0)
  (0.0531063 -0.0201814 0)
  (0.059725 -0.012678 0)
  (0.0626146 -0.00539647 0)
  (0.063182 -0.00120853 0)
  (0.0631376 0.0005375 0)
  (0.0632488 0.00130728 0)
  (0.0634566 0.00177853 0)
  (0.0636091 0.00216633 0)
  (0.0636635 0.00263416 0)
  (0.0635774 0.0034931 0)
  (0.0628488 0.005602 0)
  (0.0591712 0.0114841 0)
  (0.0498297 0.0163144 0)
  (0.0458052 0.0193746 0)
  (-0.050865 0.0440512 0)
  (0.370002 0.26348 0)
  (-0.173588 0.107276 0)
  (-0.116286 0.0858328 0)
  (-0.147752 0.0647587 0)
  (-0.167698 0.0426572 0)
  (-0.179978 0.0180472 0)
  (-0.181843 -0.00992695 0)
  (-0.17095 -0.0397959 0)
  (-0.149778 -0.0668885 0)
  (-0.12157 -0.0861402 0)
  (-0.0903875 -0.0948813 0)
  (-0.0597447 -0.0930269 0)
  (-0.031918 -0.0820277 0)
  (-0.00899513 -0.0641627 0)
  (0.00809943 -0.0407208 0)
  (0.0192876 -0.0143941 0)
  (0.0236638 0.0225291 0)
  (0.110978 -0.0265262 0)
  (0.0743921 -0.0373888 0)
  (0.0687726 -0.0381354 0)
  (0.0702769 -0.0328365 0)
  (0.0716586 -0.0249716 0)
  (0.0730207 -0.0180439 0)
  (0.0718008 -0.0144379 0)
  (0.0671694 -0.0102015 0)
  (0.0637978 -0.00788448 0)
  (0.0622809 -0.00655582 0)
  (0.061642 -0.00570085 0)
  (0.0613233 -0.00510783 0)
  (0.0613104 -0.00458564 0)
  (0.0620377 -0.00376999 0)
  (0.0646062 -0.000718165 0)
  (0.0625613 0.0160657 0)
  (0.0494486 0.0275988 0)
  (0.0523277 0.0351272 0)
  (-0.0833518 0.0687005 0)
  (0.514851 0.333877 0)
  (-0.208582 0.142815 0)
  (-0.0753721 0.113863 0)
  (-0.105616 0.0849061 0)
  (-0.120162 0.0565591 0)
  (-0.129308 0.0242542 0)
  (-0.128264 -0.0143641 0)
  (-0.114326 -0.0560593 0)
  (-0.0927765 -0.0920178 0)
  (-0.0676308 -0.11566 0)
  (-0.0423582 -0.124814 0)
  (-0.0193759 -0.120736 0)
  (0.00108345 -0.105614 0)
  (0.0179548 -0.082891 0)
  (0.0322413 -0.0561404 0)
  (0.0474812 -0.0271973 0)
  (0.0689972 0.00447473 0)
  (0.0995222 0.0166611 0)
  (0.104656 -0.0225203 0)
  (0.0910481 -0.033255 0)
  (0.0822104 -0.0325891 0)
  (0.0772696 -0.0285624 0)
  (0.0735778 -0.0225842 0)
  (0.071126 -0.0149347 0)
  (0.0724739 -0.00910915 0)
  (0.0775324 -0.00686695 0)
  (0.0818647 -0.00562131 0)
  (0.0847852 -0.00472806 0)
  (0.0866076 -0.00371501 0)
  (0.0868737 -0.00228898 0)
  (0.0844272 -0.000191258 0)
  (0.0780073 0.00288084 0)
  (0.0651112 0.00746124 0)
  (0.0526464 0.02673 0)
  (0.0402515 0.0428648 0)
  (0.0565035 0.0553801 0)
  (-0.118 0.0906621 0)
  (0.640235 0.38844 0)
  (-0.25131 0.171887 0)
  (-0.0345711 0.130104 0)
  (-0.061436 0.0965019 0)
  (-0.0679693 0.0646907 0)
  (-0.0711722 0.0272912 0)
  (-0.0614337 -0.0210284 0)
  (-0.0422893 -0.0736464 0)
  (-0.0217445 -0.114889 0)
  (-0.00248985 -0.139133 0)
  (0.0138382 -0.145721 0)
  (0.0262938 -0.137987 0)
  (0.0360715 -0.120173 0)
  (0.0439531 -0.0958301 0)
  (0.0512324 -0.0684737 0)
  (0.0598687 -0.0418859 0)
  (0.0725727 -0.022298 0)
  (0.0831965 -0.0212558 0)
  (0.0843482 -0.028952 0)
  (0.0780617 -0.029754 0)
  (0.0699538 -0.0268627 0)
  (0.0632874 -0.0230376 0)
  (0.0582616 -0.0185083 0)
  (0.0552375 -0.0131697 0)
  (0.0551014 -0.00745621 0)
  (0.0575284 -0.0046861 0)
  (0.0603411 -0.00368861 0)
  (0.0630338 -0.00289784 0)
  (0.0655005 -0.00127505 0)
  (0.0673854 0.00179399 0)
  (0.0674209 0.00640199 0)
  (0.0649939 0.0126904 0)
  (0.0595202 0.0212798 0)
  (0.052524 0.0364591 0)
  (0.0421224 0.0543224 0)
  (0.0647342 0.0741508 0)
  (-0.0233616 0.102798 0)
  (0.0461022 0.0309209 0)
  (-0.0625314 -0.0346213 0)
  (-0.273164 -0.0573549 0)
  (0.731408 0.433965 0)
  (-0.292975 0.191508 0)
  (-0.00329536 0.12675 0)
  (-0.0163085 0.0978642 0)
  (-0.0123038 0.0672148 0)
  (-0.00696589 0.0245548 0)
  (0.0215858 -0.0380603 0)
  (0.0433857 -0.0939762 0)
  (0.0589091 -0.132291 0)
  (0.068353 -0.151746 0)
  (0.0723602 -0.154317 0)
  (0.0723094 -0.143575 0)
  (0.0697058 -0.123575 0)
  (0.0660414 -0.0983132 0)
  (0.0627973 -0.0714614 0)
  (0.0613748 -0.0466784 0)
  (0.0626268 -0.0282079 0)
  (0.0634661 -0.0208252 0)
  (0.0602433 -0.0204129 0)
  (0.0533171 -0.0205248 0)
  (0.0454632 -0.019129 0)
  (0.0388851 -0.0169151 0)
  (0.0341217 -0.0142336 0)
  (0.0314719 -0.0111472 0)
  (0.0311996 -0.00827431 0)
  (0.0329416 -0.00718784 0)
  (0.0356489 -0.00708363 0)
  (0.0388655 -0.00671043 0)
  (0.0424 -0.00504463 0)
  (0.0459707 -0.00118541 0)
  (0.0492366 0.00519957 0)
  (0.0509279 0.013708 0)
  (0.0513291 0.0244552 0)
  (0.0518195 0.0389037 0)
  (0.0504771 0.0565295 0)
  (0.0732618 0.0791156 0)
  (0.0520881 0.096574 0)
  (0.0933737 0.0673168 0)
  (0.116427 0.0443865 0)
  (-0.129614 -0.00734241 0)
  (0.78324 0.475344 0)
  (-0.313951 0.177021 0)
  (0.0234922 0.0773194 0)
  (0.0423052 0.0743039 0)
  (0.0572592 0.0528749 0)
  (0.0833881 0.00190608 0)
  (0.117728 -0.0624225 0)
  (0.137057 -0.111437 0)
  (0.143498 -0.141087 0)
  (0.139782 -0.152806 0)
  (0.128638 -0.149573 0)
  (0.112967 -0.135142 0)
  (0.0953339 -0.113391 0)
  (0.0779681 -0.0882375 0)
  (0.0625501 -0.0629026 0)
  (0.0503192 -0.0404894 0)
  (0.0417184 -0.0240947 0)
  (0.0352371 -0.0158113 0)
  (0.0287157 -0.0134625 0)
  (0.0216442 -0.0131218 0)
  (0.0149471 -0.0126108 0)
  (0.009556 -0.0118105 0)
  (0.00579171 -0.0108691 0)
  (0.0038331 -0.0098589 0)
  (0.00375946 -0.00918976 0)
  (0.00520239 -0.00946767 0)
  (0.00751847 -0.0101725 0)
  (0.0104334 -0.0104316 0)
  (0.01398 -0.00935591 0)
  (0.0182821 -0.00591301 0)
  (0.0242788 0.000935852 0)
  (0.0304054 0.0103112 0)
  (0.0361302 0.0212278 0)
  (0.043333 0.0341383 0)
  (0.0510906 0.0487053 0)
  (0.073346 0.0669834 0)
  (0.0864299 0.0742506 0)
  (0.118925 0.0513867 0)
  (0.158675 0.0435897 0)
  (-0.0346426 0.0940206 0)
  (0.887937 0.478158 0)
  (-0.0711221 0.156738 0)
  (0.105957 0.0041622 0)
  (0.168923 -0.0158641 0)
  (0.181652 -0.0344827 0)
  (0.217014 -0.0687844 0)
  (0.23894 -0.101756 0)
  (0.241548 -0.125345 0)
  (0.227641 -0.137024 0)
  (0.20219 -0.137015 0)
  (0.17005 -0.127088 0)
  (0.135438 -0.109886 0)
  (0.101384 -0.0880923 0)
  (0.0703678 -0.0649873 0)
  (0.0438487 -0.0430049 0)
  (0.0231809 -0.0247209 0)
  (0.00881783 -0.0126462 0)
  (-0.000577885 -0.00724469 0)
  (-0.00723454 -0.00630726 0)
  (-0.0128219 -0.00685009 0)
  (-0.0176079 -0.00748513 0)
  (-0.0214141 -0.00803063 0)
  (-0.0241604 -0.00854476 0)
  (-0.0258013 -0.0091181 0)
  (-0.0263886 -0.00994612 0)
  (-0.0262298 -0.0111583 0)
  (-0.0257034 -0.0124749 0)
  (-0.0249353 -0.0134431 0)
  (-0.0237759 -0.0135574 0)
  (-0.0218331 -0.012223 0)
  (-0.0181289 -0.00868539 0)
  (-0.0092147 -0.00219142 0)
  (-0.000154274 0.00634867 0)
  (0.0106229 0.0147779 0)
  (0.0223896 0.0218342 0)
  (0.0422189 0.0290786 0)
  (0.0605778 0.0218562 0)
  (0.0797239 -0.00566003 0)
  (0.138703 0.0406166 0)
  (-0.416719 0.207917 0)
  (1.033 0.430399 0)
  (0.497515 0.285343 0)
  (0.503637 0.192028 0)
  (0.51165 0.120704 0)
  (0.48645 0.069166 0)
  (0.443884 0.0157901 0)
  (0.393972 -0.0326494 0)
  (0.340526 -0.0670655 0)
  (0.283314 -0.0848695 0)
  (0.224747 -0.0880643 0)
  (0.168095 -0.0806909 0)
  (0.116131 -0.0667858 0)
  (0.069854 -0.0490877 0)
  (0.0311593 -0.0310419 0)
  (-0.000394877 -0.0148368 0)
  (-0.0212894 -0.00472986 0)
  (-0.0324574 -0.000934533 0)
  (-0.0386607 -0.000410033 0)
  (-0.0427136 -0.00137288 0)
  (-0.0462524 -0.00272414 0)
  (-0.0494955 -0.0040642 0)
  (-0.052442 -0.00534117 0)
  (-0.0550733 -0.00658457 0)
  (-0.0574206 -0.00784011 0)
  (-0.0596121 -0.00916081 0)
  (-0.0619215 -0.010511 0)
  (-0.064682 -0.0116633 0)
  (-0.0681952 -0.0122359 0)
  (-0.0727895 -0.0116963 0)
  (-0.0789257 -0.00934335 0)
  (-0.0871985 -0.00435158 0)
  (-0.0976826 0.00390347 0)
  (-0.108329 0.0149001 0)
  (-0.123774 0.0287719 0)
  (-0.148182 0.0455261 0)
  (-0.18406 0.0639082 0)
  (-0.234668 0.0797839 0)
  (-0.292012 0.0905047 0)
  (-0.36051 0.0961396 0)
  (-0.622355 0.0974951 0)
  (-0.148019 0.0838459 0)
  (0.135378 0.0631967 0)
  (0.218592 0.00744037 0)
  (0.202053 -0.0279473 0)
  (0.186331 -0.0427307 0)
  (0.163837 -0.0477301 0)
  (0.131392 -0.0462977 0)
  (0.0928494 -0.0400058 0)
  (0.0529492 -0.0303129 0)
  (0.0150085 -0.0181064 0)
  (-0.0224538 -0.00420865 0)
  (-0.046332 0.00353052 0)
  (-0.0609166 0.00696135 0)
  (-0.0679999 0.00736432 0)
  (-0.0714241 0.0065232 0)
  (-0.0736679 0.00544974 0)
  (-0.0755963 0.00435839 0)
  (-0.0775263 0.00330799 0)
  (-0.0797524 0.0022498 0)
  (-0.0823339 0.00107972 0)
  (-0.0851895 -0.000136367 0)
  (-0.0883505 -0.00132072 0)
  (-0.0918895 -0.00238511 0)
  (-0.0959009 -0.00317235 0)
  (-0.100465 -0.00343842 0)
  (-0.105581 -0.00286626 0)
  (-0.11115 -0.00109123 0)
  (-0.116935 0.00226214 0)
  (-0.122338 0.00761899 0)
  (-0.126539 0.0156893 0)
  (-0.130004 0.027596 0)
  (-0.133003 0.0437008 0)
  (-0.136386 0.0630511 0)
  (-0.14067 0.0818911 0)
  (-0.142613 0.0902753 0)
  (-0.124973 0.0674153 0)
  (-0.0793109 -0.0264694 0)
  (-0.27977 -0.205134 0)
  (-0.0244468 0.232112 0)
  (0.0630907 0.100903 0)
  (0.0375617 0.0201154 0)
  (0.0254958 -0.00346877 0)
  (0.0167006 -0.0091202 0)
  (-0.00165401 -0.0107345 0)
  (-0.0266268 -0.00824038 0)
  (-0.0525058 -0.00349886 0)
  (-0.0745107 0.00121457 0)
  (-0.0897206 0.00444555 0)
  (-0.0971045 0.00490483 0)
  (-0.0997028 0.00281973 0)
  (-0.100096 -6.20057e-06 0)
  (-0.0995035 -0.00319049 0)
  (-0.0990144 -0.00639287 0)
  (-0.0990257 -0.00936332 0)
  (-0.0995646 -0.0119936 0)
  (-0.100541 -0.0141144 0)
  (-0.101832 -0.0156154 0)
  (-0.103363 -0.0165018 0)
  (-0.105203 -0.0168867 0)
  (-0.107332 -0.0168005 0)
  (-0.109758 -0.0164882 0)
  (-0.11245 -0.0159254 0)
  (-0.115293 -0.0149877 0)
  (-0.118055 -0.013439 0)
  (-0.120368 -0.0109094 0)
  (-0.121712 -0.00684742 0)
  (-0.121511 -0.000949845 0)
  (-0.118766 0.00734492 0)
  (-0.11202 0.0189261 0)
  (-0.100011 0.0345557 0)
  (-0.082522 0.0537555 0)
  (-0.0604721 0.0722611 0)
  (-0.036831 0.0829245 0)
  (0.0037885 0.0667706 0)
  (0.143221 -0.00438854 0)
  (-0.207639 -0.115735 0)
  (-0.106979 -0.35027 0)
  (-0.440817 -0.120341 0)
  (-0.311848 0.0966577 0)
  (-0.226476 -0.0204952 0)
  (-0.179421 -0.0429137 0)
  (-0.164541 -0.0314287 0)
  (-0.162002 -0.0187809 0)
  (-0.163304 -0.00865245 0)
  (-0.163957 -0.000208154 0)
  (-0.161733 0.00708433 0)
  (-0.157071 0.0136827 0)
  (-0.150067 0.0196037 0)
  (-0.141649 0.0245983 0)
  (-0.133249 0.0286718 0)
  (-0.125735 0.0324065 0)
  (-0.119444 0.0359922 0)
  (-0.114392 0.0394864 0)
  (-0.110415 0.0427034 0)
  (-0.107374 0.0453174 0)
  (-0.10518 0.0470502 0)
  (-0.103757 0.0477647 0)
  (-0.103031 0.04748 0)
  (-0.102939 0.0463359 0)
  (-0.103418 0.0444792 0)
  (-0.10438 0.042366 0)
  (-0.105723 0.0401272 0)
  (-0.107274 0.0378695 0)
  (-0.108754 0.0356844 0)
  (-0.10973 0.0336485 0)
  (-0.109518 0.0318436 0)
  (-0.106865 0.0309936 0)
  (-0.099856 0.0317699 0)
  (-0.086 0.0349232 0)
  (-0.0634748 0.0413467 0)
  (-0.0330652 0.0515229 0)
  (0.016334 0.0651805 0)
  (0.0608525 0.0661436 0)
  (0.103644 0.0510081 0)
  (0.16454 0.0213666 0)
  (-0.215692 -0.0343611 0)
)
;

boundaryField
{
  floor
  {
    type noSlip;
  }
  ceiling
  {
    type noSlip;
  }
  sWall
  {
    type noSlip;
  }
  nWall
  {
    type noSlip;
  }
  sideWalls
  {
    type empty;
  }
  glass1
  {
    type noSlip;
  }
  glass2
  {
    type noSlip;
  }
  sun
  {
    type noSlip;
  }
  heatsource1
  {
    type noSlip;
  }
  heatsource2
  {
    type noSlip;
  }
  Table_master
  {
    type noSlip;
  }
  Table_slave
  {
    type noSlip;
  }
  inlet
  {
    type fixedValue;
    value uniform (0.3 0 0);
  }
  outlet
  {
    type zeroGradient;
  }
} 	// ************************************************************************* //

