/*--------------------------------*- C++ -*----------------------------------*\
  =========                 |
  \\      /  F ield         | OpenFOAM: The Open Source CFD Toolbox
   \\    /   O peration     | Website:  https://openfoam.org
    \\  /    A nd           | Version:  6
     \\/     M anipulation  |
\*---------------------------------------------------------------------------*/
FoamFile
{
    version     2.0;
    format      ascii;
    class       volScalarField;
    location    "1800";
    object      alphat;
}
// * * * * * * * * * * * * * * * * * * * * * * * * * * * * * * * * * * * * * //

dimensions      [1 -1 -1 0 0 0 0];

internalField   nonuniform List<scalar> 
459
(
0.00123687
0.00134976
0.00137537
0.00144105
0.00150193
0.00155937
0.00161647
0.00167091
0.0017091
0.00172371
0.00170775
0.00165628
0.00156694
0.00144229
0.00129609
0.000535743
0.000638356
0.000721099
0.000728241
0.000706769
0.000676173
0.000633766
0.000590643
0.000551507
0.000516932
0.000486466
0.000459532
0.000435622
0.000414303
0.000394793
0.000376125
0.000357021
0.000345879
0.000317373
0.00168352
0.00399996
0.00378533
0.00439034
0.00498338
0.00557772
0.00609367
0.00649587
0.00686982
0.00718111
0.00738703
0.00744362
0.00729793
0.00682475
0.00549744
0.00131951
0.000820256
0.000558261
0.00117544
0.00164632
0.00200253
0.00221338
0.00222298
0.00175349
0.00150361
0.00132641
0.00119122
0.00108441
0.000997856
0.000925044
0.000857421
0.000792055
0.00073388
0.000682623
0.000818845
0.000424618
0.00205465
0.00542641
0.00461786
0.00574912
0.0062682
0.00664545
0.00694036
0.00720124
0.00750499
0.00783483
0.0081518
0.0083969
0.00851665
0.00842139
0.00785318
0.0060226
0.00135982
0.00104664
0.00152408
0.00198465
0.00243316
0.00276716
0.0027353
0.000903969
0.000798543
0.000713016
0.000643661
0.000587025
0.000540355
0.000501597
0.000469423
0.000443208
0.000477062
0.000548428
0.000930511
0.000498023
0.002411
0.00694081
0.00456021
0.00600355
0.00639309
0.00648567
0.00656422
0.00671293
0.00696892
0.00731326
0.0077088
0.00807198
0.00834512
0.00845031
0.00832985
0.00767565
0.00514166
0.00158981
0.00189848
0.00241423
0.00298128
0.00348835
0.00383893
0.00366014
0.00102439
0.000935255
0.000871324
0.000822607
0.000781235
0.000742909
0.000706105
0.000667458
0.000622703
0.000584979
0.000592037
0.00109123
0.000555921
0.00277412
0.0089153
0.00493056
0.00572638
0.0062605
0.00620089
0.00614741
0.00626173
0.00650244
0.00685495
0.00729201
0.00769146
0.00797124
0.00807976
0.00801791
0.00775631
0.00709314
0.00600215
0.00562287
0.00555334
0.00559921
0.00565673
0.00565804
0.00547478
0.00465123
0.00424319
0.00400277
0.00381628
0.00362129
0.00334691
0.00297214
0.00251402
0.00200485
0.00150094
0.00111379
0.00110459
0.000763186
0.000690609
0.000831526
0.000933964
0.00315967
0.0110796
0.0067795
0.00553966
0.00605504
0.00621827
0.00605324
0.00616052
0.0063606
0.00668749
0.007113
0.0075292
0.00780712
0.00786994
0.00773523
0.0075007
0.00727439
0.00712381
0.00712353
0.00714775
0.00711276
0.00700575
0.00682918
0.00656849
0.00617518
0.00581623
0.00549445
0.0051855
0.00487412
0.0045461
0.00414409
0.00364998
0.00306362
0.00241808
0.00184197
0.00135845
0.00106099
0.00090793
0.00128414
0.000977195
0.00352117
0.0126377
0.00971106
0.00703133
0.00656666
0.00659686
0.00643118
0.0063396
0.00643783
0.00674937
0.00719789
0.00763452
0.00789878
0.00790305
0.00768843
0.00743207
0.00736656
0.00756303
0.00780941
0.00789048
0.00777269
0.00750979
0.00714961
0.00672367
0.00626357
0.00583145
0.00543692
0.00507334
0.00474128
0.00444766
0.00419456
0.00389071
0.00346417
0.00293433
0.00242211
0.00193953
0.00160293
0.00148087
0.00146351
0.00110844
0.00359696
0.0114479
0.00993994
0.00881435
0.0081278
0.00735724
0.00671504
0.00644907
0.0065759
0.0069962
0.00753714
0.00799554
0.00819457
0.00807703
0.00775381
0.00750421
0.00759984
0.00793796
0.00808341
0.00792914
0.00755587
0.00704455
0.00646408
0.00588264
0.00535947
0.00492095
0.00455786
0.00426039
0.00402832
0.00386588
0.00377638
0.00374155
0.0036067
0.00330115
0.00303241
0.00290805
0.00301318
0.00333098
0.00412696
0.00168677
0.00350658
0.00419089
0.00473762
0.00491195
0.00492905
0.00504916
0.00538794
0.00597598
0.00676
0.00758528
0.00825766
0.00860943
0.00853034
0.00810062
0.00764431
0.00755973
0.00763671
0.00763943
0.00740994
0.00695156
0.00633624
0.00565737
0.00500657
0.00445266
0.00401874
0.00368886
0.00343569
0.00323883
0.0030837
0.00295735
0.00284759
0.00274547
0.00266724
0.0026098
0.00258874
0.00259867
0.00258086
0.00248257
0.00231522
0.00156668
0.00216589
0.00383561
0.00529709
0.00651742
0.00750738
0.00839489
0.00908227
0.00942414
0.00937402
0.00895464
0.00822712
0.00741507
0.00692495
0.00674787
0.00655693
0.00619644
0.00566751
0.00504255
0.00441036
0.0038434
0.00338771
0.0030531
0.00281771
0.0026546
0.00254333
0.00247057
0.00242774
0.00240945
0.00241483
0.00244723
0.00249118
0.00254318
0.00259793
0.00263585
0.00262448
0.00254554
0.00224916
0.00124985
0.00251843
0.00536921
0.00734076
0.00825719
0.00887209
0.00929704
0.0092482
0.00865981
0.00776997
0.00682291
0.00603128
0.00546369
0.00508822
0.00475223
0.00434405
0.00387597
0.00340306
0.00298248
0.00264992
0.00241105
0.00224983
0.00214302
0.00207576
0.00204228
0.00203832
0.00205888
0.00209964
0.00215559
0.00223107
0.00232309
0.00242868
0.00254138
0.00264544
0.00271614
0.00273641
0.00270596
0.00194565
0.00127864
0.00215081
0.00226557
0.00235012
0.00241754
0.00218745
0.00200845
0.00192363
0.00183668
0.00171077
0.00155549
0.00137931
0.00120517
0.00105156
0.000929943
0.000841852
0.000779253
0.00073345
0.000699471
0.000675441
0.000660727
0.000654546
0.000655752
0.000663239
0.000676271
0.00069461
0.000717682
0.00074527
0.000777689
0.000815552
0.000860008
0.000910581
0.000967284
0.00103061
0.00110092
0.00117762
0.00125959
0.00127675
0.00114005
0.00108143
0.00128002
)
;

boundaryField
{
    floor
    {
        type            compressible::alphatWallFunction;
        Prt             0.85;
        value           nonuniform List<scalar> 
29
(
0.000183349
7.46912e-05
9.00963e-05
0.000102297
0.000103342
0.000100197
9.56952e-05
8.94144e-05
8.29747e-05
7.70799e-05
7.18289e-05
6.71655e-05
6.30121e-05
5.92992e-05
5.59666e-05
5.28975e-05
4.99426e-05
4.68989e-05
4.51142e-05
4.0513e-05
4.05124e-05
5.7582e-05
6.89393e-05
7.77481e-05
0.000183347
7.46903e-05
7.81003e-05
0.000148846
0.000223025
)
;
    }
    ceiling
    {
        type            compressible::alphatWallFunction;
        Prt             0.85;
        value           nonuniform List<scalar> 
43
(
0.000296581
0.000311369
0.000322215
0.000330951
0.000301479
0.000278306
0.00026725
0.000255856
0.000239243
0.000218562
0.000194814
0.000171
0.000149665
0.000132516
0.000119931
0.000110894
0.000104226
9.92469e-05
9.57082e-05
9.35338e-05
9.26186e-05
9.27974e-05
9.39058e-05
9.58312e-05
9.85332e-05
0.00010192
0.000105953
0.000110669
0.000116147
0.00012254
0.000129766
0.000137812
0.000146732
0.000156563
0.000167204
0.000178491
0.000180842
0.000162004
0.000153851
0.000181299
0.000467377
0.000550611
0.000343555
)
;
    }
    sWall
    {
        type            compressible::alphatWallFunction;
        Prt             0.85;
        value           uniform 0.000295361;
    }
    nWall
    {
        type            compressible::alphatWallFunction;
        Prt             0.85;
        value           nonuniform List<scalar> 6(0.000132764 0.000138879 0.000157267 0.000176829 0.000180773 0.000180969);
    }
    sideWalls
    {
        type            empty;
    }
    glass1
    {
        type            compressible::alphatWallFunction;
        Prt             0.85;
        value           nonuniform List<scalar> 9(0.000170929 0.000230386 0.000278588 0.000324075 0.000369759 0.000417629 0.000462008 0.000471384 0.000460584);
    }
    glass2
    {
        type            compressible::alphatWallFunction;
        Prt             0.85;
        value           nonuniform List<scalar> 2(0.000234326 0.000218461);
    }
    sun
    {
        type            compressible::alphatWallFunction;
        Prt             0.85;
        value           nonuniform List<scalar> 
14
(
0.000175253
0.000190673
0.000194153
0.000203048
0.000211252
0.000218958
0.000226587
0.000233834
0.000238901
0.000240836
0.000238721
0.000231887
0.000219968
0.000203211
)
;
    }
    heatsource1
    {
        type            compressible::alphatWallFunction;
        Prt             0.85;
        value           nonuniform List<scalar> 3(9.79361e-05 0.00011844 0.000133082);
    }
    heatsource2
    {
        type            compressible::alphatWallFunction;
        Prt             0.85;
        value           nonuniform List<scalar> 4(0.000186678 0.000116817 0.000116815 0.000192165);
    }
    Table_master
    {
        type            compressible::alphatWallFunction;
        Prt             0.85;
        value           nonuniform List<scalar> 9(0.000128813 0.000113679 0.000101225 9.09943e-05 8.25396e-05 7.54965e-05 6.95899e-05 6.46429e-05 6.05803e-05);
    }
    Table_slave
    {
        type            compressible::alphatWallFunction;
        Prt             0.85;
        value           nonuniform List<scalar> 9(0.000145851 0.000133265 0.000124153 0.000117155 0.000111174 0.0001056 0.000100214 9.45215e-05 8.78789e-05);
    }
    inlet
    {
        type            fixedValue;
        value           uniform 1.94e-05;
    }
    outlet
    {
        type            zeroGradient;
    }
}


// ************************************************************************* //
