// -*- C++ -*-
// File generated by PyFoam - sorry for the ugliness

FoamFile
{
 version 2.0;
 format ascii;
 class volVectorField;
 location "100";
 object U;
}

dimensions [ 0 1 -1 0 0 0 0 ];

internalField nonuniform List<vector> 459
(
  (0.115587 0.0695478 0)
  (-0.143712 -0.0020429 0)
  (-0.112607 0.00145407 0)
  (-0.120027 0.00397766 0)
  (-0.128771 0.00406208 0)
  (-0.136966 0.00299449 0)
  (-0.143219 0.00122657 0)
  (-0.14657 -0.00109407 0)
  (-0.146225 -0.00393503 0)
  (-0.141376 -0.0073757 0)
  (-0.130983 -0.0114241 0)
  (-0.113684 -0.0161686 0)
  (-0.0893168 -0.022323 0)
  (-0.0656537 -0.0312596 0)
  (-0.0715746 -0.0410609 0)
  (0.0261665 0.0137851 0)
  (-0.0388955 -0.0124628 0)
  (-0.0233497 -0.0142305 0)
  (-0.0139282 -0.00823183 0)
  (-0.00743762 0.00352115 0)
  (-0.0192479 0.00623553 0)
  (-0.0251184 -0.00257225 0)
  (-0.0189637 -0.00832453 0)
  (-0.00971072 -0.00927875 0)
  (0.00257047 -0.00687804 0)
  (0.0109835 -0.00568525 0)
  (0.0177834 -0.00474834 0)
  (0.0233192 -0.00321784 0)
  (0.0251247 -0.000236931 0)
  (0.0212514 0.00260808 0)
  (0.0222096 -0.00259883 0)
  (0.0284408 -0.016282 0)
  (0.0451918 -0.0114517 0)
  (-0.0155388 0.0163046 0)
  (0.331066 0.153203 0)
  (-0.171006 0.0111768 0)
  (-0.105312 0.0098527 0)
  (-0.11976 0.0133747 0)
  (-0.130346 0.0136579 0)
  (-0.139546 0.0116703 0)
  (-0.146574 0.00811936 0)
  (-0.150793 0.00328363 0)
  (-0.151542 -0.00276438 0)
  (-0.148254 -0.00999812 0)
  (-0.140282 -0.0182237 0)
  (-0.126874 -0.0272461 0)
  (-0.107861 -0.037497 0)
  (-0.0851154 -0.0499418 0)
  (-0.0627092 -0.06276 0)
  (-0.0410333 -0.0684326 0)
  (0.0356929 0.00644019 0)
  (0.143712 0.0187861 0)
  (0.0480961 0.00927228 0)
  (0.0112812 5.3645e-05 0)
  (-1.39359e-05 -0.00284452 0)
  (0.00618249 0.00405541 0)
  (0.00503664 0.0178493 0)
  (0.00129035 0.00752547 0)
  (-0.00351561 -0.0111403 0)
  (-0.00575631 -0.0143243 0)
  (-0.00338721 -0.0111242 0)
  (-0.0018046 -0.00906434 0)
  (-0.00127631 -0.00742205 0)
  (-0.000388966 -0.00395195 0)
  (-0.00546252 0.00347615 0)
  (-0.00939273 0.00403247 0)
  (0.00430232 -0.0122139 0)
  (0.00795568 -0.0239124 0)
  (0.0292653 -0.00956921 0)
  (-0.0933649 0.0470505 0)
  (0.506906 0.234244 0)
  (-0.218763 0.0384427 0)
  (-0.0896125 0.0259288 0)
  (-0.113512 0.0250417 0)
  (-0.125874 0.0235554 0)
  (-0.13613 0.0195678 0)
  (-0.144232 0.0134541 0)
  (-0.149825 0.00549761 0)
  (-0.152444 -0.00412646 0)
  (-0.15166 -0.0152582 0)
  (-0.147533 -0.0276729 0)
  (-0.140132 -0.0409216 0)
  (-0.12999 -0.0547457 0)
  (-0.118227 -0.0683644 0)
  (-0.106425 -0.078454 0)
  (-0.0979304 -0.0789661 0)
  (-0.101308 -0.0677388 0)
  (0.0731521 0.0162726 0)
  (-0.0560126 0.0131788 0)
  (-0.0521345 0.00930863 0)
  (-0.0496337 -0.000126546 0)
  (-0.0432858 -0.00690973 0)
  (-0.0357143 -0.00913905 0)
  (0.0301043 0.00763692 0)
  (0.0194313 -0.00636582 0)
  (-0.00281795 -0.0146537 0)
  (-0.0157279 -0.0120845 0)
  (-0.0251854 -0.00853448 0)
  (-0.033028 -0.00463275 0)
  (-0.0388393 -0.000966455 0)
  (-0.0405383 0.00119092 0)
  (-0.0347921 -0.000934481 0)
  (-0.00267271 -0.0117268 0)
  (-0.0266774 -0.000689241 0)
  (-0.0718291 0.0148922 0)
  (-0.182905 0.031836 0)
  (0.647079 0.301417 0)
  (-0.265151 0.0720021 0)
  (-0.0694199 0.0454626 0)
  (-0.103242 0.0388696 0)
  (-0.116817 0.0351163 0)
  (-0.127048 0.0291588 0)
  (-0.135271 0.0209158 0)
  (-0.141341 0.0104998 0)
  (-0.145044 -0.00190164 0)
  (-0.14587 -0.0157838 0)
  (-0.144885 -0.0304368 0)
  (-0.143072 -0.0450205 0)
  (-0.14178 -0.0587286 0)
  (-0.142546 -0.0699942 0)
  (-0.147406 -0.0752319 0)
  (-0.159866 -0.0676809 0)
  (-0.179109 -0.0353193 0)
  (-0.174255 0.0335786 0)
  (-0.129653 0.0199086 0)
  (-0.130803 0.0139615 0)
  (-0.12056 0.00405378 0)
  (-0.119135 -0.00610386 0)
  (-0.120374 -0.0145604 0)
  (-0.124313 -0.01946 0)
  (-0.120987 -0.0136631 0)
  (-0.106636 -0.0140414 0)
  (-0.0905653 -0.0166081 0)
  (-0.071554 -0.0197496 0)
  (-0.0497792 -0.0231829 0)
  (-0.0264943 -0.0264471 0)
  (0.00115923 -0.0283144 0)
  (0.0265875 -0.0261731 0)
  (0.0488551 -0.0226993 0)
  (0.0567126 -0.0169545 0)
  (0.0581994 0.00287771 0)
  (0.0565531 0.0135354 0)
  (-0.0722166 0.0119317 0)
  (0.757374 0.356984 0)
  (-0.304342 0.108679 0)
  (-0.0486745 0.0652318 0)
  (-0.0894378 0.0528841 0)
  (-0.103552 0.046168 0)
  (-0.11212 0.0378982 0)
  (-0.118494 0.0275991 0)
  (-0.122827 0.0151294 0)
  (-0.125077 0.000607622 0)
  (-0.124937 -0.0151071 0)
  (-0.124011 -0.0304232 0)
  (-0.12379 -0.0442833 0)
  (-0.125572 -0.0561154 0)
  (-0.130264 -0.0651506 0)
  (-0.138315 -0.070038 0)
  (-0.14887 -0.0685451 0)
  (-0.157102 -0.0562543 0)
  (-0.157375 -0.0288435 0)
  (-0.14744 -0.00571866 0)
  (-0.133947 0.00319388 0)
  (-0.122147 9.46489e-05 0)
  (-0.115569 -0.00600979 0)
  (-0.112609 -0.0123836 0)
  (-0.110925 -0.0165655 0)
  (-0.106651 -0.0169941 0)
  (-0.0987135 -0.0198702 0)
  (-0.0885844 -0.0240105 0)
  (-0.0765551 -0.0287263 0)
  (-0.0630162 -0.0332492 0)
  (-0.0487725 -0.0366599 0)
  (-0.034297 -0.0375184 0)
  (-0.0200392 -0.0349528 0)
  (-0.0054135 -0.0292777 0)
  (0.0088647 -0.0214123 0)
  (0.030118 -0.00580112 0)
  (0.0641016 0.0118727 0)
  (0.0703459 0.0269422 0)
  (0.106033 0.0327567 0)
  (0.177362 0.0720978 0)
  (-0.472249 -0.0237924 0)
  (0.828495 0.407203 0)
  (-0.337164 0.143042 0)
  (-0.0333143 0.0787594 0)
  (-0.0706967 0.0662905 0)
  (-0.085556 0.0558288 0)
  (-0.0916565 0.0441969 0)
  (-0.09441 0.0315398 0)
  (-0.0949422 0.0171704 0)
  (-0.0933037 0.00079525 0)
  (-0.0897354 -0.0162711 0)
  (-0.0870141 -0.0311364 0)
  (-0.0864289 -0.0429856 0)
  (-0.0888232 -0.0519081 0)
  (-0.0943546 -0.0576907 0)
  (-0.10257 -0.0593632 0)
  (-0.111852 -0.0553072 0)
  (-0.118497 -0.0444147 0)
  (-0.119276 -0.0293253 0)
  (-0.114082 -0.0160435 0)
  (-0.105859 -0.00912623 0)
  (-0.0983203 -0.00854672 0)
  (-0.093499 -0.0113657 0)
  (-0.0911924 -0.0154716 0)
  (-0.0901353 -0.0191428 0)
  (-0.0886303 -0.0221137 0)
  (-0.0861112 -0.0262983 0)
  (-0.0829582 -0.0315479 0)
  (-0.0795114 -0.0370729 0)
  (-0.0762287 -0.0418285 0)
  (-0.0736149 -0.0447574 0)
  (-0.0717713 -0.0450616 0)
  (-0.0701932 -0.0427311 0)
  (-0.0678886 -0.0386458 0)
  (-0.0628023 -0.0338502 0)
  (-0.0501192 -0.0289904 0)
  (-0.0273 -0.0271523 0)
  (0.00636069 -0.0319325 0)
  (0.0631845 -0.0134495 0)
  (0.15429 0.0647703 0)
  (-0.0170591 0.0984893 0)
  (0.848641 0.454415 0)
  (-0.352708 0.147923 0)
  (-0.014875 0.0612215 0)
  (-0.0296171 0.0790834 0)
  (-0.0526443 0.0659572 0)
  (-0.0598315 0.0457329 0)
  (-0.0584548 0.0293713 0)
  (-0.0539732 0.0131013 0)
  (-0.0457347 -0.00487689 0)
  (-0.0389205 -0.0216604 0)
  (-0.0351374 -0.0339394 0)
  (-0.0348647 -0.0422383 0)
  (-0.038243 -0.0477253 0)
  (-0.0448257 -0.0508941 0)
  (-0.0535935 -0.0512617 0)
  (-0.0628313 -0.0476482 0)
  (-0.0698597 -0.0396132 0)
  (-0.0727314 -0.0293439 0)
  (-0.0714002 -0.0201672 0)
  (-0.0676974 -0.0145624 0)
  (-0.0638771 -0.0128222 0)
  (-0.0613997 -0.0136802 0)
  (-0.0606257 -0.0159039 0)
  (-0.0612418 -0.0185449 0)
  (-0.0627582 -0.0215391 0)
  (-0.0652054 -0.0254565 0)
  (-0.0690587 -0.030094 0)
  (-0.0748599 -0.0346332 0)
  (-0.0831833 -0.0380095 0)
  (-0.094353 -0.0394872 0)
  (-0.107971 -0.0389936 0)
  (-0.122791 -0.037161 0)
  (-0.137356 -0.035151 0)
  (-0.149711 -0.0346518 0)
  (-0.157857 -0.0385312 0)
  (-0.160559 -0.0508269 0)
  (-0.155006 -0.0708911 0)
  (-0.128432 -0.078957 0)
  (-0.00383911 -0.00701383 0)
  (-0.142354 0.223202 0)
  (0.954681 0.480106 0)
  (-0.142356 0.131622 0)
  (0.0658338 0.0138597 0)
  (0.0919326 0.0589863 0)
  (0.0442396 0.0585684 0)
  (0.0165516 0.0288114 0)
  (0.0140934 0.00825449 0)
  (0.0177952 -0.00754298 0)
  (0.028929 -0.0206437 0)
  (0.0328913 -0.0304768 0)
  (0.0327193 -0.0369262 0)
  (0.0294514 -0.0405341 0)
  (0.0233591 -0.0421986 0)
  (0.0148085 -0.0425785 0)
  (0.00453184 -0.0417169 0)
  (-0.00628551 -0.0388577 0)
  (-0.0149062 -0.0336075 0)
  (-0.020429 -0.0269401 0)
  (-0.0227089 -0.0207876 0)
  (-0.0228124 -0.0165788 0)
  (-0.0221596 -0.0146496 0)
  (-0.0218371 -0.0144583 0)
  (-0.0224056 -0.0152784 0)
  (-0.02409 -0.016498 0)
  (-0.0270908 -0.0179429 0)
  (-0.0319527 -0.0196803 0)
  (-0.0395171 -0.0213621 0)
  (-0.0507442 -0.0221502 0)
  (-0.0666655 -0.0211372 0)
  (-0.0881234 -0.0181662 0)
  (-0.115116 -0.0139314 0)
  (-0.146032 -0.00931767 0)
  (-0.181429 -0.00645143 0)
  (-0.22069 -0.0079497 0)
  (-0.262626 -0.0160745 0)
  (-0.304181 -0.0311666 0)
  (-0.33813 -0.049583 0)
  (-0.366339 -0.0623893 0)
  (-0.4337 -0.0539474 0)
  (-0.691148 -0.00484957 0)
  (1.09988 0.436519 0)
  (0.530935 0.274816 0)
  (0.468561 0.219597 0)
  (0.410578 0.20293 0)
  (0.296905 0.158313 0)
  (0.225878 0.102567 0)
  (0.19188 0.0575668 0)
  (0.171846 0.0251092 0)
  (0.15104 0.000591265 0)
  (0.13181 -0.0163899 0)
  (0.116182 -0.0265516 0)
  (0.102844 -0.031643 0)
  (0.0905708 -0.0333804 0)
  (0.0786147 -0.0330864 0)
  (0.0666531 -0.0316348 0)
  (0.0549136 -0.0294481 0)
  (0.0444165 -0.0264482 0)
  (0.0361168 -0.022836 0)
  (0.0304164 -0.0194178 0)
  (0.0268766 -0.0169645 0)
  (0.0246467 -0.0157313 0)
  (0.0229323 -0.0154662 0)
  (0.0211815 -0.0157114 0)
  (0.0190418 -0.0160063 0)
  (0.0162242 -0.0160461 0)
  (0.0123489 -0.0156502 0)
  (0.00704005 -0.0145154 0)
  (3.47669e-05 -0.0120199 0)
  (-0.00829922 -0.00744577 0)
  (-0.0168515 -0.00079771 0)
  (-0.0244416 0.00732317 0)
  (-0.0337422 0.0157952 0)
  (-0.0439597 0.0235833 0)
  (-0.0551964 0.0280875 0)
  (-0.0682184 0.0255523 0)
  (-0.0859505 0.0117236 0)
  (-0.10784 -0.018424 0)
  (-0.106132 -0.0745818 0)
  (-0.137821 -0.175174 0)
  (-0.590451 -0.306729 0)
  (-1.00576 0.196041 0)
  (0.201922 0.216507 0)
  (0.168556 0.159982 0)
  (0.171751 0.106614 0)
  (0.186395 0.0644133 0)
  (0.191981 0.0334889 0)
  (0.188595 0.0117626 0)
  (0.179976 -0.00349735 0)
  (0.168886 -0.0134684 0)
  (0.156821 -0.0193288 0)
  (0.144604 -0.0221623 0)
  (0.132717 -0.022979 0)
  (0.121324 -0.0226215 0)
  (0.110424 -0.0216924 0)
  (0.100212 -0.0204782 0)
  (0.0911843 -0.0191237 0)
  (0.0838248 -0.017843 0)
  (0.0781987 -0.0168442 0)
  (0.0739603 -0.0161983 0)
  (0.0706117 -0.0158167 0)
  (0.0677083 -0.0155218 0)
  (0.0649319 -0.0151112 0)
  (0.0620747 -0.0144075 0)
  (0.0589938 -0.0132614 0)
  (0.0556531 -0.0115138 0)
  (0.0521958 -0.00900623 0)
  (0.0490102 -0.00553693 0)
  (0.0471105 -0.000523624 0)
  (0.0464598 0.00608597 0)
  (0.047553 0.0135827 0)
  (0.0502494 0.0203915 0)
  (0.0539968 0.0245172 0)
  (0.057966 0.0243477 0)
  (0.0609982 0.020035 0)
  (0.0646428 0.0131497 0)
  (0.0782173 -0.00248656 0)
  (0.129557 -0.080784 0)
  (-0.161962 -0.253095 0)
  (-0.505937 0.19845 0)
  (0.184212 0.133517 0)
  (0.0886055 0.0922884 0)
  (0.124028 0.0715504 0)
  (0.16401 0.0503825 0)
  (0.185662 0.0335844 0)
  (0.192912 0.0231355 0)
  (0.19234 0.0183398 0)
  (0.187509 0.0167177 0)
  (0.180531 0.0171533 0)
  (0.172484 0.0194208 0)
  (0.164166 0.0232228 0)
  (0.156152 0.0281559 0)
  (0.148761 0.0336323 0)
  (0.142124 0.0388703 0)
  (0.136283 0.0430321 0)
  (0.131223 0.0455269 0)
  (0.126819 0.0462911 0)
  (0.122844 0.0457686 0)
  (0.119058 0.0446401 0)
  (0.115303 0.0435518 0)
  (0.111547 0.042979 0)
  (0.107883 0.0431807 0)
  (0.104513 0.0441867 0)
  (0.101722 0.0458444 0)
  (0.0998273 0.0480138 0)
  (0.0991241 0.0506565 0)
  (0.0999276 0.052146 0)
  (0.10292 0.052575 0)
  (0.108496 0.0531784 0)
  (0.116476 0.053864 0)
  (0.126108 0.0536774 0)
  (0.135924 0.0514839 0)
  (0.143624 0.0464344 0)
  (0.146864 0.0366678 0)
  (0.142593 0.00904603 0)
  (0.163312 -0.0576443 0)
  (-0.159684 -0.185401 0)
  (0.0504273 -0.214266 0)
  (-0.229215 -0.0258552 0)
  (-0.302429 0.190114 0)
  (0.177115 0.0263763 0)
  (0.0675614 0.0077016 0)
  (0.109624 -0.000461734 0)
  (0.158022 -0.014801 0)
  (0.187582 -0.0308878 0)
  (0.201559 -0.0465836 0)
  (0.20657 -0.0616122 0)
  (0.206672 -0.0755316 0)
  (0.203767 -0.0882052 0)
  (0.199137 -0.100169 0)
  (0.193833 -0.111739 0)
  (0.188682 -0.122982 0)
  (0.184206 -0.133696 0)
  (0.180597 -0.143445 0)
  (0.177725 -0.151718 0)
  (0.175211 -0.158188 0)
  (0.172574 -0.162899 0)
  (0.169412 -0.166243 0)
  (0.165538 -0.168776 0)
  (0.161001 -0.17101 0)
  (0.156038 -0.173277 0)
  (0.150998 -0.175641 0)
  (0.146281 -0.177855 0)
  (0.142295 -0.179337 0)
  (0.139472 -0.179251 0)
  (0.138468 -0.176778 0)
  (0.13973 -0.170273 0)
  (0.143491 -0.159234 0)
  (0.150305 -0.145749 0)
  (0.160456 -0.132564 0)
  (0.173274 -0.122283 0)
  (0.186922 -0.116921 0)
  (0.198564 -0.118052 0)
  (0.20544 -0.127882 0)
  (0.200972 -0.141743 0)
  (0.203333 -0.166303 0)
  (-0.150641 -0.224003 0)
)
;

boundaryField
{
  floor
  {
    type noSlip;
  }
  ceiling
  {
    type noSlip;
  }
  sWall
  {
    type noSlip;
  }
  nWall
  {
    type noSlip;
  }
  sideWalls
  {
    type empty;
  }
  glass1
  {
    type noSlip;
  }
  glass2
  {
    type noSlip;
  }
  sun
  {
    type noSlip;
  }
  heatsource1
  {
    type noSlip;
  }
  heatsource2
  {
    type noSlip;
  }
  Table_master
  {
    type noSlip;
  }
  Table_slave
  {
    type noSlip;
  }
  inlet
  {
    type fixedValue;
    value uniform (0.0382683 -0.092388 0);
  }
  outlet
  {
    type zeroGradient;
  }
} 	// ************************************************************************* //

