/*--------------------------------*- C++ -*----------------------------------*\
  =========                 |
  \\      /  F ield         | OpenFOAM: The Open Source CFD Toolbox
   \\    /   O peration     | Website:  https://openfoam.org
    \\  /    A nd           | Version:  6
     \\/     M anipulation  |
\*---------------------------------------------------------------------------*/
FoamFile
{
    version     2.0;
    format      ascii;
    class       volScalarField;
    location    "500";
    object      alphat;
}
// * * * * * * * * * * * * * * * * * * * * * * * * * * * * * * * * * * * * * //

dimensions      [1 -1 -1 0 0 0 0];

internalField   nonuniform List<scalar> 
459
(
0.00137404
0.0015146
0.00156057
0.00164271
0.00172204
0.0018025
0.00187894
0.0019326
0.00195357
0.00193504
0.00187206
0.00174923
0.00153976
0.00129925
0.00109558
0.000613205
0.000721741
0.00084493
0.000911661
0.000918462
0.000896303
0.000840512
0.000780309
0.000725986
0.000678639
0.000637457
0.000601508
0.000569812
0.000541682
0.000516086
0.000491643
0.000466396
0.000441081
0.000398063
0.00181219
0.00457583
0.004464
0.00519501
0.00592857
0.00656721
0.00706166
0.00750606
0.00786182
0.00809235
0.00816424
0.00802496
0.00759725
0.0067816
0.00461823
0.0013966
0.00108426
0.000602582
0.00149896
0.0023411
0.00304753
0.0034913
0.00346871
0.00244949
0.00202675
0.00175118
0.00155171
0.00140032
0.0012814
0.00118634
0.00109938
0.00100786
0.000919504
0.000841016
0.000888952
0.000461867
0.0021704
0.00619823
0.00551899
0.00650473
0.00699334
0.00736565
0.00769526
0.00806399
0.00846641
0.00886608
0.00920456
0.00937713
0.00928092
0.00883609
0.00759755
0.00508711
0.00139128
0.000874523
0.00164532
0.0025918
0.00360318
0.00435042
0.00421921
0.00115829
0.00100675
0.000884296
0.000786236
0.000707355
0.000643338
0.000590922
0.00054855
0.000516363
0.000573549
0.000676783
0.00100264
0.000505331
0.00250897
0.00771644
0.00559581
0.00670101
0.00690699
0.00704039
0.0072406
0.00754343
0.00797051
0.00847858
0.00897221
0.00928783
0.00941695
0.00931771
0.00881474
0.00739684
0.00408721
0.00158505
0.00187581
0.00265369
0.00378855
0.00494896
0.00575496
0.00541342
0.00131327
0.00118501
0.00108763
0.00100918
0.000942649
0.00088192
0.000822812
0.000761923
0.000694264
0.000640497
0.000667318
0.0011223
0.00054255
0.00285245
0.00965085
0.0060718
0.00668952
0.00685535
0.00684576
0.00694753
0.00718437
0.00762206
0.00816766
0.00867947
0.00902951
0.00917663
0.00915226
0.00895912
0.00838953
0.00709125
0.00617005
0.00637549
0.00689742
0.00751158
0.00799946
0.00821119
0.007919
0.00643995
0.0056429
0.00512295
0.00469267
0.00423504
0.0037353
0.00318669
0.00259432
0.00198184
0.00141883
0.00105988
0.00114407
0.000697833
0.000645251
0.000784292
0.000881701
0.00321817
0.0118012
0.00805314
0.00709787
0.00731183
0.00707096
0.00698574
0.00712108
0.00753656
0.0081153
0.00865668
0.00899429
0.00908717
0.00902943
0.00897176
0.00897706
0.00894448
0.00913183
0.00961221
0.0100133
0.010224
0.0102108
0.00997509
0.00950057
0.00872516
0.00799342
0.007343
0.00670687
0.00606112
0.00538396
0.00466007
0.00388492
0.00307633
0.00229598
0.00170718
0.00137066
0.000996145
0.000840676
0.00118709
0.000919427
0.00354689
0.0132752
0.0109699
0.00891014
0.00825723
0.00750586
0.00712411
0.00720836
0.00768345
0.0083447
0.00892965
0.00924962
0.00929782
0.00926246
0.00944299
0.00998486
0.0106154
0.0112075
0.0116541
0.011774
0.0116151
0.011236
0.0106943
0.0100321
0.00927659
0.00852496
0.00780466
0.00710637
0.00642651
0.0057547
0.00508256
0.00439678
0.00368714
0.00297184
0.00238316
0.00192224
0.00154371
0.00138908
0.00133578
0.00103815
0.00360833
0.0115357
0.0103561
0.00918753
0.00795672
0.0071401
0.00694377
0.00731843
0.00806838
0.00889774
0.00950697
0.0097521
0.00976426
0.00989479
0.0105528
0.0113494
0.0118964
0.0122506
0.0123629
0.0121608
0.0116884
0.0110247
0.0102373
0.00937945
0.00850168
0.00765619
0.00686043
0.0061205
0.00545807
0.00490607
0.00447111
0.00410094
0.00370491
0.00325787
0.00292461
0.002746
0.0027449
0.00296381
0.00376625
0.00157907
0.00351393
0.00416256
0.00460654
0.00470241
0.00492633
0.00554709
0.00656176
0.00782131
0.00905218
0.00994847
0.0103011
0.0102248
0.0104096
0.0108613
0.0113669
0.0117411
0.0119139
0.0118898
0.0116298
0.0111162
0.010392
0.00952092
0.00856328
0.00758015
0.00663008
0.00574966
0.00494832
0.00423678
0.00363806
0.00317106
0.00283358
0.00260664
0.00246123
0.0023741
0.00234094
0.00234687
0.00234122
0.00227529
0.00213922
0.00147076
0.0018126
0.00354874
0.00642951
0.00861919
0.0101146
0.0110141
0.0113237
0.0111858
0.0106606
0.0102331
0.0102442
0.0104599
0.0105729
0.0105362
0.0103505
0.00998395
0.00940787
0.0086443
0.00776468
0.00685367
0.00598133
0.00519034
0.00449489
0.00389274
0.00338349
0.0029735
0.0026667
0.00245701
0.00233001
0.00226891
0.00225785
0.00228272
0.00232788
0.0023672
0.00236199
0.0022868
0.0020297
0.00119293
0.00233492
0.0064787
0.00913483
0.0104922
0.0107595
0.0103869
0.00968447
0.00896826
0.0084257
0.0080873
0.00789227
0.00772065
0.00753404
0.00732191
0.0070461
0.00666875
0.00618835
0.00564758
0.00510807
0.00461735
0.00419493
0.00383801
0.00353404
0.00327058
0.00303946
0.00283697
0.00266289
0.0025201
0.00241373
0.00234905
0.00232793
0.00234426
0.00237901
0.00240076
0.00237158
0.00232315
0.00183287
0.00122358
0.00206415
0.00217729
0.00225694
0.00238763
0.00224339
0.00215563
0.00205291
0.00192061
0.00176653
0.00161517
0.00148601
0.0013898
0.00132383
0.00127821
0.00124358
0.00121272
0.00118063
0.00114505
0.00110672
0.0010682
0.00103214
0.00100005
0.000972224
0.000948349
0.000928181
0.000912003
0.000900715
0.000895619
0.000898055
0.000909098
0.000929433
0.000959466
0.000999494
0.0010495
0.00110777
0.00116995
0.00117619
0.00105054
0.0010307
0.00127544
)
;

boundaryField
{
    floor
    {
        type            compressible::alphatWallFunction;
        Prt             0.85;
        value           nonuniform List<scalar> 
29
(
0.000155683
8.63613e-05
0.000102401
0.000120259
0.000129803
0.000130772
0.000127617
0.000119629
0.000110939
0.000103028
9.60746e-05
8.99788e-05
8.46182e-05
7.98591e-05
7.56081e-05
7.1716e-05
6.79769e-05
6.409e-05
6.01657e-05
5.34304e-05
5.34297e-05
6.33883e-05
7.00711e-05
7.5737e-05
0.000155682
8.63603e-05
8.47722e-05
0.000124494
0.000222388
)
;
    }
    ceiling
    {
        type            compressible::alphatWallFunction;
        Prt             0.85;
        value           nonuniform List<scalar> 
43
(
0.000285374
0.000300016
0.000310278
0.000327177
0.000308737
0.000297443
0.000284146
0.000266903
0.000246655
0.000226572
0.000209271
0.000196274
0.000187305
0.000181073
0.000176326
0.000172083
0.000167657
0.000162734
0.000157409
0.000152037
0.000146987
0.000142475
0.000138549
0.00013517
0.000132308
0.000130006
0.000128396
0.000127668
0.000128014
0.000129586
0.000132477
0.000136734
0.000142384
0.000149406
0.00015754
0.000166166
0.000167029
0.000149551
0.000146776
0.000180703
0.000468272
0.000547186
0.000320087
)
;
    }
    sWall
    {
        type            compressible::alphatWallFunction;
        Prt             0.85;
        value           uniform 0.000284171;
    }
    nWall
    {
        type            compressible::alphatWallFunction;
        Prt             0.85;
        value           nonuniform List<scalar> 6(0.000125351 0.000130722 0.000147474 0.000169033 0.000173255 0.000180386);
    }
    sideWalls
    {
        type            empty;
    }
    glass1
    {
        type            compressible::alphatWallFunction;
        Prt             0.85;
        value           nonuniform List<scalar> 9(0.000189329 0.000247121 0.000293344 0.000336358 0.000379432 0.000424741 0.000465059 0.000472685 0.000461405);
    }
    glass2
    {
        type            compressible::alphatWallFunction;
        Prt             0.85;
        value           nonuniform List<scalar> 2(0.000220192 0.000205792);
    }
    sun
    {
        type            compressible::alphatWallFunction;
        Prt             0.85;
        value           nonuniform List<scalar> 
14
(
0.000193986
0.000212953
0.000219117
0.000230082
0.000240616
0.000251243
0.000261293
0.000268321
0.00027106
0.000268637
0.000260386
0.000244204
0.000216325
0.000183778
)
;
    }
    heatsource1
    {
        type            compressible::alphatWallFunction;
        Prt             0.85;
        value           nonuniform List<scalar> 3(9.12288e-05 0.000111614 0.000125633);
    }
    heatsource2
    {
        type            compressible::alphatWallFunction;
        Prt             0.85;
        value           nonuniform List<scalar> 4(0.000197163 0.000154236 0.000154234 0.000196438);
    }
    Table_master
    {
        type            compressible::alphatWallFunction;
        Prt             0.85;
        value           nonuniform List<scalar> 9(0.000164524 0.000143373 0.00012601 0.000111902 0.000100399 9.09505e-05 8.3128e-05 7.67418e-05 7.18496e-05);
    }
    Table_slave
    {
        type            compressible::alphatWallFunction;
        Prt             0.85;
        value           nonuniform List<scalar> 9(0.000185832 0.000168221 0.000154706 0.000143716 0.000134319 0.000125672 0.000117188 0.000108373 9.84766e-05);
    }
    inlet
    {
        type            fixedValue;
        value           uniform 1.94e-05;
    }
    outlet
    {
        type            zeroGradient;
    }
}


// ************************************************************************* //
