/*--------------------------------*- C++ -*----------------------------------*\
  =========                 |
  \\      /  F ield         | OpenFOAM: The Open Source CFD Toolbox
   \\    /   O peration     | Website:  https://openfoam.org
    \\  /    A nd           | Version:  6
     \\/     M anipulation  |
\*---------------------------------------------------------------------------*/
FoamFile
{
    version     2.0;
    format      ascii;
    class       volScalarField;
    location    "500";
    object      nut;
}
// * * * * * * * * * * * * * * * * * * * * * * * * * * * * * * * * * * * * * //

dimensions      [0 2 -1 0 0 0 0];

internalField   nonuniform List<scalar> 
459
(
0.00118323
0.00130317
0.00134266
0.00141331
0.00148155
0.00155074
0.00161648
0.00166259
0.00168057
0.00166458
0.00161039
0.00150475
0.00132462
0.00111776
0.000942609
0.000528056
0.000621451
0.00072747
0.000784925
0.000790813
0.000771764
0.000723754
0.00067194
0.000625185
0.000584434
0.00054899
0.00051805
0.000490771
0.000466562
0.000444534
0.000423499
0.000401772
0.00037999
0.000342973
0.00156143
0.00393768
0.00384113
0.00447014
0.00510135
0.00565082
0.00607606
0.00645798
0.00676347
0.0069613
0.00702293
0.00690325
0.00653561
0.00583417
0.00397323
0.00120155
0.000932854
0.000518934
0.00129054
0.00201545
0.00262368
0.00300589
0.00298662
0.00210913
0.00174519
0.00150796
0.00133624
0.00120591
0.00110354
0.00102171
0.000946857
0.000868064
0.000792004
0.000724443
0.000765798
0.000397943
0.00187121
0.00533481
0.00474962
0.00559813
0.00601886
0.00633935
0.00662273
0.00693912
0.00728416
0.00762701
0.00791775
0.00806639
0.00798406
0.00760174
0.00653645
0.00437672
0.00119701
0.000752976
0.0014164
0.00223113
0.00310196
0.00374563
0.00363301
0.00099738
0.000866918
0.000761493
0.000677073
0.000609164
0.000554053
0.00050893
0.000472456
0.000444751
0.000494032
0.000582986
0.000863754
0.000435401
0.00216445
0.00664307
0.00481653
0.00576825
0.00594616
0.00606139
0.00623329
0.00649241
0.00685805
0.00729372
0.0077178
0.00798956
0.00810124
0.00801642
0.00758402
0.00636423
0.00351668
0.00136384
0.00161416
0.00228383
0.00326107
0.00426071
0.00495548
0.00466207
0.00113113
0.00102075
0.000936942
0.000869425
0.000812165
0.00075989
0.000709002
0.000656571
0.000598293
0.00055189
0.000574944
0.000966926
0.000467491
0.00246229
0.00831078
0.00522721
0.00575954
0.00590337
0.00589594
0.00598272
0.00618428
0.00655848
0.0070262
0.00746587
0.00776735
0.00789482
0.00787472
0.00770909
0.00721923
0.00610225
0.00530989
0.00548732
0.00593752
0.00646747
0.00688893
0.00707262
0.00682205
0.00554868
0.00486248
0.00441484
0.00404434
0.00365016
0.00321958
0.00274679
0.00223621
0.00170825
0.00122284
0.000913341
0.0009858
0.000601319
0.000556285
0.000676347
0.00076033
0.00277957
0.0101662
0.00693484
0.00611257
0.0062984
0.00609166
0.00601648
0.00613005
0.00648474
0.00698076
0.00744596
0.00773713
0.00781846
0.00777015
0.00772149
0.00772665
0.00769916
0.0078613
0.00827613
0.00862308
0.00880636
0.00879676
0.00859526
0.00818764
0.00752035
0.00689034
0.00633018
0.00578214
0.00522565
0.00464193
0.00401782
0.00334944
0.00265217
0.00197922
0.00147143
0.00118122
0.000858438
0.000724625
0.00102335
0.000792733
0.00306516
0.0114425
0.00945185
0.00767738
0.0071164
0.00646775
0.00613554
0.00620416
0.00660978
0.00717695
0.00768025
0.00795713
0.00800096
0.00797268
0.00812967
0.00859737
0.00914128
0.00965256
0.010039
0.0101442
0.0100093
0.00968428
0.00921887
0.00864909
0.00799851
0.007351
0.00673028
0.00612834
0.00554216
0.00496281
0.00438308
0.00379152
0.00317937
0.00256231
0.00205446
0.00165688
0.0013305
0.00119731
0.00115146
0.000895012
0.00312059
0.00995711
0.00893507
0.00792593
0.00686165
0.00615249
0.0059777
0.00629542
0.0069377
0.00765065
0.00817653
0.00839076
0.00840507
0.00852055
0.00908953
0.00977719
0.0102497
0.0105564
0.0106551
0.0104828
0.0100772
0.00950629
0.00882837
0.00808929
0.00733274
0.00660381
0.00591762
0.00527946
0.00470805
0.00423183
0.00385651
0.00353705
0.00319527
0.00280945
0.00252177
0.00236749
0.00236641
0.00255526
0.00324736
0.00136207
0.00304219
0.0036004
0.00398121
0.00406069
0.00424643
0.00477307
0.00563968
0.00671933
0.00777795
0.00855269
0.00886157
0.00880161
0.00896638
0.00935872
0.00979614
0.0101199
0.0102701
0.0102509
0.0100283
0.00958673
0.00896325
0.00821272
0.0073872
0.00653944
0.00572001
0.00496052
0.00426918
0.00365526
0.00313866
0.00273568
0.00244446
0.00224862
0.00212313
0.00204795
0.00201938
0.00202459
0.0020199
0.00196324
0.00184597
0.00126941
0.00152537
0.002997
0.00545549
0.00734648
0.00865088
0.00944476
0.00972907
0.00962552
0.00918158
0.00881781
0.00883007
0.00901773
0.00911638
0.00908581
0.00892672
0.00861166
0.00811572
0.00745778
0.00669943
0.00591374
0.00516123
0.00447878
0.00387869
0.00335908
0.00291959
0.00256576
0.00230098
0.00211999
0.00201037
0.00195761
0.00194805
0.0019695
0.0020085
0.00204252
0.00203817
0.00197345
0.00175177
0.00102983
0.00196765
0.00549002
0.00778373
0.00898632
0.00924036
0.00893521
0.00833971
0.00772809
0.00726345
0.0069735
0.0068065
0.00665934
0.00649906
0.00631668
0.0060793
0.00575422
0.00534011
0.00487376
0.00440835
0.00398494
0.00362042
0.00331238
0.00305001
0.00282259
0.00262308
0.00244828
0.002298
0.00217473
0.00208289
0.00202704
0.00200878
0.00202286
0.00205286
0.00207168
0.00204658
0.00200497
0.00158205
0.00105624
0.00175786
0.00185374
0.00192151
0.00204756
0.00192954
0.0018563
0.00176903
0.00165575
0.00152339
0.00139317
0.00128196
0.00119909
0.00114228
0.00110299
0.00107318
0.0010466
0.00101895
0.000988283
0.000955223
0.00092199
0.000890871
0.000863171
0.000839149
0.000818533
0.000801117
0.000787143
0.000777389
0.000772979
0.00077507
0.000784588
0.000802126
0.000828032
0.000862565
0.000905711
0.000955994
0.00100966
0.00101507
0.000906696
0.000889777
0.00110147
)
;

boundaryField
{
    floor
    {
        type            nutkWallFunction;
        Cmu             0.09;
        kappa           0.41;
        E               9.8;
        value           nonuniform List<scalar> 
29
(
0.000113949
6.32836e-05
7.50212e-05
8.80898e-05
9.5076e-05
9.5789e-05
9.34825e-05
8.76378e-05
8.12778e-05
7.54881e-05
7.03991e-05
6.59374e-05
6.20137e-05
5.85303e-05
5.54186e-05
5.25695e-05
4.98323e-05
4.69868e-05
4.4114e-05
3.91827e-05
3.91826e-05
4.64801e-05
5.13779e-05
5.55317e-05
0.000113949
6.32836e-05
6.21235e-05
9.1194e-05
0.000162751
)
;
    }
    ceiling
    {
        type            nutkWallFunction;
        Cmu             0.09;
        kappa           0.41;
        E               9.8;
        value           nonuniform List<scalar> 
43
(
0.000206742
0.00021729
0.000224713
0.000238556
0.000225733
0.000217722
0.000208117
0.000195567
0.000180781
0.000166094
0.000153431
0.000143915
0.000137349
0.000132787
0.000129312
0.000126206
0.000122964
0.000119356
0.000115453
0.000111513
0.000107809
0.000104499
0.000101618
9.91385e-05
9.70376e-05
9.53477e-05
9.41659e-05
9.36304e-05
9.38829e-05
9.5035e-05
9.71542e-05
0.000100275
0.000104418
0.000109568
0.000115534
0.000121862
0.000122499
0.000109684
0.00010767
0.000132609
0.000344513
0.000402226
0.000229602
)
;
    }
    sWall
    {
        type            nutkWallFunction;
        Cmu             0.09;
        kappa           0.41;
        E               9.8;
        value           uniform 0.000206799;
    }
    nWall
    {
        type            nutkWallFunction;
        Cmu             0.09;
        kappa           0.41;
        E               9.8;
        value           nonuniform List<scalar> 6(9.20862e-05 9.60139e-05 0.000108291 0.00012424 0.000127334 0.000132617);
    }
    sideWalls
    {
        type            empty;
    }
    glass1
    {
        type            nutkWallFunction;
        Cmu             0.09;
        kappa           0.41;
        E               9.8;
        value           nonuniform List<scalar> 9(0.000142212 0.000185275 0.000219674 0.000251667 0.000283689 0.000317356 0.000347317 0.000353109 0.000344946);
    }
    glass2
    {
        type            nutkWallFunction;
        Cmu             0.09;
        kappa           0.41;
        E               9.8;
        value           nonuniform List<scalar> 2(0.000162612 0.000152036);
    }
    sun
    {
        type            nutkWallFunction;
        Cmu             0.09;
        kappa           0.41;
        E               9.8;
        value           nonuniform List<scalar> 
14
(
0.000142077
0.000155842
0.000160345
0.000168362
0.000176064
0.000183834
0.00019118
0.000196314
0.00019831
0.000196534
0.000190498
0.000178668
0.000158287
0.00013449
)
;
    }
    heatsource1
    {
        type            nutkWallFunction;
        Cmu             0.09;
        kappa           0.41;
        E               9.8;
        value           nonuniform List<scalar> 3(6.6852e-05 8.18134e-05 9.20869e-05);
    }
    heatsource2
    {
        type            nutkWallFunction;
        Cmu             0.09;
        kappa           0.41;
        E               9.8;
        value           nonuniform List<scalar> 4(0.000144182 0.000112792 0.000112792 0.000143658);
    }
    Table_master
    {
        type            nutkWallFunction;
        Cmu             0.09;
        kappa           0.41;
        E               9.8;
        value           nonuniform List<scalar> 9(0.000120419 0.000104942 9.22356e-05 8.19111e-05 7.3494e-05 6.65796e-05 6.08554e-05 5.61825e-05 5.2603e-05);
    }
    Table_slave
    {
        type            nutkWallFunction;
        Cmu             0.09;
        kappa           0.41;
        E               9.8;
        value           nonuniform List<scalar> 9(0.000136048 0.000123167 0.00011328 0.000105241 9.83658e-05 9.20395e-05 8.58312e-05 7.93787e-05 7.21334e-05);
    }
    inlet
    {
        type            calculated;
        value           uniform 0.000100623;
    }
    outlet
    {
        type            calculated;
        value           nonuniform List<scalar> 2(0.00175786 0.00185374);
    }
}


// ************************************************************************* //
