/*--------------------------------*- C++ -*----------------------------------*\
  =========                 |
  \\      /  F ield         | OpenFOAM: The Open Source CFD Toolbox
   \\    /   O peration     | Website:  https://openfoam.org
    \\  /    A nd           | Version:  6
     \\/     M anipulation  |
\*---------------------------------------------------------------------------*/
FoamFile
{
    version     2.0;
    format      ascii;
    class       volScalarField;
    location    "500";
    object      epsilon;
}
// * * * * * * * * * * * * * * * * * * * * * * * * * * * * * * * * * * * * * //

dimensions      [0 2 -3 0 0 0 0];

internalField   nonuniform List<scalar> 
459
(
0.000586269
0.000783241
0.000856636
0.000999108
0.00115092
0.00131984
0.00149489
0.00162651
0.00167983
0.00163234
0.00147801
0.00120572
0.000822527
0.000494217
0.000296406
5.21115e-05
8.49409e-05
0.000136255
0.000171163
0.000175048
0.000162704
0.00013419
0.000107385
8.64926e-05
7.06583e-05
5.85666e-05
4.92122e-05
4.18404e-05
3.5949e-05
3.10937e-05
2.68852e-05
2.29559e-05
1.94205e-05
1.42796e-05
0.00134724
0.00181284
0.000728297
0.00072503
0.000785158
0.00089216
0.00103571
0.00116352
0.0012259
0.00119832
0.00108465
0.000902369
0.000691385
0.000520594
0.000382417
0.000613926
0.000287311
4.94557e-05
9.25352e-05
0.000137518
0.000150655
0.000146801
0.000137916
0.000139586
0.000112664
8.75678e-05
6.8057e-05
5.34044e-05
4.24595e-05
3.42035e-05
2.79217e-05
2.31597e-05
2.01038e-05
1.86172e-05
2.78354e-05
2.23019e-05
0.00231868
0.00404861
0.00084504
0.000699048
0.000779922
0.000941468
0.00114386
0.00130192
0.00136589
0.00133131
0.00120847
0.00101937
0.000827272
0.000656634
0.000508896
0.000466608
0.000606974
0.000151065
0.00018468
0.000192129
0.000186098
0.000171765
0.000165636
0.000351169
0.000230606
0.000156292
0.000109861
8.00094e-05
6.01995e-05
4.66564e-05
3.73265e-05
3.11373e-05
2.32316e-05
1.919e-05
4.05449e-05
2.92083e-05
0.00358849
0.00807424
0.00123835
0.000729718
0.000826227
0.0010824
0.00136574
0.00153033
0.00157046
0.00151232
0.00135967
0.00115698
0.000943505
0.000753213
0.000604624
0.000513773
0.000509377
0.000897748
0.000567837
0.000394261
0.000303697
0.000250303
0.000213463
0.000200984
0.000512228
0.000376427
0.000291111
0.000232602
0.000189604
0.000155298
0.000126141
0.000100174
7.5797e-05
4.18215e-05
2.57598e-05
5.8708e-05
3.61521e-05
0.00528305
0.0142089
0.00229916
0.000889037
0.000974051
0.0014618
0.00179121
0.00189939
0.0018806
0.00177146
0.00157642
0.00131798
0.00104
0.000794234
0.00061052
0.00049434
0.000450971
0.000471388
0.000416922
0.000364784
0.000321295
0.000280494
0.000240446
0.000206412
0.000199164
0.000180587
0.000161843
0.000143523
0.000125538
0.000107692
9.02641e-05
7.37988e-05
5.86471e-05
4.20212e-05
2.94519e-05
4.69827e-05
3.68613e-05
6.09099e-05
0.000109475
0.000155529
0.00759974
0.0211546
0.00503808
0.00164846
0.0016487
0.00237777
0.00251256
0.00246026
0.0023374
0.00214653
0.00186904
0.00151759
0.00114563
0.000824365
0.000594712
0.000461635
0.000411926
0.000408334
0.000400956
0.000380609
0.000345893
0.000301418
0.000253776
0.00021035
0.000179677
0.00015916
0.000143465
0.000128548
0.000113119
9.7249e-05
8.14896e-05
6.66685e-05
5.3635e-05
4.22765e-05
3.50046e-05
3.99197e-05
3.97574e-05
4.80193e-05
0.000203381
0.00017627
0.0101911
0.0253865
0.0103411
0.00501729
0.00450233
0.00406336
0.00362998
0.00326982
0.00296487
0.00264075
0.0022364
0.00175359
0.00125737
0.000848883
0.000577898
0.000440196
0.000401693
0.000406105
0.000405527
0.0003826
0.000341014
0.000290518
0.000240004
0.000196761
0.000166335
0.000147915
0.000135515
0.000124707
0.000113879
0.00010277
9.14721e-05
8.0321e-05
7.01259e-05
6.14808e-05
5.84068e-05
6.27153e-05
7.42245e-05
0.00010893
0.000268848
0.000253658
0.0107541
0.0267675
0.0154018
0.0106757
0.00791671
0.00608799
0.0049455
0.0042359
0.00373135
0.00323773
0.0026517
0.00198062
0.00131067
0.000811371
0.000520371
0.000408956
0.000388499
0.000389477
0.000377007
0.000344272
0.000298194
0.000249481
0.00020607
0.000172682
0.000150989
0.00013893
0.000132708
0.000130067
0.000130543
0.000134088
0.000140152
0.000147959
0.000158865
0.000177591
0.000211542
0.000301003
0.000506419
0.000954701
0.00354439
0.000894088
0.00996374
0.0165163
0.0131857
0.0102038
0.00799197
0.00658233
0.00570565
0.0051121
0.00455614
0.00383922
0.00294642
0.00198318
0.00104708
0.000609656
0.000434961
0.00037162
0.000351811
0.000338493
0.000314943
0.000280535
0.000241637
0.000204604
0.000173752
0.00015118
0.00013691
0.000129462
0.000127308
0.00013017
0.000139069
0.000155962
0.000183551
0.000225515
0.000287657
0.000380957
0.000517325
0.000707332
0.000942152
0.00117785
0.00136121
0.000723772
0.00399178
0.00547824
0.00656649
0.00654233
0.00618547
0.00555463
0.0045517
0.00303098
0.00178011
0.00103202
0.000625955
0.000440648
0.000360285
0.000325111
0.000305058
0.000284767
0.000259206
0.000230409
0.000202527
0.000178452
0.000159243
0.000144639
0.000133814
0.000126139
0.000121758
0.000121619
0.000127177
0.000140303
0.000163518
0.000200432
0.000256201
0.000337651
0.000451013
0.000595001
0.000749025
0.00087014
0.000827467
0.000386488
0.00269575
0.00712397
0.00743599
0.00589258
0.00456629
0.00332311
0.00223196
0.0014086
0.000891763
0.000598213
0.000446733
0.000374458
0.000340286
0.000323315
0.000312914
0.000303928
0.000294476
0.000284477
0.000274328
0.00026427
0.0002543
0.000244243
0.000233927
0.000223388
0.000213067
0.000203995
0.000197798
0.000196629
0.000203155
0.000220635
0.000252981
0.000304155
0.000375462
0.000460321
0.000536185
0.00062541
0.000404475
0.000416999
0.00192223
0.00225424
0.00251064
0.00303794
0.00254235
0.00226375
0.00195922
0.00160642
0.00125115
0.000956947
0.000745615
0.000610186
0.000527519
0.000474956
0.000437478
0.000405785
0.00037447
0.000341673
0.000308524
0.000277434
0.000250283
0.000227658
0.000209176
0.000194135
0.000182004
0.000172641
0.000166299
0.000163479
0.000164802
0.000170941
0.000182653
0.000200918
0.000227109
0.000262912
0.000309166
0.000364198
0.000370094
0.00026376
0.000249283
0.000472934
)
;

boundaryField
{
    floor
    {
        Cmu             0.09;
        kappa           0.41;
        E               9.8;
        type            epsilonWallFunction;
        value           nonuniform List<scalar> 
29
(
0.000296406
5.21115e-05
8.49409e-05
0.000136255
0.000171163
0.000175048
0.000162704
0.00013419
0.000107385
8.64926e-05
7.06583e-05
5.85666e-05
4.92122e-05
4.18404e-05
3.5949e-05
3.10937e-05
2.68852e-05
2.29559e-05
1.94205e-05
1.42796e-05
1.42796e-05
2.23019e-05
2.92083e-05
3.61521e-05
0.000296406
5.21115e-05
4.94557e-05
0.000151065
0.000897748
)
;
    }
    ceiling
    {
        Cmu             0.09;
        kappa           0.41;
        E               9.8;
        type            epsilonWallFunction;
        value           nonuniform List<scalar> 
43
(
0.00192223
0.00225424
0.00251064
0.00303794
0.00254235
0.00226375
0.00195922
0.00160642
0.00125115
0.000956947
0.000745615
0.000610186
0.000527519
0.000474956
0.000437478
0.000405785
0.00037447
0.000341673
0.000308524
0.000277434
0.000250283
0.000227658
0.000209176
0.000194135
0.000182004
0.000172641
0.000166299
0.000163479
0.000164802
0.000170941
0.000182653
0.000200918
0.000227109
0.000262912
0.000309166
0.000364198
0.000370094
0.00026376
0.000249283
0.000472934
0.00996374
0.0165163
0.00269575
)
;
    }
    sWall
    {
        Cmu             0.09;
        kappa           0.41;
        E               9.8;
        type            epsilonWallFunction;
        value           uniform 0.00192223;
    }
    nWall
    {
        Cmu             0.09;
        kappa           0.41;
        E               9.8;
        type            epsilonWallFunction;
        value           nonuniform List<scalar> 6(0.000155529 0.00017627 0.000253658 0.000386488 0.000416999 0.000472934);
    }
    sideWalls
    {
        type            empty;
    }
    glass1
    {
        Cmu             0.09;
        kappa           0.41;
        E               9.8;
        type            epsilonWallFunction;
        value           nonuniform List<scalar> 9(0.000586269 0.00134724 0.00231868 0.00358849 0.00528305 0.00759974 0.0101911 0.0107541 0.00996374);
    }
    glass2
    {
        Cmu             0.09;
        kappa           0.41;
        E               9.8;
        type            epsilonWallFunction;
        value           nonuniform List<scalar> 2(0.000894088 0.000723772);
    }
    sun
    {
        Cmu             0.09;
        kappa           0.41;
        E               9.8;
        type            epsilonWallFunction;
        value           nonuniform List<scalar> 
14
(
0.000586269
0.000783241
0.000856636
0.000999108
0.00115092
0.00131984
0.00149489
0.00162651
0.00167983
0.00163234
0.00147801
0.00120572
0.000822527
0.000494217
)
;
    }
    heatsource1
    {
        Cmu             0.09;
        kappa           0.41;
        E               9.8;
        type            epsilonWallFunction;
        value           nonuniform List<scalar> 3(6.09099e-05 0.000109475 0.000155529);
    }
    heatsource2
    {
        Cmu             0.09;
        kappa           0.41;
        E               9.8;
        type            epsilonWallFunction;
        value           nonuniform List<scalar> 4(0.000613926 0.000287311 0.000287311 0.000606974);
    }
    Table_master
    {
        Cmu             0.09;
        kappa           0.41;
        E               9.8;
        type            epsilonWallFunction;
        value           nonuniform List<scalar> 9(0.000351169 0.000230606 0.000156292 0.000109861 8.00094e-05 6.01995e-05 4.66564e-05 3.73265e-05 3.11373e-05);
    }
    Table_slave
    {
        Cmu             0.09;
        kappa           0.41;
        E               9.8;
        type            epsilonWallFunction;
        value           nonuniform List<scalar> 9(0.000512228 0.000376427 0.000291111 0.000232602 0.000189604 0.000155298 0.000126141 0.000100174 7.5797e-05);
    }
    inlet
    {
        type            turbulentMixingLengthDissipationRateInlet;
        mixingLength    0.01;
        phi             phi;
        k               k;
        value           uniform 0.000101881;
    }
    outlet
    {
        type            zeroGradient;
    }
}


// ************************************************************************* //
