/*--------------------------------*- C++ -*----------------------------------*\
  =========                 |
  \\      /  F ield         | OpenFOAM: The Open Source CFD Toolbox
   \\    /   O peration     | Website:  https://openfoam.org
    \\  /    A nd           | Version:  6
     \\/     M anipulation  |
\*---------------------------------------------------------------------------*/
FoamFile
{
    version     2.0;
    format      ascii;
    class       surfaceScalarField;
    location    "100";
    object      phi;
}
// * * * * * * * * * * * * * * * * * * * * * * * * * * * * * * * * * * * * * //

dimensions      [1 0 -1 0 0 0 0];

internalField   nonuniform List<scalar> 
852
(
-0.00277574
0.00284748
-0.00321004
0.000434389
-0.00375953
0.000549572
-0.00429616
0.00053671
-0.00476869
0.000472611
-0.00515364
0.000385036
-0.00543167
0.000278112
-0.00558173
0.000150147
-0.00557987
-1.77564e-06
-0.0053967
-0.000183084
-0.00500709
-0.000389527
-0.00439537
-0.000611632
-0.0035214
-0.000873879
-0.00219848
-0.00132284
-0.00219479
0.000842816
-0.000838596
0.00127131
-0.00042842
0.00145555
-0.000184175
0.0015873
-0.000131664
0.00171263
-0.000125253
0.00180533
-9.26091e-05
0.00181269
-7.26123e-06
0.00176872
4.40761e-05
0.00171179
5.70399e-05
0.00165473
5.71701e-05
0.00160014
5.47093e-05
0.00154884
5.14245e-05
0.00149947
4.94899e-05
0.00144521
5.43847e-05
0.00136656
7.87641e-05
0.00123235
0.000134321
0.00104521
0.000187241
0.000853871
0.000191434
0.000861235
-0.00202602
0.00506298
-0.00276001
0.00116847
-0.0034596
0.00124924
-0.00404148
0.00111868
-0.00453509
0.0009663
-0.00493732
0.000787354
-0.00523537
0.000576256
-0.00541172
0.000326584
-0.00544643
3.30291e-05
-0.0053244
-0.000305024
-0.00503276
-0.000681071
-0.00455983
-0.00108448
-0.00390287
-0.00153075
-0.00319008
-0.00203554
-0.00301762
-0.00236717
-0.0010228
-0.0019948
-0.00102277
0.000586662
-0.00141424
0.000771102
-0.000612798
0.00091165
-0.000324657
0.00107492
-0.00029486
0.00124658
-0.00029684
0.00139954
-0.000245486
0.0014311
-3.8732e-05
0.0014346
4.06671e-05
0.00143761
5.41304e-05
0.00144096
5.39275e-05
0.00144406
5.17261e-05
0.00144688
4.87185e-05
0.00144888
4.76039e-05
0.00144734
5.60424e-05
0.00141489
0.000111325
0.00125845
0.000290868
0.000994224
0.000451559
0.000687381
0.000498362
0.00156674
-0.00150008
0.00684684
-0.00233123
0.00199971
-0.0030328
0.0019509
-0.00358406
0.00167002
-0.00405593
0.00143826
-0.00444945
0.00118096
-0.00475321
0.000880115
-0.00495075
0.000524221
-0.00502412
0.000106489
-0.00495826
-0.000370784
-0.00474844
-0.000890795
-0.00440642
-0.00142639
-0.00397921
-0.00195787
-0.00357428
-0.00244037
-0.0031953
-0.00274606
-0.00228551
-0.0029045
-0.00330821
-0.000310095
-0.00108776
-4.10137e-05
-0.00088182
0.000292414
-0.000658021
0.000560465
-0.000562845
0.000791998
-0.000528303
0.00108386
-0.000537272
0.00104536
0.00108627
0.00114065
0.00119484
0.00124683
0.00129581
0.00134368
0.00139999
0.00151157
0.0012406
0.000561939
0.00091329
0.000778962
0.000557406
0.000854328
0.00215083
-0.00112423
0.00833093
-0.00196116
0.00283672
-0.0025177
0.00250753
-0.0029692
0.00212162
-0.0033734
0.00184255
-0.00372356
0.00153122
-0.00400786
0.00116452
-0.0042101
0.000726563
-0.00430906
0.00020555
-0.00428446
-0.000395277
-0.00414133
-0.00103383
-0.00392002
-0.00164759
-0.00368838
-0.00218941
-0.00350933
-0.00261931
-0.00334924
-0.00290606
-0.00319937
-0.00305428
-0.00377715
-0.00273035
-0.00183359
-0.00192582
-0.00109873
-0.00182256
-0.000561615
-0.00141887
-0.000144161
-0.00107542
0.000166824
-0.000873768
0.000380326
-0.00074174
0.000455609
-0.000612488
0.000857553
-0.000402031
0.00119317
-0.000335698
0.00149892
-0.000305839
0.00177238
-0.000273536
0.00199238
-0.000220084
0.00212151
-0.000129204
0.00211179
9.64476e-06
0.0019213
0.000190425
0.00149649
0.000424738
0.00124868
0.000809842
0.000808304
0.00121944
0.000147613
0.0015151
0.00233316
-0.000828077
0.0095816
-0.00162794
0.00363668
-0.00192817
0.00280785
-0.00224079
0.00243433
-0.00253932
0.00214118
-0.00280294
0.00179494
-0.00302218
0.00138386
-0.00318535
0.000889838
-0.00327233
0.000292637
-0.00325035
-0.00041715
-0.00312966
-0.00115441
-0.00296971
-0.00180744
-0.00283017
-0.00232884
-0.00274021
-0.00270916
-0.00268948
-0.00295668
-0.00268961
-0.00305405
-0.002534
-0.00288588
-0.00182334
-0.00263639
-0.00116777
-0.00247807
-0.000677853
-0.00190872
-0.000334223
-0.00141899
-6.54411e-05
-0.00114249
0.000148865
-0.000955985
0.000342807
-0.000806369
0.000617184
-0.000676346
0.000886435
-0.000604884
0.0011432
-0.000562536
0.00138581
-0.000516081
0.00160128
-0.00043549
0.00176171
-0.000289556
0.00182454
-5.31117e-05
0.00175873
0.000256316
0.00157949
0.000604058
0.00136696
0.00102246
0.00109286
0.00149363
0.000516795
0.00209126
0.000258926
0.0025911
-0.00120887
0.00146765
-0.00170176
0.000492722
-0.00163592
-0.000717371
0.0107747
-0.00142253
0.00434193
-0.00129111
0.00267652
-0.00142494
0.00256825
-0.00160865
0.00232498
-0.00175785
0.00194424
-0.00186811
0.00149422
-0.00194132
0.000963155
-0.00196827
0.000319689
-0.00190691
-0.000478401
-0.00178895
-0.00127227
-0.00168209
-0.00191419
-0.00162801
-0.0023828
-0.00164043
-0.00269662
-0.0017129
-0.00288409
-0.00180777
-0.00295906
-0.00175466
-0.00293888
-0.00144689
-0.00294406
-0.000972017
-0.00295287
-0.000616629
-0.00226404
-0.000396843
-0.00163872
-0.000221161
-0.00131812
-6.50299e-05
-0.00111206
9.19851e-05
-0.000963326
0.000272767
-0.00085707
0.000463517
-0.000795575
0.000659773
-0.000758731
0.000862331
-0.000718576
0.00106873
-0.00064182
0.00126642
-0.000487181
0.00142414
-0.000210769
0.00149888
0.000181654
0.00150615
0.000596863
0.00150441
0.00102428
0.00155898
0.00143914
0.00169878
0.00195156
0.00219389
0.00209607
0.0024985
0.0011631
0.00209455
0.000896727
0.000536437
-0.001025
0.012321
-0.00116287
0.00447989
-0.000427191
0.00194092
-0.000390982
0.00253214
-0.000531332
0.00246542
-0.000598137
0.00201115
-0.000580066
0.00147625
-0.000511705
0.000894895
-0.000385255
0.000193339
-0.000240799
-0.000622759
-0.000138694
-0.00137427
-0.000117741
-0.00193503
-0.000186206
-0.00231422
-0.000335441
-0.00254727
-0.000547023
-0.00267239
-0.000779672
-0.00272629
-0.000946731
-0.00277169
-0.000945757
-0.00294492
-0.000674622
-0.00322392
-0.000471752
-0.00246684
-0.000402988
-0.00170742
-0.000350054
-0.001371
-0.00029805
-0.00116401
-0.000239352
-0.00102197
-0.000165418
-0.000930949
-7.80343e-05
-0.000882902
2.40709e-05
-0.000860779
0.000145937
-0.000840382
0.000296279
-0.0007921
0.000487797
-0.000678635
0.000727295
-0.000450201
0.000960648
-5.16293e-05
0.00116081
0.000396777
0.00137809
0.000807077
0.00168805
0.00112927
0.00219539
0.0014443
0.0029795
0.00131204
0.00364063
0.000502046
0.00369602
0.000841401
0.00431242
0.00225489
0.0106448
0.00267133
0.00406354
0.00221392
0.00239841
0.00179567
0.00295047
0.00141314
0.00284804
0.00123108
0.0021933
0.00125801
0.00144942
0.00141498
0.000738017
0.00166641
-5.79981e-05
0.00184733
-0.000803596
0.00184418
-0.00137102
0.00168838
-0.00177913
0.00142381
-0.00204954
0.00108361
-0.00220695
0.000693441
-0.00228209
0.000280562
-0.00231327
-0.000113722
-0.00237727
-0.000400565
-0.00265795
-0.000332588
-0.00329181
-0.000273593
-0.00252576
-0.000379193
-0.00160177
-0.000476309
-0.00127383
-0.000550197
-0.00109007
-0.000610243
-0.000961874
-0.000659523
-0.000881617
-0.000702022
-0.00084035
-0.000738289
-0.000824457
-0.000763025
-0.000815589
-0.000764205
-0.00079086
-0.000718282
-0.000724497
-0.000581248
-0.000587171
-0.000286153
-0.000346657
6.78811e-05
4.28108e-05
0.00041079
0.00046424
0.000767172
0.000772961
0.00118938
0.00102217
0.00155006
0.000951442
0.00152484
0.00052733
0.000594557
0.00177176
0.00527878
0.0112873
0.0153513
0.0119582
0.00579155
0.00963437
0.00527442
0.00781867
0.00466383
0.00660855
0.00340351
0.0058806
0.00217746
0.00546031
0.00115839
0.00507508
0.000327329
0.00462035
-0.00034878
0.00412145
-0.000872017
0.00358794
-0.00124552
0.0030246
-0.00148609
0.00243955
-0.00162178
0.0018417
-0.00168412
0.00123823
-0.00170967
0.000639995
-0.0017789
0.000131276
-0.0021491
4.07904e-05
-0.00320123
-1.59803e-05
-0.00246891
-0.000363671
-0.00125402
-0.000621934
-0.00101552
-0.000812192
-0.000899767
-0.00098496
-0.000789058
-0.00115519
-0.000711334
-0.00133528
-0.000660214
-0.00153624
-0.000623442
-0.00176549
-0.000586284
-0.00202945
-0.000526845
-0.00233518
-0.000418707
-0.00268864
-0.000233651
-0.00310014
6.49069e-05
-0.00354613
0.000488858
-0.00412921
0.00104738
-0.00505743
0.00170125
-0.00638314
0.00234793
-0.00819535
0.00276371
-0.0102757
0.00260775
-0.0094314
0.00092749
-0.00373806
0.00590419
0.00637752
0.00524811
0.00593056
0.00582492
0.00408709
0.00615269
0.00307582
0.00623091
0.00209932
0.00619205
0.00119734
0.00603572
0.000483756
0.00571896
-3.19251e-05
0.00524772
-0.000400679
0.00467144
-0.000669147
0.0040342
-0.000848741
0.00336893
-0.000956398
0.00269327
-0.00100835
0.002002
-0.00101826
0.0012688
-0.00104556
0.000609415
-0.00148958
0.000385163
-0.00297689
0.000193884
-0.00227755
-0.000523592
-0.000536488
-0.000857985
-0.00068108
-0.00109581
-0.000661896
-0.00132593
-0.000558887
-0.00154883
-0.000488391
-0.00178056
-0.000428435
-0.00204015
-0.00036381
-0.00233479
-0.000291586
-0.0026545
-0.000207092
-0.00296965
-0.000103495
-0.00322574
2.2486e-05
-0.00341333
0.000252561
-0.0035555
0.00063108
-0.00368319
0.00117513
-0.00382257
0.00184068
-0.00391711
0.00244252
-0.00381366
0.00266031
-0.00326563
0.00205977
-0.00177653
-0.000561568
-0.00541181
-0.000603989
0.00702462
0.00183588
0.00349075
0.00323481
0.00268823
0.00425961
0.0020511
0.00501626
0.00134275
0.00543269
0.000781001
0.0055461
0.000370436
0.00542237
9.18948e-05
0.00514416
-0.00012237
0.00475102
-0.000275912
0.00428089
-0.000378509
0.00376435
-0.00043975
0.00322127
-0.000465147
0.00265772
-0.000454595
0.00205474
-0.000442455
0.00137109
-0.000805802
0.00051219
-0.0021179
-0.00028606
-0.00147923
-0.000959419
0.000136918
-0.00127058
-0.000369871
-0.00153624
-0.000396201
-0.00177122
-0.000323864
-0.00197125
-0.000288312
-0.00214262
-0.000257021
-0.0022931
-0.000213283
-0.00242808
-0.000156565
-0.00254897
-8.61533e-05
-0.00265448
2.05823e-06
-0.00272505
9.31062e-05
-0.00269338
0.000220941
-0.00251064
0.000448397
-0.00213808
0.000802609
-0.00159954
0.0013022
-0.000903493
0.00174652
0.000211465
0.0015454
0.00150587
0.000765403
0.00166394
-0.000719591
-0.00363536
-0.0101791
-0.0128034
-0.0057378
-0.00221867
0.000494771
0.00257003
0.00393726
0.0047435
0.0051402
0.00525955
0.00516585
0.00491978
0.00457233
0.00416491
0.0037334
0.00331379
0.00290766
0.00213958
6.07933e-05
-0.00138206
-0.00121074
-0.00154568
-0.00190698
-0.00219604
-0.0024496
-0.00267189
-0.00285046
-0.00297241
-0.00302417
-0.00298818
-0.00286193
-0.00260882
-0.00212943
-0.00129711
3.34638e-05
0.00180652
0.00337785
0.00416952
0.0034776
)
;

boundaryField
{
    floor
    {
        type            calculated;
        value           nonuniform List<scalar> 
29
(
0
0
0
0
0
0
0
0
0
0
0
0
0
0
0
0
0
0
0
0
-7.28233e-06
-1.80527e-05
-2.66091e-05
-3.46387e-05
-3.601e-06
-4.15194e-06
-1.09577e-05
-1.63255e-05
-1.76616e-05
)
;
    }
    ceiling
    {
        type            calculated;
        value           nonuniform List<scalar> 
43
(
-4.33311e-05
-4.21825e-05
-4.09704e-05
-2.83145e-05
-2.51406e-05
-2.40855e-05
-2.43865e-05
-2.51485e-05
-2.61756e-05
-2.73655e-05
-2.85664e-05
-2.97478e-05
-3.0958e-05
-3.22187e-05
-3.3531e-05
-3.4872e-05
-3.62151e-05
-3.76123e-05
-3.90436e-05
-3.63413e-05
-3.43699e-05
-3.48952e-05
-3.48609e-05
-3.47572e-05
-3.47094e-05
-3.46955e-05
-3.46706e-05
-3.45785e-05
-3.43464e-05
-3.38875e-05
-3.30985e-05
-3.21208e-05
-3.0951e-05
-2.96643e-05
-2.83225e-05
-2.64889e-05
-2.58753e-05
-2.62246e-05
-2.76311e-05
-2.87928e-05
1.79405e-06
-3.96808e-07
-4.30795e-05
)
;
    }
    sWall
    {
        type            calculated;
        value           uniform -0.000241323;
    }
    nWall
    {
        type            calculated;
        value           nonuniform List<scalar> 6(-6.59883e-05 -7.77512e-05 -7.98927e-05 -0.000102735 -0.000112466 -0.000128926);
    }
    sideWalls
    {
        type            empty;
        value           nonuniform 0();
    }
    glass1
    {
        type            calculated;
        value           nonuniform List<scalar> 9(-7.16636e-05 -0.000189391 -0.000283696 -0.00035978 -0.00042251 -0.000475605 -0.000521274 -0.000578588 -0.000644214);
    }
    glass2
    {
        type            calculated;
        value           nonuniform List<scalar> 2(-0.000371749 -0.000414515);
    }
    sun
    {
        type            calculated;
        value           uniform 0;
    }
    heatsource1
    {
        type            calculated;
        value           nonuniform List<scalar> 3(2.07089e-07 2.0691e-07 2.06924e-07);
    }
    heatsource2
    {
        type            calculated;
        value           nonuniform List<scalar> 4(5.15277e-08 5.17682e-08 0 0);
    }
    Table_master
    {
        type            calculated;
        value           nonuniform List<scalar> 9(-1.55306e-07 -1.55389e-07 -1.55408e-07 -1.55424e-07 -1.55438e-07 -1.55451e-07 -1.55463e-07 -1.55469e-07 -1.55453e-07);
    }
    Table_slave
    {
        type            calculated;
        value           nonuniform List<scalar> 9(1.55323e-07 1.55273e-07 1.55181e-07 1.55098e-07 1.55035e-07 1.55004e-07 1.55021e-07 1.55045e-07 1.55135e-07);
    }
    inlet
    {
        type            calculated;
        value           uniform -0.00649015;
    }
    outlet
    {
        type            calculated;
        value           nonuniform List<scalar> 2(0.0104638 0.0026666);
    }
}


// ************************************************************************* //
