/*--------------------------------*- C++ -*----------------------------------*\
  =========                 |
  \\      /  F ield         | OpenFOAM: The Open Source CFD Toolbox
   \\    /   O peration     | Website:  https://openfoam.org
    \\  /    A nd           | Version:  6
     \\/     M anipulation  |
\*---------------------------------------------------------------------------*/
FoamFile
{
    version     2.0;
    format      ascii;
    class       volScalarField;
    location    "100";
    object      nut;
}
// * * * * * * * * * * * * * * * * * * * * * * * * * * * * * * * * * * * * * //

dimensions      [0 2 -1 0 0 0 0];

internalField   nonuniform List<scalar> 
459
(
0.000790221
0.000806043
0.000697157
0.000718148
0.000746138
0.000773976
0.000801233
0.000828438
0.000856753
0.00088346
0.000904721
0.000918553
0.000923265
0.000917624
0.000896388
0.000481716
0.000544409
0.000555984
0.000459221
0.000298052
0.000249952
0.000234418
0.000231767
0.000222867
0.000216641
0.000217337
0.000218938
0.000219351
0.000232542
0.000301866
0.000456195
0.000609165
0.000624694
0.000554867
0.00140942
0.00261618
0.0017476
0.00251866
0.00276842
0.0029826
0.00320302
0.0034084
0.00356826
0.00367992
0.00372546
0.00366445
0.00343309
0.00293079
0.00205751
0.000960485
0.000680301
0.000603655
0.00128561
0.00141943
0.00130377
0.000941657
0.000625047
0.000479925
0.000369956
0.000336319
0.000349309
0.00036903
0.00038654
0.000436973
0.000592564
0.000929659
0.00142796
0.00173195
0.00182851
0.00067135
0.00193347
0.00441726
0.00188355
0.00339824
0.00413688
0.00440229
0.00461015
0.00478517
0.00491406
0.00499554
0.00500287
0.00488623
0.00457219
0.00397158
0.00304696
0.00196294
0.00101984
0.000984395
0.00247412
0.00215752
0.00181272
0.00149454
0.00116337
0.000409535
0.000286189
0.000220417
0.000239225
0.000290212
0.000357588
0.000438963
0.000543073
0.00071258
0.00171277
0.00191728
0.00153023
0.00074924
0.00240983
0.00651898
0.00230424
0.00339719
0.00478427
0.00513829
0.0053361
0.00550678
0.00565281
0.00577077
0.00586133
0.00587568
0.00572443
0.00527941
0.00441552
0.00316124
0.00189215
0.0011804
0.00247446
0.00255891
0.00229074
0.00196802
0.00165563
0.00129977
0.000986217
0.00101504
0.00105042
0.00108801
0.00112496
0.00115886
0.00118943
0.00120526
0.00120903
0.00198933
0.00252545
0.00289475
0.00112245
0.00283623
0.00863851
0.00316407
0.00307865
0.00484738
0.00534307
0.00554666
0.00572131
0.00589756
0.00607768
0.00632869
0.00662892
0.00691754
0.0071116
0.00712
0.00687871
0.00640803
0.0058166
0.0053845
0.0049953
0.00479344
0.00466945
0.00456962
0.00450631
0.00448884
0.00457036
0.00468207
0.00479077
0.0048635
0.00488261
0.00486209
0.00482798
0.00479303
0.00478271
0.00461311
0.0042197
0.00323047
0.0013885
0.00122811
0.00118203
0.00322534
0.0104131
0.00465741
0.00298477
0.00428137
0.00497086
0.00525682
0.00543855
0.00558585
0.00575558
0.00609064
0.00656692
0.00713218
0.00770683
0.00818679
0.00846188
0.0084507
0.0081649
0.00771751
0.00723627
0.00682972
0.00653942
0.00634578
0.00621452
0.00612201
0.00607104
0.00605223
0.00603101
0.00596408
0.00583368
0.00567029
0.00553424
0.00546976
0.00547158
0.00552063
0.00553601
0.00513798
0.00433309
0.00286369
0.00146288
0.00357485
0.0116137
0.00713354
0.0039794
0.00342482
0.00400025
0.00457862
0.00491301
0.00500609
0.0051196
0.00540449
0.00586218
0.00648613
0.007225
0.00796646
0.00855946
0.0088637
0.00885942
0.00861843
0.0082614
0.00789977
0.00759806
0.00736787
0.0071918
0.00705047
0.00694516
0.00687596
0.00680701
0.00667178
0.00642491
0.00609121
0.00575485
0.00549125
0.00532286
0.00520568
0.00502447
0.00464903
0.0041204
0.00329886
0.00147213
0.00363316
0.0113828
0.00897785
0.00685841
0.00495795
0.00415136
0.00432782
0.00470685
0.00471463
0.00470888
0.00480616
0.00503607
0.00543815
0.00604441
0.00681985
0.00762078
0.00818984
0.00848256
0.0085184
0.00837703
0.00815526
0.00793063
0.00774812
0.00762722
0.00757288
0.00758354
0.00764454
0.00771192
0.00769939
0.00751417
0.00712456
0.00658405
0.00593345
0.00523887
0.00456417
0.00396348
0.00347306
0.0030349
0.00261321
0.00169358
0.00350303
0.00413226
0.00582325
0.00611611
0.0056211
0.00500152
0.00458444
0.0043824
0.00428379
0.00426895
0.00431312
0.00440853
0.0045783
0.00487444
0.00534952
0.00598623
0.00664718
0.00718562
0.00751957
0.0076523
0.00763979
0.00755168
0.00745016
0.00738869
0.00741968
0.00759325
0.00792361
0.00834241
0.00872378
0.00898131
0.00908488
0.00900742
0.00881428
0.0085535
0.00820576
0.00758464
0.00648843
0.0054708
0.00492513
0.00189416
0.00909836
0.0106591
0.00736549
0.00610135
0.00538372
0.00493047
0.00463077
0.00442276
0.00427769
0.00418265
0.00413947
0.00416842
0.00430803
0.00459749
0.00503122
0.00553359
0.00599369
0.00633188
0.00652884
0.00661077
0.00662429
0.00662258
0.00666477
0.00681958
0.00715258
0.00768159
0.00832454
0.00890632
0.00930696
0.00949747
0.00951178
0.00941435
0.00925541
0.00902457
0.00861366
0.00766798
0.00664925
0.00189534
0.00470665
0.0102828
0.00756913
0.00637385
0.00561854
0.00506682
0.00464409
0.00430781
0.00401945
0.00376655
0.00356404
0.00342682
0.00337269
0.00342251
0.00359166
0.0038715
0.00421609
0.00455777
0.00484106
0.00504363
0.00517449
0.00526259
0.00534752
0.00547593
0.00569968
0.00606484
0.00657656
0.00714569
0.00765231
0.00803094
0.00825079
0.00832057
0.00826515
0.00808934
0.00771449
0.00675169
0.00549442
0.00173761
0.00278192
0.00325834
0.00386703
0.00372831
0.00304833
0.00265849
0.00237127
0.00214112
0.00195075
0.00179059
0.00165607
0.00154249
0.00144495
0.00136092
0.0012893
0.00122997
0.00118346
0.00115047
0.00113098
0.00112351
0.00112506
0.0011321
0.0011417
0.00115219
0.00116341
0.00117673
0.00119493
0.00122187
0.00126084
0.00131655
0.00138966
0.00147163
0.00155149
0.0016183
0.00166295
0.0016777
0.00165172
0.00160955
0.00156254
0.00144373
)
;

boundaryField
{
    floor
    {
        type            nutkWallFunction;
        Cmu             0.09;
        kappa           0.41;
        E               9.8;
        value           nonuniform List<scalar> 
29
(
0.000108437
5.74166e-05
6.53995e-05
6.68574e-05
5.45209e-05
3.31821e-05
2.65464e-05
2.43679e-05
2.39953e-05
2.2737e-05
2.18494e-05
2.19441e-05
2.21675e-05
2.22229e-05
2.41002e-05
3.37184e-05
5.41669e-05
7.35586e-05
7.54865e-05
6.67328e-05
6.67328e-05
8.12345e-05
9.07531e-05
0.000134994
0.000108437
5.74166e-05
7.28227e-05
0.000118855
0.00014169
)
;
    }
    ceiling
    {
        type            nutkWallFunction;
        Cmu             0.09;
        kappa           0.41;
        E               9.8;
        value           nonuniform List<scalar> 
43
(
0.000317071
0.000366792
0.00042926
0.000415076
0.000344921
0.000303999
0.000273455
0.000248699
0.00022801
0.000210438
0.000195547
0.000182872
0.000171905
0.000162392
0.000154232
0.000147435
0.000142082
0.00013827
0.000136014
0.000135147
0.000135327
0.000136144
0.000137255
0.000138468
0.000139765
0.000141301
0.000143399
0.000146498
0.000150969
0.000157335
0.000165645
0.000174903
0.00018387
0.000191334
0.000196305
0.000197948
0.000195066
0.000190369
0.000185116
0.000171771
0.000392051
0.000456149
0.000513863
)
;
    }
    sWall
    {
        type            nutkWallFunction;
        Cmu             0.09;
        kappa           0.41;
        E               9.8;
        value           uniform 0.000317142;
    }
    nWall
    {
        type            nutkWallFunction;
        Cmu             0.09;
        kappa           0.41;
        E               9.8;
        value           nonuniform List<scalar> 6(0.00014189 0.000173869 0.000174986 0.000221923 0.000204583 0.000171787);
    }
    sideWalls
    {
        type            empty;
    }
    glass1
    {
        type            nutkWallFunction;
        Cmu             0.09;
        kappa           0.41;
        E               9.8;
        value           nonuniform List<scalar> 9(9.57137e-05 0.000168104 0.000226461 0.000278006 0.000323226 0.000363874 0.000399956 0.000405956 0.000392614);
    }
    glass2
    {
        type            nutkWallFunction;
        Cmu             0.09;
        kappa           0.41;
        E               9.8;
        value           nonuniform List<scalar> 2(0.000199817 0.00022193);
    }
    sun
    {
        type            nutkWallFunction;
        Cmu             0.09;
        kappa           0.41;
        E               9.8;
        value           nonuniform List<scalar> 
14
(
9.57124e-05
9.7621e-05
8.43852e-05
8.69547e-05
9.03671e-05
9.3746e-05
9.70404e-05
0.000100315
0.000103711
0.000106901
0.000109432
0.000111075
0.000111634
0.000110963
)
;
    }
    heatsource1
    {
        type            nutkWallFunction;
        Cmu             0.09;
        kappa           0.41;
        E               9.8;
        value           nonuniform List<scalar> 3(0.000165418 0.000147127 0.000141873);
    }
    heatsource2
    {
        type            nutkWallFunction;
        Cmu             0.09;
        kappa           0.41;
        E               9.8;
        value           nonuniform List<scalar> 4(0.00011603 8.23127e-05 8.23126e-05 0.000123012);
    }
    Table_master
    {
        type            nutkWallFunction;
        Cmu             0.09;
        kappa           0.41;
        E               9.8;
        value           nonuniform List<scalar> 9(4.805e-05 3.15649e-05 2.24275e-05 2.50738e-05 3.21192e-05 4.11964e-05 5.18786e-05 6.51967e-05 8.62555e-05);
    }
    Table_slave
    {
        type            nutkWallFunction;
        Cmu             0.09;
        kappa           0.41;
        E               9.8;
        value           nonuniform List<scalar> 9(0.000119067 0.000122458 0.000126606 0.000130998 0.000135299 0.000139232 0.000142768 0.000144592 0.000145019);
    }
    inlet
    {
        type            calculated;
        value           uniform 0.00909836;
    }
    outlet
    {
        type            calculated;
        value           nonuniform List<scalar> 2(0.00278192 0.00325834);
    }
}


// ************************************************************************* //
