/*--------------------------------*- C++ -*----------------------------------*\
  =========                 |
  \\      /  F ield         | OpenFOAM: The Open Source CFD Toolbox
   \\    /   O peration     | Website:  https://openfoam.org
    \\  /    A nd           | Version:  6
     \\/     M anipulation  |
\*---------------------------------------------------------------------------*/
FoamFile
{
    version     2.0;
    format      ascii;
    class       volScalarField;
    location    "200";
    object      alphat;
}
// * * * * * * * * * * * * * * * * * * * * * * * * * * * * * * * * * * * * * //

dimensions      [1 -1 -1 0 0 0 0];

internalField   nonuniform List<scalar> 
459
(
0.0008655
0.000878916
0.000751758
0.00077228
0.000801357
0.000830384
0.000858752
0.00088689
0.000915817
0.000945172
0.000970258
0.000989657
0.00100247
0.00100813
0.00100138
0.000447994
0.000489492
0.000500036
0.000407166
0.000313454
0.000279525
0.000272518
0.000273538
0.000279393
0.000302241
0.000334886
0.000371601
0.000409616
0.000448389
0.000499741
0.00055842
0.000592164
0.000580801
0.000516129
0.00156051
0.00283933
0.00176396
0.00254984
0.002791
0.00299296
0.00320348
0.00340267
0.00356297
0.00366774
0.00370804
0.00364602
0.00342004
0.0029307
0.00208598
0.00108843
0.000747936
0.000597911
0.00130754
0.00151812
0.00154609
0.00136795
0.000751352
0.000389134
0.000356627
0.000431185
0.00059978
0.000835739
0.00109744
0.00137707
0.00164273
0.00186182
0.00213168
0.00201874
0.00195509
0.000653085
0.00216622
0.00500242
0.00195961
0.0033932
0.00420408
0.00447784
0.00469103
0.00487232
0.00500759
0.00509108
0.00510253
0.00499534
0.00469702
0.00411425
0.00320226
0.00212455
0.00118117
0.0010583
0.00289213
0.002666
0.00235552
0.00185256
0.00128234
0.000477918
0.000360837
0.000414376
0.000470403
0.00052783
0.000589999
0.000660682
0.000745874
0.000855531
0.00206625
0.00185451
0.00146815
0.000851062
0.0027192
0.0075424
0.00259823
0.00331733
0.00488393
0.00529394
0.00551634
0.00570701
0.00586975
0.00599142
0.00608758
0.00611616
0.00599132
0.00558003
0.00473789
0.0034658
0.00213477
0.00136023
0.00340594
0.00346392
0.00315817
0.00254045
0.00192696
0.00134237
0.000881857
0.000887362
0.000894359
0.000900839
0.000907706
0.000917356
0.000933897
0.000964569
0.00104319
0.00306905
0.0038004
0.00382541
0.00128407
0.00321378
0.0100907
0.00383377
0.00303473
0.00489851
0.00551615
0.00576738
0.00596766
0.00615445
0.00633434
0.00657792
0.00688043
0.00719264
0.00744009
0.00752944
0.00738053
0.006996
0.00651404
0.00643021
0.00609437
0.00567062
0.00529183
0.0049724
0.00471809
0.00452652
0.00443615
0.00434458
0.0042497
0.00416767
0.00412531
0.00414819
0.00424915
0.00442771
0.00468263
0.00483289
0.00475929
0.00410058
0.00173595
0.00154148
0.00134347
0.0036644
0.0122262
0.00592595
0.00332024
0.00422235
0.00502611
0.00542453
0.00567327
0.00584476
0.00600206
0.00631337
0.00676081
0.00731012
0.00790079
0.00843866
0.00880956
0.00891345
0.00874265
0.00840942
0.00797983
0.00754582
0.00716654
0.00684749
0.00657349
0.00631862
0.00606357
0.00579514
0.00551988
0.00526345
0.00506666
0.0049641
0.00495877
0.00501492
0.00506922
0.00507693
0.00497453
0.00457013
0.00368435
0.00276411
0.00140483
0.00406364
0.0136481
0.00912831
0.00526509
0.00388673
0.00411875
0.00472547
0.00516869
0.00532701
0.00545725
0.00571049
0.00610284
0.00665155
0.00733648
0.00807029
0.00871152
0.00910665
0.00920578
0.00907479
0.00881546
0.00851696
0.00823049
0.00796787
0.00771955
0.00746391
0.00718277
0.00686572
0.00651034
0.00613093
0.00576589
0.00545898
0.00522575
0.00504741
0.00488214
0.0046643
0.00432009
0.00378529
0.0031098
0.00244013
0.00137363
0.00411647
0.0131013
0.0108194
0.00876825
0.00646263
0.00516474
0.00495485
0.00519774
0.00525471
0.00525608
0.00531656
0.00547103
0.00576136
0.00623411
0.00689152
0.00764324
0.00825748
0.00862049
0.00876028
0.00874493
0.00865013
0.00853158
0.0084162
0.00830843
0.00819771
0.00806826
0.00790253
0.00768202
0.00739593
0.00706473
0.00672515
0.00634111
0.00590006
0.00540381
0.00487688
0.00435178
0.00387232
0.00338902
0.00294351
0.00173251
0.00395252
0.00462831
0.00770998
0.00820667
0.00746761
0.00654354
0.0058655
0.00546605
0.00521781
0.00508299
0.00502796
0.00502901
0.00509207
0.00525346
0.00556446
0.00604149
0.00659922
0.00710733
0.00748601
0.0077263
0.00786368
0.00794395
0.00800404
0.00806797
0.00814954
0.00825477
0.008377
0.0084987
0.00858031
0.00855574
0.00838018
0.00814125
0.00792575
0.00782392
0.00785813
0.00773402
0.00677458
0.00564392
0.00550106
0.00192872
0.0145046
0.015287
0.00977503
0.00783007
0.00676809
0.00609379
0.00563603
0.00530307
0.00504497
0.00484164
0.00468624
0.00458615
0.004564
0.0046514
0.00486461
0.00518023
0.00554051
0.00588614
0.00618456
0.00643293
0.00664576
0.00684335
0.00704757
0.00728272
0.00757174
0.0079247
0.00831652
0.00863558
0.00877322
0.00874647
0.0086204
0.00848087
0.00837664
0.00824531
0.00780928
0.00679012
0.00617955
0.00188552
0.00639462
0.0137217
0.00978871
0.00796792
0.00687231
0.00610204
0.00552536
0.00507037
0.00467724
0.00432905
0.00402796
0.00377586
0.00357645
0.0034371
0.00336817
0.00337859
0.00346948
0.00363015
0.00384026
0.0040763
0.00431878
0.00455733
0.00479363
0.00504319
0.00533557
0.00570853
0.00618611
0.00672773
0.0071896
0.00749773
0.00762789
0.00760512
0.00746513
0.00719457
0.00657287
0.00561135
0.00501462
0.00166466
0.00317754
0.00391913
0.00499593
0.00462472
0.00381846
0.00327131
0.00286893
0.0025558
0.00230268
0.00209229
0.00191704
0.00176849
0.00163987
0.00152708
0.00142763
0.00133999
0.00126324
0.00119688
0.00114057
0.00109402
0.0010568
0.00102837
0.00100807
0.000995261
0.000989509
0.000990849
0.00100017
0.00101954
0.00105191
0.00110284
0.00117941
0.00127257
0.00136389
0.00143393
0.00147032
0.00146753
0.00144237
0.00140449
0.00139309
0.0013101
)
;

boundaryField
{
    floor
    {
        type            compressible::alphatWallFunction;
        Prt             0.85;
        value           nonuniform List<scalar> 
29
(
0.000142418
6.10952e-05
6.74989e-05
6.91146e-05
5.47167e-05
3.97516e-05
3.4195e-05
3.30369e-05
3.32042e-05
3.41694e-05
3.79193e-05
4.32138e-05
4.90887e-05
5.50936e-05
6.11465e-05
6.90639e-05
7.79891e-05
8.30689e-05
8.13613e-05
7.15732e-05
7.15723e-05
9.21442e-05
0.000121004
0.000181627
0.000142416
6.10944e-05
8.39318e-05
0.000150361
0.000192008
)
;
    }
    ceiling
    {
        type            compressible::alphatWallFunction;
        Prt             0.85;
        value           nonuniform List<scalar> 
43
(
0.000426755
0.000517723
0.000646803
0.000602621
0.000505426
0.000438297
0.000388194
0.000348697
0.000316397
0.000289259
0.00026643
0.000246899
0.000229843
0.000214765
0.000201366
0.00018947
0.000178981
0.000169853
0.000162062
0.000155587
0.000150387
0.000146401
0.000143547
0.000141744
0.000140932
0.000141121
0.000142434
0.000145158
0.000149698
0.000156808
0.000167428
0.000180244
0.000192701
0.000202193
0.000207102
0.000206724
0.000203327
0.0001982
0.000196652
0.000185358
0.000521739
0.000603039
0.000810466
)
;
    }
    sWall
    {
        type            compressible::alphatWallFunction;
        Prt             0.85;
        value           uniform 0.000425658;
    }
    nWall
    {
        type            compressible::alphatWallFunction;
        Prt             0.85;
        value           nonuniform List<scalar> 6(0.000189512 0.000197849 0.000193618 0.000261864 0.000232719 0.000184997);
    }
    sideWalls
    {
        type            empty;
    }
    glass1
    {
        type            compressible::alphatWallFunction;
        Prt             0.85;
        value           nonuniform List<scalar> 9(0.000119426 0.000213702 0.000292291 0.000362161 0.000423508 0.000478624 0.000526925 0.000533443 0.000513966);
    }
    glass2
    {
        type            compressible::alphatWallFunction;
        Prt             0.85;
        value           nonuniform List<scalar> 2(0.00023998 0.000265669);
    }
    sun
    {
        type            compressible::alphatWallFunction;
        Prt             0.85;
        value           nonuniform List<scalar> 
14
(
0.000123147
0.000125046
0.000106701
0.000109685
0.000113898
0.000118085
0.000122161
0.000126187
0.000130311
0.00013448
0.00013803
0.000140768
0.000142573
0.000143368
)
;
    }
    heatsource1
    {
        type            compressible::alphatWallFunction;
        Prt             0.85;
        value           nonuniform List<scalar> 3(0.000242596 0.000216698 0.000189949);
    }
    heatsource2
    {
        type            compressible::alphatWallFunction;
        Prt             0.85;
        value           nonuniform List<scalar> 4(0.000154815 0.000106335 0.000106334 0.000167686);
    }
    Table_master
    {
        type            compressible::alphatWallFunction;
        Prt             0.85;
        value           nonuniform List<scalar> 9(6.59595e-05 4.76009e-05 5.60737e-05 6.47914e-05 7.35913e-05 8.29841e-05 9.35161e-05 0.00010603 0.000121888);
    }
    Table_slave
    {
        type            compressible::alphatWallFunction;
        Prt             0.85;
        value           nonuniform List<scalar> 9(0.000125665 0.000126452 0.000127451 0.000128376 0.000129355 0.000130729 0.00013308 0.000137427 0.000148492);
    }
    inlet
    {
        type            fixedValue;
        value           uniform 1.94e-05;
    }
    outlet
    {
        type            zeroGradient;
    }
}


// ************************************************************************* //
