/*--------------------------------*- C++ -*----------------------------------*\
  =========                 |
  \\      /  F ield         | OpenFOAM: The Open Source CFD Toolbox
   \\    /   O peration     | Website:  https://openfoam.org
    \\  /    A nd           | Version:  6
     \\/     M anipulation  |
\*---------------------------------------------------------------------------*/
FoamFile
{
    version     2.0;
    format      ascii;
    class       volScalarField;
    location    "1100";
    object      nut;
}
// * * * * * * * * * * * * * * * * * * * * * * * * * * * * * * * * * * * * * //

dimensions      [0 2 -1 0 0 0 0];

internalField   nonuniform List<scalar> 
459
(
0.00105819
0.00115282
0.00117389
0.00122951
0.00128094
0.00132931
0.00137718
0.0014235
0.00145639
0.0014697
0.00145742
0.00141519
0.00134124
0.00123836
0.00111917
0.000460149
0.000549711
0.000619686
0.000623438
0.000604833
0.000578744
0.000543307
0.000507333
0.00047459
0.000445556
0.000419878
0.000397097
0.000376857
0.000358738
0.000342094
0.000326103
0.000309633
0.000299921
0.000275081
0.00144355
0.00340253
0.00321428
0.00372725
0.00422798
0.00473196
0.00517437
0.00551445
0.00583191
0.00609757
0.00627439
0.00632267
0.00619414
0.00577425
0.00458505
0.00113739
0.000688717
0.000481822
0.00100331
0.00139817
0.00169547
0.00186954
0.00187915
0.00149639
0.00128955
0.00114211
0.00102914
0.000939482
0.00086652
0.000803997
0.000745699
0.000689386
0.000639544
0.000595222
0.000710456
0.000368761
0.00176476
0.00461632
0.00391317
0.00488585
0.00532858
0.0056503
0.00590203
0.00611987
0.00637382
0.00664989
0.00691616
0.00712115
0.00721898
0.00713929
0.00666333
0.00513064
0.00116063
0.000911549
0.001314
0.00169803
0.00206845
0.00234345
0.00231676
0.000772558
0.000684484
0.000612871
0.000554656
0.000507002
0.000467643
0.000434899
0.00040767
0.000385462
0.000415631
0.000478078
0.000803015
0.000431969
0.00207406
0.00591839
0.00385753
0.00510401
0.00544296
0.00552315
0.00558691
0.00570755
0.00591859
0.00620296
0.00653382
0.0068371
0.00706463
0.00715794
0.00706066
0.00652578
0.00445079
0.00136064
0.00162994
0.00207046
0.00254616
0.00296632
0.0032561
0.00310586
0.000874088
0.000801339
0.000749685
0.000710466
0.000676859
0.000645147
0.000614551
0.00058217
0.000544279
0.000510434
0.00051429
0.000934638
0.000481669
0.00238972
0.00762103
0.00417137
0.00485942
0.00533086
0.00528305
0.00523297
0.00532137
0.00552104
0.00580956
0.00617601
0.00651115
0.00674753
0.00683934
0.00678562
0.00656456
0.00601055
0.00507871
0.00475479
0.00469129
0.00472445
0.00476983
0.00477339
0.00462965
0.00395538
0.0036293
0.00343948
0.00328998
0.00312957
0.00290022
0.00258038
0.00218651
0.00174625
0.0013066
0.000965594
0.000952562
0.00065504
0.000595984
0.000717979
0.000806074
0.00272499
0.00948932
0.00575482
0.00467989
0.00513537
0.00528536
0.0051411
0.00523122
0.0053993
0.0056686
0.00602066
0.00636944
0.00660582
0.0066603
0.00654185
0.00633102
0.00612333
0.00598215
0.00597488
0.00599078
0.00595788
0.00586728
0.00572228
0.00551207
0.00519882
0.00491661
0.00466492
0.00442341
0.00417958
0.00392077
0.00359115
0.00317335
0.00266564
0.00209855
0.00158662
0.00116736
0.000902754
0.000774135
0.00110084
0.000842773
0.00304066
0.0108444
0.00828851
0.00594708
0.0055227
0.00558032
0.00546073
0.00539072
0.00546727
0.00571802
0.00608641
0.00645182
0.00667805
0.00668388
0.00649453
0.00625452
0.00616485
0.00630524
0.00650438
0.00656787
0.00646151
0.00623202
0.00592339
0.00556925
0.00520371
0.00487535
0.00458455
0.00432056
0.00408037
0.00386761
0.00368056
0.00341604
0.00303075
0.00255128
0.00208077
0.00164104
0.00133369
0.00124803
0.00128082
0.00096729
0.00310947
0.00986625
0.00854362
0.00754529
0.006918
0.00629844
0.00575024
0.00550316
0.00558377
0.00591627
0.00636018
0.00674592
0.0069203
0.00682271
0.00653257
0.00628224
0.0063134
0.00657457
0.00668828
0.00653973
0.00620401
0.00575948
0.00527646
0.00481973
0.0044342
0.00412836
0.00388377
0.00368656
0.00353421
0.00343066
0.00338187
0.00336511
0.00317704
0.00287825
0.00261047
0.00248371
0.00261075
0.00302935
0.00369768
0.00150201
0.00303517
0.00362613
0.00409819
0.00425177
0.00427119
0.00435003
0.00460602
0.00506762
0.00569913
0.00637887
0.00694541
0.00725419
0.0072032
0.00683606
0.00639852
0.00627687
0.00630563
0.00628542
0.0060646
0.00564519
0.00510985
0.00455281
0.00405563
0.00366222
0.00337233
0.00315994
0.00299746
0.00286654
0.00275498
0.00265254
0.00255041
0.00244785
0.00236225
0.00229802
0.00227506
0.00228557
0.00226807
0.0021686
0.00202051
0.0014041
0.00184413
0.00327708
0.00447819
0.00547229
0.00627801
0.0070033
0.00759347
0.00791125
0.00789903
0.00756641
0.00695477
0.00621707
0.00572726
0.00553663
0.00534576
0.00501405
0.00454844
0.00402139
0.00351026
0.00308402
0.00277024
0.00255561
0.00241273
0.00231703
0.00225203
0.00220799
0.00217943
0.00216403
0.00216447
0.0021839
0.00221031
0.00224142
0.00226972
0.00226998
0.00220172
0.00205309
0.00183903
0.00115074
0.00213467
0.00453964
0.00615369
0.00692828
0.00743795
0.00777886
0.00783091
0.00736802
0.00660489
0.00575651
0.00502754
0.00449211
0.00413366
0.00382352
0.00345157
0.00303852
0.00264441
0.00231932
0.00208428
0.00192744
0.00182734
0.00177009
0.0017472
0.00175009
0.00177336
0.00181325
0.00186613
0.00192724
0.00200192
0.00208827
0.00218419
0.00228358
0.00237111
0.00242878
0.00240903
0.00242092
0.00238373
0.00116988
0.001973
0.00197275
0.00200951
0.00208179
0.00188131
0.00171744
0.00163445
0.00155983
0.00145209
0.00132224
0.00116958
0.00101589
0.000878506
0.000769393
0.000690956
0.000636794
0.000599399
0.000574332
0.000559509
0.000553627
0.000555297
0.000563087
0.00057603
0.000593228
0.000613899
0.000637993
0.000665629
0.000697112
0.000733045
0.000774556
0.000821132
0.000872815
0.000930234
0.000994001
0.00106401
0.00114858
0.00117514
0.00114518
0.00107215
0.000994018
)
;

boundaryField
{
    floor
    {
        type            nutkWallFunction;
        Cmu             0.09;
        kappa           0.41;
        E               9.8;
        value           nonuniform List<scalar> 
29
(
0.000134654
5.45906e-05
6.60266e-05
7.48009e-05
7.52678e-05
7.29491e-05
6.96827e-05
6.5217e-05
6.06467e-05
5.6452e-05
5.27021e-05
4.93601e-05
4.63733e-05
4.37013e-05
4.12937e-05
3.90683e-05
3.69168e-05
3.46865e-05
3.3364e-05
2.99552e-05
2.99551e-05
4.26269e-05
5.09363e-05
5.73611e-05
0.000134654
5.45906e-05
5.73813e-05
0.000110261
0.000162386
)
;
    }
    ceiling
    {
        type            nutkWallFunction;
        Cmu             0.09;
        kappa           0.41;
        E               9.8;
        value           nonuniform List<scalar> 
43
(
0.000230406
0.000230297
0.000234295
0.000242234
0.000220414
0.000202375
0.000193168
0.000184843
0.00017274
0.000158016
0.000140495
0.000122591
0.000106322
9.319e-05
8.36146e-05
7.69272e-05
7.22704e-05
6.91291e-05
6.72636e-05
6.65217e-05
6.67324e-05
6.77143e-05
6.93419e-05
7.14979e-05
7.40794e-05
7.70751e-05
8.04945e-05
8.43694e-05
8.87668e-05
9.38151e-05
9.94417e-05
0.000105642
0.00011248
0.000120018
0.00012823
0.000138068
0.00014114
0.000137675
0.000129181
0.000120021
0.00034379
0.000404877
0.00024776
)
;
    }
    sWall
    {
        type            nutkWallFunction;
        Cmu             0.09;
        kappa           0.41;
        E               9.8;
        value           uniform 0.000230466;
    }
    nWall
    {
        type            nutkWallFunction;
        Cmu             0.09;
        kappa           0.41;
        E               9.8;
        value           nonuniform List<scalar> 6(9.76292e-05 0.000102046 0.000116873 0.000138329 0.000140543 0.000120027);
    }
    sideWalls
    {
        type            empty;
    }
    glass1
    {
        type            nutkWallFunction;
        Cmu             0.09;
        kappa           0.41;
        E               9.8;
        value           nonuniform List<scalar> 9(0.000127647 0.000171994 0.000207932 0.000241862 0.000275932 0.000311601 0.000344766 0.000351957 0.000344218);
    }
    glass2
    {
        type            nutkWallFunction;
        Cmu             0.09;
        kappa           0.41;
        E               9.8;
        value           nonuniform List<scalar> 2(0.000178444 0.00016739);
    }
    sun
    {
        type            nutkWallFunction;
        Cmu             0.09;
        kappa           0.41;
        E               9.8;
        value           nonuniform List<scalar> 
14
(
0.000127552
0.000138557
0.000140994
0.000147403
0.0001533
0.000158823
0.000164266
0.000169514
0.000173228
0.000174728
0.000173343
0.000168573
0.00016018
0.000148418
)
;
    }
    heatsource1
    {
        type            nutkWallFunction;
        Cmu             0.09;
        kappa           0.41;
        E               9.8;
        value           nonuniform List<scalar> 3(7.18453e-05 8.69284e-05 9.76284e-05);
    }
    heatsource2
    {
        type            nutkWallFunction;
        Cmu             0.09;
        kappa           0.41;
        E               9.8;
        value           nonuniform List<scalar> 4(0.000136764 8.3341e-05 8.3341e-05 0.000139455);
    }
    Table_master
    {
        type            nutkWallFunction;
        Cmu             0.09;
        kappa           0.41;
        E               9.8;
        value           nonuniform List<scalar> 9(9.35742e-05 8.28205e-05 7.39545e-05 6.66549e-05 6.06097e-05 5.55637e-05 5.13255e-05 4.77705e-05 4.48488e-05);
    }
    Table_slave
    {
        type            nutkWallFunction;
        Cmu             0.09;
        kappa           0.41;
        E               9.8;
        value           nonuniform List<scalar> 9(0.000105794 9.70564e-05 9.07962e-05 8.60092e-05 8.1882e-05 7.79649e-05 7.41637e-05 7.01155e-05 6.53436e-05);
    }
    inlet
    {
        type            calculated;
        value           uniform 0.000100623;
    }
    outlet
    {
        type            calculated;
        value           nonuniform List<scalar> 2(0.001973 0.00197275);
    }
}


// ************************************************************************* //
