// -*- C++ -*-
// File generated by PyFoam - sorry for the ugliness

FoamFile
{
 version 2.0;
 format ascii;
 class volScalarField;
 location "1100";
 object T;
}

dimensions [ 0 0 0 1 0 0 0 ];

internalField nonuniform List<scalar> 459
(
  303.382
  303.118
  303.106
  303.102
  303.098
  303.094
  303.09
  303.084
  303.075
  303.064
  303.051
  303.04
  303.033
  303.031
  303.036
  303.118
  303.098
  303.091
  303.093
  303.096
  303.1
  303.103
  303.107
  303.11
  303.114
  303.117
  303.121
  303.124
  303.127
  303.131
  303.134
  303.138
  303.143
  303.162
  303.562
  303.161
  303.138
  303.141
  303.144
  303.145
  303.143
  303.137
  303.121
  303.096
  303.068
  303.044
  303.027
  303.018
  303.016
  303.013
  303.007
  303.12
  303.084
  303.078
  303.079
  303.083
  303.087
  303.089
  303.09
  303.09
  303.091
  303.092
  303.093
  303.093
  303.094
  303.096
  303.099
  303.105
  303.113
  303.145
  303.749
  303.211
  303.174
  303.187
  303.202
  303.213
  303.218
  303.213
  303.187
  303.144
  303.094
  303.053
  303.026
  303.014
  303.011
  303.012
  303.011
  303.073
  303.067
  303.07
  303.078
  303.087
  303.094
  303.093
  303.093
  303.092
  303.092
  303.091
  303.091
  303.091
  303.09
  303.09
  303.093
  303.096
  303.103
  303.137
  303.938
  303.273
  303.211
  303.231
  303.261
  303.29
  303.31
  303.307
  303.267
  303.198
  303.12
  303.06
  303.023
  303.008
  303.008
  303.012
  303.017
  303.027
  303.038
  303.054
  303.072
  303.089
  303.104
  303.116
  303.126
  303.134
  303.141
  303.148
  303.153
  303.157
  303.16
  303.162
  303.162
  303.141
  303.121
  303.111
  303.137
  304.122
  303.351
  303.25
  303.266
  303.309
  303.358
  303.4
  303.398
  303.338
  303.239
  303.134
  303.058
  303.015
  303
  303.004
  303.015
  303.028
  303.042
  303.06
  303.081
  303.102
  303.122
  303.14
  303.154
  303.167
  303.178
  303.187
  303.193
  303.198
  303.199
  303.198
  303.194
  303.187
  303.169
  303.144
  303.124
  303.134
  303.207
  303.251
  303.258
  304.288
  303.451
  303.315
  303.306
  303.346
  303.406
  303.473
  303.457
  303.369
  303.247
  303.129
  303.043
  302.998
  302.988
  303.001
  303.023
  303.046
  303.07
  303.095
  303.12
  303.144
  303.166
  303.184
  303.198
  303.21
  303.219
  303.227
  303.232
  303.234
  303.233
  303.228
  303.22
  303.208
  303.191
  303.166
  303.141
  303.137
  303.167
  303.183
  303.218
  304.436
  303.612
  303.467
  303.43
  303.447
  303.5
  303.536
  303.48
  303.354
  303.206
  303.078
  302.996
  302.965
  302.972
  303.004
  303.043
  303.08
  303.114
  303.144
  303.171
  303.194
  303.214
  303.229
  303.241
  303.251
  303.258
  303.263
  303.266
  303.265
  303.262
  303.253
  303.242
  303.227
  303.21
  303.187
  303.164
  303.152
  303.159
  303.169
  303.198
  304.654
  304.036
  303.87
  303.765
  303.715
  303.704
  303.615
  303.448
  303.25
  303.077
  302.961
  302.912
  302.922
  302.966
  303.026
  303.087
  303.136
  303.175
  303.204
  303.226
  303.245
  303.26
  303.271
  303.28
  303.286
  303.29
  303.292
  303.292
  303.29
  303.285
  303.277
  303.265
  303.251
  303.235
  303.218
  303.201
  303.195
  303.208
  303.228
  303.356
  304.964
  304.676
  304.409
  304.179
  303.994
  303.791
  303.469
  303.149
  302.913
  302.79
  302.767
  302.814
  302.905
  303.002
  303.094
  303.167
  303.21
  303.238
  303.258
  303.275
  303.288
  303.298
  303.305
  303.31
  303.314
  303.315
  303.315
  303.314
  303.311
  303.309
  303.307
  303.307
  303.31
  303.317
  303.332
  303.355
  303.389
  303.422
  303.444
  303.499
  297.064
  299.229
  300.365
  300.79
  301.202
  301.613
  302.004
  302.341
  302.615
  302.835
  303.032
  303.142
  303.208
  303.249
  303.273
  303.291
  303.304
  303.314
  303.322
  303.328
  303.332
  303.334
  303.336
  303.337
  303.338
  303.339
  303.34
  303.341
  303.343
  303.345
  303.35
  303.359
  303.373
  303.392
  303.416
  303.44
  303.458
  303.478
  297.494
  299.393
  300.317
  300.989
  301.558
  302.061
  302.478
  302.767
  302.969
  303.106
  303.195
  303.248
  303.281
  303.303
  303.317
  303.328
  303.336
  303.342
  303.346
  303.349
  303.351
  303.353
  303.355
  303.356
  303.357
  303.358
  303.36
  303.361
  303.363
  303.365
  303.369
  303.376
  303.385
  303.399
  303.415
  303.433
  303.431
  303.461
  301.271
  299.526
  299.451
  301.196
  302.055
  302.504
  302.761
  302.94
  303.071
  303.16
  303.224
  303.267
  303.296
  303.314
  303.326
  303.334
  303.34
  303.345
  303.348
  303.351
  303.353
  303.355
  303.357
  303.359
  303.361
  303.362
  303.364
  303.366
  303.367
  303.369
  303.371
  303.373
  303.376
  303.38
  303.385
  303.395
  303.405
  303.411
  303.413
  303.451
)
;

boundaryField
{
  floor
  {
    type wallHeatTransfer;
    Tinf uniform 305.2;
    alphaWall uniform 0.24;
    value nonuniform List<scalar> 29
(
  303.258
  303.52
  303.459
  303.424
  303.424
  303.434
  303.448
  303.466
  303.486
  303.506
  303.525
  303.544
  303.562
  303.58
  303.596
  303.613
  303.629
  303.648
  303.661
  303.702
  303.702
  303.602
  303.552
  303.524
  303.258
  303.52
  303.51
  303.328
  303.219
)
;
  }
  ceiling
  {
    type wallHeatTransfer;
    Tinf uniform 303.2;
    alphaWall uniform 0.24;
    value nonuniform List<scalar> 43
(
  301.397
  299.765
  299.692
  301.322
  302.133
  302.555
  302.795
  302.96
  303.082
  303.164
  303.221
  303.26
  303.284
  303.299
  303.308
  303.314
  303.318
  303.321
  303.323
  303.325
  303.327
  303.329
  303.331
  303.333
  303.335
  303.337
  303.339
  303.342
  303.344
  303.346
  303.349
  303.352
  303.355
  303.359
  303.365
  303.376
  303.385
  303.389
  303.39
  303.423
  304.882
  304.617
  297.841
)
;
  }
  sWall
  {
    type wallHeatTransfer;
    Tinf uniform 315.2;
    alphaWall uniform 0.36;
    value uniform 302.6;
  }
  nWall
  {
    type wallHeatTransfer;
    Tinf uniform 307.2;
    alphaWall uniform 0.36;
    value nonuniform List<scalar> 6
(
  303.987
  303.932
  303.85
  304.014
  303.992
  304.05
)
;
  }
  sideWalls
  {
    type empty;
  }
  glass1
  {
    type wallHeatTransfer;
    Tinf uniform 315.2;
    alphaWall uniform 4.3;
    value nonuniform List<scalar> 9
(
  311.506
  310.868
  310.465
  310.156
  309.899
  309.665
  309.482
  309.547
  309.769
)
;
  }
  glass2
  {
    type wallHeatTransfer;
    Tinf uniform 307.2;
    alphaWall uniform 4.3;
    value nonuniform List<scalar> 2
(
  305.726
  305.831
)
;
  }
  sun
  {
    type wallHeatTransfer;
    Tinf uniform 305.2;
    alphaWall uniform 0.24;
    value nonuniform List<scalar> 14
(
  303.577
  303.327
  303.313
  303.302
  303.293
  303.284
  303.275
  303.265
  303.254
  303.242
  303.231
  303.226
  303.227
  303.237
)
;
  }
  heatsource1
  {
    type fixedGradient;
    gradient uniform 0;
  }
  heatsource2
  {
    type fixedGradient;
    gradient uniform 0;
  }
  Table_master
  {
    type zeroGradient;
  }
  Table_slave
  {
    type zeroGradient;
  }
  inlet
  {
    type fixedValue;
    value uniform 293.15;
  }
  outlet
  {
    type zeroGradient;
  }
} 	// ************************************************************************* //

