/*--------------------------------*- C++ -*----------------------------------*\
  =========                 |
  \\      /  F ield         | OpenFOAM: The Open Source CFD Toolbox
   \\    /   O peration     | Website:  https://openfoam.org
    \\  /    A nd           | Version:  6
     \\/     M anipulation  |
\*---------------------------------------------------------------------------*/
FoamFile
{
    version     2.0;
    format      ascii;
    class       volScalarField;
    location    "1800";
    object      epsilon;
}
// * * * * * * * * * * * * * * * * * * * * * * * * * * * * * * * * * * * * * //

dimensions      [0 2 -3 0 0 0 0];

internalField   nonuniform List<scalar> 
459
(
0.00042805
0.000554827
0.00058693
0.000675073
0.000764271
0.000855324
0.000952717
0.0010522
0.0011259
0.00115489
0.00112298
0.00102437
0.000867325
0.000676358
0.000490854
3.46969e-05
5.86848e-05
8.45845e-05
8.71244e-05
7.96456e-05
6.97459e-05
5.74313e-05
4.64896e-05
3.78485e-05
3.11683e-05
2.59769e-05
2.18975e-05
1.8655e-05
1.60485e-05
1.38869e-05
1.20092e-05
1.02711e-05
9.33967e-06
7.2169e-06
0.00108135
0.00158019
0.000520895
0.000504165
0.000526843
0.000566568
0.000627711
0.00070881
0.00078622
0.000834232
0.000832526
0.00077552
0.000671813
0.00054389
0.000438441
0.000517865
0.000124397
3.92622e-05
9.23229e-05
0.000103504
9.71074e-05
8.47089e-05
7.21874e-05
6.59375e-05
5.3116e-05
4.1744e-05
3.2818e-05
2.60034e-05
2.08211e-05
1.6867e-05
1.38652e-05
1.16589e-05
1.028e-05
9.67685e-06
2.56989e-05
1.72819e-05
0.00196952
0.00388426
0.00063975
0.000477465
0.000498415
0.000559251
0.000652005
0.000769857
0.000878194
0.000942561
0.000945449
0.000888193
0.000782477
0.000654137
0.000535026
0.000476218
0.000566812
0.000258628
0.000205087
0.000164066
0.000131972
0.000106767
9.12853e-05
0.000166661
0.000114886
8.17843e-05
6.0165e-05
4.56399e-05
3.55967e-05
2.84734e-05
2.33383e-05
1.96426e-05
1.49462e-05
1.25408e-05
4.95647e-05
2.78834e-05
0.00318842
0.00808098
0.00100862
0.000479483
0.000483351
0.00056876
0.000708786
0.000884826
0.00102239
0.00108852
0.00107962
0.00100693
0.000881152
0.000734075
0.000604436
0.000519995
0.000500737
0.000905993
0.000523975
0.000322356
0.000219822
0.000160927
0.00012403
0.000106463
0.000242629
0.00018466
0.000149333
0.000125668
0.000107651
9.25767e-05
7.94913e-05
6.71419e-05
5.45216e-05
3.24909e-05
2.12436e-05
8.41884e-05
3.87851e-05
0.00486604
0.0144532
0.00199369
0.000560048
0.000485848
0.000599471
0.00085204
0.00111557
0.00126163
0.00130394
0.00126228
0.00115475
0.000995806
0.000811709
0.000634189
0.000489202
0.000390429
0.000348882
0.00028655
0.000230134
0.000184705
0.000148923
0.00012101
0.000101398
9.71222e-05
9.00723e-05
8.33572e-05
7.68572e-05
7.00677e-05
6.28038e-05
5.55416e-05
4.86433e-05
4.23436e-05
3.39896e-05
2.64186e-05
5.92398e-05
4.57721e-05
7.44156e-05
0.000129954
0.000184153
0.00720216
0.0215249
0.00450054
0.00104544
0.000683132
0.000799569
0.00130724
0.00157224
0.00164896
0.0016215
0.00152465
0.00136625
0.00115376
0.000912128
0.000677972
0.000485953
0.000354537
0.000280958
0.000236437
0.000200762
0.000168084
0.000139405
0.000115957
9.89887e-05
8.99714e-05
8.57914e-05
8.33663e-05
8.07859e-05
7.69384e-05
7.09214e-05
6.23339e-05
5.31924e-05
4.47905e-05
3.73894e-05
3.30102e-05
4.44545e-05
4.74903e-05
5.74002e-05
0.000240725
0.000210858
0.00998306
0.0257796
0.00939379
0.00345755
0.00222224
0.00220649
0.00241148
0.00238483
0.00225329
0.00208458
0.00188576
0.00164163
0.00134812
0.00103032
0.00073052
0.000492656
0.000337618
0.000254158
0.000209633
0.000177632
0.000149294
0.000125266
0.000107055
9.55603e-05
9.09408e-05
9.11598e-05
9.34051e-05
9.60544e-05
9.80778e-05
9.80153e-05
9.29553e-05
8.28492e-05
7.2498e-05
6.38696e-05
6.11565e-05
6.87833e-05
8.59143e-05
0.000130098
0.000318712
0.0003077
0.0106653
0.0287209
0.0156182
0.00995845
0.00708166
0.00547812
0.00434321
0.00358036
0.0030624
0.00267748
0.00233198
0.00196281
0.00155129
0.00113066
0.000749243
0.000464775
0.000296116
0.000213268
0.000172915
0.000145629
0.000123652
0.000107269
9.6979e-05
9.26905e-05
9.37613e-05
9.88711e-05
0.0001068
0.000117212
0.000130304
0.000146172
0.000164137
0.000178673
0.000189024
0.000210167
0.000253387
0.000372099
0.000645717
0.00118879
0.00404899
0.00108613
0.00991225
0.0168735
0.0135372
0.0102257
0.00780487
0.00615571
0.00504228
0.0042826
0.00373541
0.0032712
0.00279067
0.00224751
0.00165418
0.00109737
0.000620717
0.000332829
0.000212345
0.00015867
0.000130264
0.000111229
9.76207e-05
8.91483e-05
8.56069e-05
8.65678e-05
9.14911e-05
9.99233e-05
0.000111871
0.000128054
0.000149877
0.000179415
0.000219475
0.000273754
0.000349157
0.000459386
0.000623348
0.000849951
0.0011201
0.00137709
0.0015779
0.000871643
0.00493518
0.00663701
0.00669307
0.00620372
0.00553202
0.00489048
0.00424891
0.00354233
0.00275964
0.00192221
0.0010547
0.00056116
0.000301122
0.000180642
0.000127579
0.000101206
8.59363e-05
7.62237e-05
7.0353e-05
6.76746e-05
6.78251e-05
7.05068e-05
7.5541e-05
8.3012e-05
9.33474e-05
0.000107376
0.000126407
0.000152402
0.00018837
0.000239244
0.000310501
0.000409987
0.000545137
0.000713315
0.000891405
0.00103738
0.000979593
0.00044254
0.00340781
0.00672674
0.00665538
0.00536112
0.00453258
0.00385513
0.00300055
0.0020971
0.00133376
0.000781868
0.000432706
0.000245043
0.000150589
0.000106008
8.46717e-05
7.34963e-05
6.72259e-05
6.38552e-05
6.2605e-05
6.30965e-05
6.51067e-05
6.85459e-05
7.35369e-05
8.03968e-05
8.95874e-05
0.000101816
0.000118195
0.000140441
0.000171069
0.000213338
0.000271755
0.000351255
0.000453839
0.000572343
0.000687602
0.000837112
0.000461503
0.00047376
0.00216769
0.00253174
0.00282575
0.00313125
0.00233962
0.00181896
0.00160205
0.00139692
0.00113031
0.00085036
0.000593281
0.000395918
0.000263079
0.000181985
0.000135029
0.000107101
8.93094e-05
7.74668e-05
6.97566e-05
6.52983e-05
6.34841e-05
6.38371e-05
6.60501e-05
7.00219e-05
7.58759e-05
8.36919e-05
9.37207e-05
0.000106493
0.000122819
0.00014402
0.000170954
0.000204925
0.000247869
0.000302153
0.00036982
0.000452585
0.000471371
0.000335617
0.00028662
0.000475712
)
;

boundaryField
{
    floor
    {
        Cmu             0.09;
        kappa           0.41;
        E               9.8;
        type            epsilonWallFunction;
        value           nonuniform List<scalar> 
29
(
0.000490854
3.46969e-05
5.86848e-05
8.45845e-05
8.71244e-05
7.96456e-05
6.97459e-05
5.74313e-05
4.64896e-05
3.78485e-05
3.11683e-05
2.59769e-05
2.18975e-05
1.8655e-05
1.60485e-05
1.38869e-05
1.20092e-05
1.02711e-05
9.33967e-06
7.2169e-06
7.2169e-06
1.72819e-05
2.78834e-05
3.87851e-05
0.000490854
3.46969e-05
3.92622e-05
0.000258628
0.000905993
)
;
    }
    ceiling
    {
        Cmu             0.09;
        kappa           0.41;
        E               9.8;
        type            epsilonWallFunction;
        value           nonuniform List<scalar> 
43
(
0.00216769
0.00253174
0.00282575
0.00313125
0.00233962
0.00181896
0.00160205
0.00139692
0.00113031
0.00085036
0.000593281
0.000395918
0.000263079
0.000181985
0.000135029
0.000107101
8.93094e-05
7.74668e-05
6.97566e-05
6.52983e-05
6.34841e-05
6.38371e-05
6.60501e-05
7.00219e-05
7.58759e-05
8.36919e-05
9.37207e-05
0.000106493
0.000122819
0.00014402
0.000170954
0.000204925
0.000247869
0.000302153
0.00036982
0.000452585
0.000471371
0.000335617
0.00028662
0.000475712
0.00991225
0.0168735
0.00340781
)
;
    }
    sWall
    {
        Cmu             0.09;
        kappa           0.41;
        E               9.8;
        type            epsilonWallFunction;
        value           uniform 0.00216769;
    }
    nWall
    {
        Cmu             0.09;
        kappa           0.41;
        E               9.8;
        type            epsilonWallFunction;
        value           nonuniform List<scalar> 6(0.000184153 0.000210858 0.0003077 0.00044254 0.00047376 0.000475712);
    }
    sideWalls
    {
        type            empty;
    }
    glass1
    {
        Cmu             0.09;
        kappa           0.41;
        E               9.8;
        type            epsilonWallFunction;
        value           nonuniform List<scalar> 9(0.00042805 0.00108135 0.00196952 0.00318842 0.00486604 0.00720216 0.00998306 0.0106653 0.00991225);
    }
    glass2
    {
        Cmu             0.09;
        kappa           0.41;
        E               9.8;
        type            epsilonWallFunction;
        value           nonuniform List<scalar> 2(0.00108613 0.000871643);
    }
    sun
    {
        Cmu             0.09;
        kappa           0.41;
        E               9.8;
        type            epsilonWallFunction;
        value           nonuniform List<scalar> 
14
(
0.00042805
0.000554827
0.00058693
0.000675073
0.000764271
0.000855324
0.000952717
0.0010522
0.0011259
0.00115489
0.00112298
0.00102437
0.000867325
0.000676358
)
;
    }
    heatsource1
    {
        Cmu             0.09;
        kappa           0.41;
        E               9.8;
        type            epsilonWallFunction;
        value           nonuniform List<scalar> 3(7.44156e-05 0.000129954 0.000184153);
    }
    heatsource2
    {
        Cmu             0.09;
        kappa           0.41;
        E               9.8;
        type            epsilonWallFunction;
        value           nonuniform List<scalar> 4(0.000517865 0.000124397 0.000124397 0.000566812);
    }
    Table_master
    {
        Cmu             0.09;
        kappa           0.41;
        E               9.8;
        type            epsilonWallFunction;
        value           nonuniform List<scalar> 9(0.000166661 0.000114886 8.17843e-05 6.0165e-05 4.56399e-05 3.55967e-05 2.84734e-05 2.33383e-05 1.96426e-05);
    }
    Table_slave
    {
        Cmu             0.09;
        kappa           0.41;
        E               9.8;
        type            epsilonWallFunction;
        value           nonuniform List<scalar> 9(0.000242629 0.00018466 0.000149333 0.000125668 0.000107651 9.25767e-05 7.94913e-05 6.71419e-05 5.45216e-05);
    }
    inlet
    {
        type            turbulentMixingLengthDissipationRateInlet;
        mixingLength    0.01;
        phi             phi;
        k               k;
        value           uniform 0.000101881;
    }
    outlet
    {
        type            zeroGradient;
    }
}


// ************************************************************************* //
