// -*- C++ -*-
// File generated by PyFoam - sorry for the ugliness

FoamFile
{
 version 2.0;
 format ascii;
 class volVectorField;
 location "900";
 object U;
}

dimensions [ 0 1 -1 0 0 0 0 ];

internalField nonuniform List<vector> 459
(
  (0.0338605 0.0860518 0)
  (-0.167459 0.0255821 0)
  (-0.192414 0.0178082 0)
  (-0.223409 0.0119967 0)
  (-0.245654 0.00559006 0)
  (-0.257995 -0.0012331 0)
  (-0.258677 -0.00853247 0)
  (-0.246552 -0.0163174 0)
  (-0.222309 -0.0237938 0)
  (-0.188063 -0.0295953 0)
  (-0.147738 -0.0326214 0)
  (-0.105862 -0.0323547 0)
  (-0.0667408 -0.0289146 0)
  (-0.0354795 -0.0233878 0)
  (-0.026138 -0.0176825 0)
  (-0.0070219 0.0092859 0)
  (-0.0306098 -0.0162759 0)
  (-0.00973655 -0.0262627 0)
  (0.0143939 -0.0205434 0)
  (0.0295208 -0.0141768 0)
  (0.0423831 -0.00924328 0)
  (0.0506348 -0.00536436 0)
  (0.0549966 -0.00332279 0)
  (0.0569908 -0.00251211 0)
  (0.0579879 -0.00216875 0)
  (0.0586184 -0.0019575 0)
  (0.0589958 -0.00178829 0)
  (0.0590654 -0.00158997 0)
  (0.0586544 -0.00119973 0)
  (0.0572631 -0.000267231 0)
  (0.0538108 0.00169012 0)
  (0.0471186 0.00376148 0)
  (0.0413328 0.0054416 0)
  (-0.0136334 0.0202428 0)
  (0.20832 0.17634 0)
  (-0.156517 0.0677915 0)
  (-0.155267 0.0531594 0)
  (-0.187446 0.0410838 0)
  (-0.209598 0.0273563 0)
  (-0.222291 0.01184 0)
  (-0.223704 -0.00575154 0)
  (-0.212576 -0.0246749 0)
  (-0.190223 -0.0421591 0)
  (-0.159179 -0.0550688 0)
  (-0.123458 -0.0613452 0)
  (-0.0871714 -0.0604921 0)
  (-0.0538482 -0.0531355 0)
  (-0.0267241 -0.0409648 0)
  (-0.00974746 -0.0268756 0)
  (0.00383 -0.00915005 0)
  (0.00205166 0.0156978 0)
  (0.0610917 0.0373527 0)
  (0.0223742 -0.0173479 0)
  (0.0314957 -0.0311782 0)
  (0.0425461 -0.0281018 0)
  (0.0514219 -0.0204448 0)
  (0.0580986 -0.0130048 0)
  (0.0610518 -0.00563192 0)
  (0.0616677 -0.00136175 0)
  (0.0616443 0.000416665 0)
  (0.0617647 0.0011986 0)
  (0.0619783 0.00167634 0)
  (0.0621352 0.00206495 0)
  (0.062198 0.00253189 0)
  (0.062124 0.00336755 0)
  (0.0614326 0.0053989 0)
  (0.0579045 0.0110481 0)
  (0.0488959 0.0157492 0)
  (0.0453465 0.0188775 0)
  (-0.0509421 0.0439512 0)
  (0.368468 0.26392 0)
  (-0.173218 0.107976 0)
  (-0.116652 0.0860531 0)
  (-0.148076 0.0645557 0)
  (-0.167911 0.0419366 0)
  (-0.179813 0.0167086 0)
  (-0.18087 -0.0118949 0)
  (-0.169067 -0.0421657 0)
  (-0.147074 -0.0691468 0)
  (-0.118306 -0.0878242 0)
  (-0.0869372 -0.0956665 0)
  (-0.0563736 -0.0928697 0)
  (-0.0288229 -0.0808786 0)
  (-0.00613246 -0.0620484 0)
  (0.0104264 -0.0383472 0)
  (0.0212073 -0.0121958 0)
  (0.0250472 0.0246149 0)
  (0.110529 -0.023478 0)
  (0.074145 -0.0356945 0)
  (0.068306 -0.0373904 0)
  (0.0695103 -0.0326446 0)
  (0.0706583 -0.0250802 0)
  (0.0719176 -0.0183781 0)
  (0.0706621 -0.0147217 0)
  (0.0658901 -0.0103841 0)
  (0.0623914 -0.00801186 0)
  (0.0607879 -0.00665481 0)
  (0.0600818 -0.00578466 0)
  (0.0596986 -0.00518679 0)
  (0.0596124 -0.00467812 0)
  (0.0602406 -0.0038917 0)
  (0.0626352 -0.000927715 0)
  (0.0606354 0.0153577 0)
  (0.0479398 0.0266223 0)
  (0.0517011 0.0340969 0)
  (-0.0841205 0.0682582 0)
  (0.513143 0.334385 0)
  (-0.207833 0.143586 0)
  (-0.0756035 0.114129 0)
  (-0.105715 0.0846551 0)
  (-0.120214 0.0556018 0)
  (-0.128968 0.0223771 0)
  (-0.126856 -0.0171887 0)
  (-0.111999 -0.0593662 0)
  (-0.0898552 -0.09495 0)
  (-0.0644161 -0.117673 0)
  (-0.039272 -0.125571 0)
  (-0.016519 -0.120357 0)
  (0.00371903 -0.104015 0)
  (0.0202291 -0.0806115 0)
  (0.0343406 -0.0534727 0)
  (0.0494417 -0.0244621 0)
  (0.0705147 0.00756544 0)
  (0.100766 0.0189157 0)
  (0.105377 -0.020509 0)
  (0.0918516 -0.0318873 0)
  (0.0828406 -0.0318053 0)
  (0.0774963 -0.0281513 0)
  (0.0733173 -0.0224147 0)
  (0.0703284 -0.014973 0)
  (0.0711052 -0.00899322 0)
  (0.0756628 -0.00666639 0)
  (0.0795085 -0.00539864 0)
  (0.0819587 -0.00453408 0)
  (0.0834158 -0.00359476 0)
  (0.0834856 -0.00227499 0)
  (0.0810929 -0.00030909 0)
  (0.0749683 0.00261686 0)
  (0.0626232 0.00701565 0)
  (0.050726 0.0256986 0)
  (0.038633 0.041451 0)
  (0.0559823 0.0538009 0)
  (-0.119926 0.0896608 0)
  (0.638513 0.388951 0)
  (-0.250335 0.172618 0)
  (-0.0347097 0.130391 0)
  (-0.0613036 0.0962225 0)
  (-0.0678765 0.0635597 0)
  (-0.0705996 0.0248455 0)
  (-0.0591549 -0.0249563 0)
  (-0.0393945 -0.0778136 0)
  (-0.0186954 -0.118179 0)
  (0.000538519 -0.141128 0)
  (0.0163641 -0.14612 0)
  (0.0284966 -0.137219 0)
  (0.0379678 -0.118412 0)
  (0.0456599 -0.0933628 0)
  (0.0528413 -0.0656502 0)
  (0.0614369 -0.0390409 0)
  (0.0741267 -0.0197938 0)
  (0.084551 -0.0194725 0)
  (0.0854777 -0.0272741 0)
  (0.0791189 -0.028332 0)
  (0.0708359 -0.0257547 0)
  (0.0638046 -0.0221671 0)
  (0.0582809 -0.0177852 0)
  (0.0546621 -0.012505 0)
  (0.0538844 -0.00666828 0)
  (0.0556838 -0.00382467 0)
  (0.057903 -0.00285852 0)
  (0.0600676 -0.00220992 0)
  (0.062144 -0.000838571 0)
  (0.0638442 0.00188238 0)
  (0.0639779 0.00612345 0)
  (0.0618839 0.0120797 0)
  (0.0569191 0.0203299 0)
  (0.0505109 0.0349909 0)
  (0.0405661 0.0524212 0)
  (0.0642273 0.0721352 0)
  (-0.0245848 0.101207 0)
  (0.0463978 0.0305003 0)
  (-0.0619863 -0.0341263 0)
  (-0.272666 -0.0568694 0)
  (0.729837 0.43441 0)
  (-0.291935 0.192104 0)
  (-0.00332769 0.126994 0)
  (-0.0158637 0.0975656 0)
  (-0.0119119 0.0660547 0)
  (-0.00554299 0.0209438 0)
  (0.0250216 -0.0433584 0)
  (0.0466182 -0.0983928 0)
  (0.0617839 -0.135289 0)
  (0.0707239 -0.153229 0)
  (0.0741975 -0.154357 0)
  (0.0736984 -0.142435 0)
  (0.0707408 -0.121544 0)
  (0.0668839 -0.0957128 0)
  (0.0635913 -0.0685937 0)
  (0.0622274 -0.0438446 0)
  (0.0635883 -0.0256643 0)
  (0.0644577 -0.0187355 0)
  (0.0612113 -0.0185801 0)
  (0.0542439 -0.0189126 0)
  (0.0462443 -0.0177218 0)
  (0.0393559 -0.01563 0)
  (0.0341356 -0.0129822 0)
  (0.0309176 -0.00985919 0)
  (0.0300274 -0.00687984 0)
  (0.0311703 -0.00574201 0)
  (0.0333269 -0.00571907 0)
  (0.0360683 -0.00558808 0)
  (0.039249 -0.00434465 0)
  (0.0426565 -0.0010811 0)
  (0.0460378 0.00468112 0)
  (0.0481014 0.0126839 0)
  (0.0490017 0.0229678 0)
  (0.0500714 0.0368891 0)
  (0.0493494 0.054049 0)
  (0.0729433 0.0765984 0)
  (0.0520833 0.0944989 0)
  (0.0935527 0.0665099 0)
  (0.116273 0.0440617 0)
  (-0.128734 -0.00677637 0)
  (0.782288 0.475716 0)
  (-0.312894 0.177436 0)
  (0.0238277 0.0772416 0)
  (0.0433448 0.0732961 0)
  (0.0589717 0.0503851 0)
  (0.0887849 -0.00370507 0)
  (0.121998 -0.0676645 0)
  (0.140367 -0.11535 0)
  (0.145902 -0.143424 0)
  (0.141305 -0.153613 0)
  (0.129399 -0.149028 0)
  (0.113134 -0.133518 0)
  (0.0951056 -0.111059 0)
  (0.0775784 -0.0855308 0)
  (0.062196 -0.0600656 0)
  (0.050153 -0.0377927 0)
  (0.04183 -0.021726 0)
  (0.0356047 -0.0138179 0)
  (0.0292557 -0.0117017 0)
  (0.022252 -0.0114804 0)
  (0.0154836 -0.0110164 0)
  (0.00986583 -0.0101854 0)
  (0.0057477 -0.00915639 0)
  (0.00335793 -0.00802867 0)
  (0.00283547 -0.00724027 0)
  (0.00386179 -0.00748828 0)
  (0.00580411 -0.00831746 0)
  (0.00838615 -0.00888606 0)
  (0.0116477 -0.00834386 0)
  (0.015748 -0.00570563 0)
  (0.0215339 0.000132784 0)
  (0.0281049 0.00888376 0)
  (0.0343966 0.0192752 0)
  (0.0421654 0.0315727 0)
  (0.0506975 0.0455566 0)
  (0.0737467 0.0636826 0)
  (0.0876062 0.0716363 0)
  (0.119755 0.0507252 0)
  (0.158927 0.0431922 0)
  (-0.035153 0.0926257 0)
  (0.887153 0.478179 0)
  (-0.0698163 0.156984 0)
  (0.106797 0.00339647 0)
  (0.170528 -0.0188367 0)
  (0.186531 -0.0391486 0)
  (0.222141 -0.0732138 0)
  (0.242662 -0.105381 0)
  (0.2438 -0.127779 0)
  (0.228579 -0.138116 0)
  (0.202007 -0.136828 0)
  (0.169022 -0.125818 0)
  (0.133818 -0.107753 0)
  (0.0994471 -0.0854925 0)
  (0.0684155 -0.062242 0)
  (0.0421003 -0.0402927 0)
  (0.0218572 -0.0223272 0)
  (0.0080376 -0.0106853 0)
  (-0.00085609 -0.00559931 0)
  (-0.0071794 -0.00475801 0)
  (-0.0125868 -0.00527027 0)
  (-0.017334 -0.00580208 0)
  (-0.0212103 -0.00619517 0)
  (-0.0240973 -0.00654747 0)
  (-0.025897 -0.00697352 0)
  (-0.0266247 -0.00770021 0)
  (-0.0265759 -0.00891351 0)
  (-0.0261422 -0.0103707 0)
  (-0.0254714 -0.0116366 0)
  (-0.0244346 -0.0122265 0)
  (-0.0226531 -0.0115764 0)
  (-0.0192514 -0.00897554 0)
  (-0.0115281 -0.00364054 0)
  (-0.000909019 0.0040641 0)
  (0.0104675 0.0121467 0)
  (0.0231623 0.0185324 0)
  (0.0441733 0.0252686 0)
  (0.0640479 0.0196416 0)
  (0.0831814 -0.00208697 0)
  (0.140718 0.0483079 0)
  (-0.433382 0.205106 0)
  (1.03255 0.430139 0)
  (0.497198 0.285101 0)
  (0.503648 0.190855 0)
  (0.513122 0.118368 0)
  (0.488722 0.06577 0)
  (0.444565 0.0117163 0)
  (0.393523 -0.0361805 0)
  (0.339072 -0.0692412 0)
  (0.280904 -0.0855088 0)
  (0.221553 -0.0873792 0)
  (0.164453 -0.0790292 0)
  (0.11223 -0.0643739 0)
  (0.0660243 -0.0464043 0)
  (0.0276705 -0.0283878 0)
  (-0.00344583 -0.0123839 0)
  (-0.0233374 -0.00301471 0)
  (-0.0338168 0.000396613 0)
  (-0.0395302 0.000794532 0)
  (-0.0432131 -0.000158425 0)
  (-0.0463284 -0.00141223 0)
  (-0.0493331 -0.00256402 0)
  (-0.0520948 -0.00364892 0)
  (-0.0545757 -0.00472831 0)
  (-0.0567537 -0.00585524 0)
  (-0.0587394 -0.00709921 0)
  (-0.0608188 -0.00846588 0)
  (-0.0633375 -0.00976976 0)
  (-0.0665942 -0.0106667 0)
  (-0.0708964 -0.0106719 0)
  (-0.0766472 -0.00914455 0)
  (-0.0843457 -0.00531911 0)
  (-0.094392 0.00153401 0)
  (-0.105032 0.0110972 0)
  (-0.118777 0.0232912 0)
  (-0.14053 0.0381567 0)
  (-0.172453 0.055108 0)
  (-0.21844 0.0711713 0)
  (-0.274767 0.0841831 0)
  (-0.350713 0.0924823 0)
  (-0.617427 0.0895343 0)
  (-0.1454 0.0816332 0)
  (0.133695 0.0586072 0)
  (0.215601 0.00165161 0)
  (0.198962 -0.0320191 0)
  (0.182592 -0.0449952 0)
  (0.159251 -0.0482606 0)
  (0.126048 -0.0455393 0)
  (0.0870984 -0.0383456 0)
  (0.0472849 -0.0280075 0)
  (0.0090176 -0.0151076 0)
  (-0.0270585 -0.00194833 0)
  (-0.0496376 0.00513674 0)
  (-0.06302 0.00818671 0)
  (-0.0691448 0.00835882 0)
  (-0.0722485 0.00756953 0)
  (-0.0742547 0.00663534 0)
  (-0.0760017 0.00577422 0)
  (-0.0778241 0.00508847 0)
  (-0.0797127 0.00447817 0)
  (-0.0818221 0.00379764 0)
  (-0.0842102 0.00290505 0)
  (-0.0868548 0.00186443 0)
  (-0.0898223 0.000781135 0)
  (-0.0932355 -0.000191906 0)
  (-0.097188 -0.000814853 0)
  (-0.101691 -0.0007738 0)
  (-0.106675 0.000279661 0)
  (-0.111969 0.0027015 0)
  (-0.117104 0.0068961 0)
  (-0.12117 0.0134716 0)
  (-0.124582 0.0235288 0)
  (-0.127292 0.037572 0)
  (-0.129794 0.0551589 0)
  (-0.131866 0.0739513 0)
  (-0.130296 0.0870276 0)
  (-0.112595 0.080078 0)
  (-0.0712019 0.025807 0)
  (-0.198233 -0.176697 0)
  (-0.0203864 0.23005 0)
  (0.0628153 0.0973866 0)
  (0.0354107 0.0169041 0)
  (0.0232078 -0.00597953 0)
  (0.0120718 -0.0103862 0)
  (-0.00822375 -0.0104244 0)
  (-0.0335309 -0.00748642 0)
  (-0.0588107 -0.00288195 0)
  (-0.0795989 0.0015675 0)
  (-0.0933539 0.00437097 0)
  (-0.0992654 0.00430273 0)
  (-0.101242 0.00201159 0)
  (-0.101104 -0.000937795 0)
  (-0.100123 -0.00425588 0)
  (-0.0993293 -0.00760061 0)
  (-0.0990432 -0.0108226 0)
  (-0.0993084 -0.0138266 0)
  (-0.100029 -0.0164321 0)
  (-0.101055 -0.0184698 0)
  (-0.102281 -0.0198595 0)
  (-0.103659 -0.0205897 0)
  (-0.105265 -0.0207739 0)
  (-0.107103 -0.0204483 0)
  (-0.109157 -0.0196765 0)
  (-0.111374 -0.0185433 0)
  (-0.113587 -0.0168624 0)
  (-0.115489 -0.0143007 0)
  (-0.116638 -0.0103403 0)
  (-0.116561 -0.00476777 0)
  (-0.114428 0.00283005 0)
  (-0.108946 0.0131487 0)
  (-0.0988055 0.0268221 0)
  (-0.0834365 0.0436279 0)
  (-0.0632439 0.0604191 0)
  (-0.039729 0.0692274 0)
  (0.0295806 0.0368157 0)
  (0.147189 -0.0417236 0)
  (-0.0494435 -0.0652985 0)
  (-0.103414 -0.34877 0)
  (-0.439576 -0.120734 0)
  (-0.311004 0.0946759 0)
  (-0.228718 -0.0203204 0)
  (-0.182955 -0.0402428 0)
  (-0.169465 -0.0277359 0)
  (-0.167255 -0.0149019 0)
  (-0.168292 -0.00487654 0)
  (-0.168075 0.00328752 0)
  (-0.165358 0.0106064 0)
  (-0.160115 0.0173611 0)
  (-0.152623 0.0234656 0)
  (-0.143871 0.0286714 0)
  (-0.135257 0.0331193 0)
  (-0.127525 0.0373299 0)
  (-0.120988 0.0415256 0)
  (-0.115612 0.0457958 0)
  (-0.111211 0.0499641 0)
  (-0.107647 0.0536981 0)
  (-0.10483 0.0566526 0)
  (-0.102695 0.0585839 0)
  (-0.10119 0.0593973 0)
  (-0.100265 0.0591197 0)
  (-0.0998852 0.0578869 0)
  (-0.100017 0.0558151 0)
  (-0.100594 0.0531404 0)
  (-0.101478 0.0502294 0)
  (-0.10246 0.0471973 0)
  (-0.103183 0.0441257 0)
  (-0.103068 0.0410755 0)
  (-0.101047 0.0387861 0)
  (-0.0955197 0.0378973 0)
  (-0.0843183 0.0390743 0)
  (-0.0655459 0.043072 0)
  (-0.0393174 0.0503654 0)
  (-0.00420249 0.0599508 0)
  (0.0331275 0.05622 0)
  (0.0902978 0.0195189 0)
  (0.118565 -0.0186235 0)
  (-0.504688 0.0599624 0)
)
;

boundaryField
{
  floor
  {
    type noSlip;
  }
  ceiling
  {
    type noSlip;
  }
  sWall
  {
    type noSlip;
  }
  nWall
  {
    type noSlip;
  }
  sideWalls
  {
    type empty;
  }
  glass1
  {
    type noSlip;
  }
  glass2
  {
    type noSlip;
  }
  sun
  {
    type noSlip;
  }
  heatsource1
  {
    type noSlip;
  }
  heatsource2
  {
    type noSlip;
  }
  Table_master
  {
    type noSlip;
  }
  Table_slave
  {
    type noSlip;
  }
  inlet
  {
    type fixedValue;
    value uniform (0.3 0 0);
  }
  outlet
  {
    type zeroGradient;
  }
} 	// ************************************************************************* //

