// -*- C++ -*-
// File generated by PyFoam - sorry for the ugliness

FoamFile
{
 version 2.0;
 format ascii;
 class volScalarField;
 location "900";
 object T;
}

dimensions [ 0 0 0 1 0 0 0 ];

internalField nonuniform List<scalar> 459
(
  303.384
  303.117
  303.105
  303.102
  303.098
  303.095
  303.09
  303.086
  303.078
  303.067
  303.055
  303.042
  303.032
  303.027
  303.028
  303.094
  303.075
  303.068
  303.068
  303.07
  303.072
  303.075
  303.077
  303.08
  303.082
  303.084
  303.086
  303.089
  303.091
  303.093
  303.094
  303.097
  303.099
  303.116
  303.567
  303.159
  303.138
  303.141
  303.145
  303.147
  303.146
  303.142
  303.13
  303.108
  303.08
  303.053
  303.032
  303.018
  303.011
  303.006
  302.994
  303.096
  303.064
  303.057
  303.056
  303.058
  303.059
  303.059
  303.059
  303.059
  303.058
  303.058
  303.057
  303.056
  303.056
  303.057
  303.058
  303.062
  303.068
  303.098
  303.758
  303.21
  303.174
  303.186
  303.202
  303.215
  303.222
  303.221
  303.203
  303.166
  303.118
  303.071
  303.036
  303.016
  303.008
  303.006
  303.004
  303.052
  303.048
  303.05
  303.055
  303.061
  303.065
  303.063
  303.062
  303.06
  303.058
  303.057
  303.055
  303.053
  303.052
  303.051
  303.051
  303.053
  303.058
  303.09
  303.95
  303.271
  303.209
  303.229
  303.259
  303.289
  303.311
  303.317
  303.292
  303.233
  303.157
  303.087
  303.038
  303.012
  303.005
  303.006
  303.01
  303.019
  303.027
  303.04
  303.053
  303.065
  303.075
  303.083
  303.089
  303.093
  303.098
  303.101
  303.104
  303.105
  303.106
  303.106
  303.105
  303.086
  303.07
  303.062
  303.088
  304.135
  303.348
  303.246
  303.262
  303.303
  303.35
  303.395
  303.411
  303.373
  303.288
  303.184
  303.092
  303.034
  303.006
  303
  303.006
  303.016
  303.029
  303.043
  303.06
  303.076
  303.091
  303.104
  303.113
  303.121
  303.127
  303.132
  303.135
  303.137
  303.136
  303.134
  303.129
  303.122
  303.107
  303.087
  303.071
  303.083
  303.148
  303.188
  303.196
  304.301
  303.447
  303.306
  303.296
  303.332
  303.385
  303.458
  303.477
  303.418
  303.308
  303.186
  303.084
  303.019
  302.992
  302.992
  303.008
  303.028
  303.049
  303.07
  303.09
  303.109
  303.125
  303.138
  303.147
  303.154
  303.159
  303.163
  303.165
  303.165
  303.162
  303.156
  303.148
  303.137
  303.122
  303.102
  303.083
  303.082
  303.109
  303.124
  303.158
  304.447
  303.606
  303.455
  303.409
  303.418
  303.458
  303.522
  303.512
  303.421
  303.283
  303.144
  303.04
  302.983
  302.969
  302.986
  303.017
  303.05
  303.081
  303.108
  303.13
  303.148
  303.162
  303.173
  303.18
  303.185
  303.189
  303.191
  303.191
  303.189
  303.185
  303.176
  303.165
  303.152
  303.137
  303.118
  303.099
  303.091
  303.098
  303.107
  303.136
  304.665
  304.034
  303.861
  303.742
  303.68
  303.674
  303.641
  303.528
  303.355
  303.175
  303.032
  302.949
  302.925
  302.946
  302.991
  303.044
  303.091
  303.128
  303.155
  303.173
  303.187
  303.197
  303.204
  303.209
  303.212
  303.214
  303.215
  303.214
  303.211
  303.206
  303.198
  303.185
  303.173
  303.159
  303.145
  303.131
  303.128
  303.141
  303.162
  303.295
  304.973
  304.682
  304.414
  304.181
  304.003
  303.854
  303.624
  303.335
  303.073
  302.897
  302.818
  302.818
  302.871
  302.951
  303.031
  303.107
  303.152
  303.179
  303.197
  303.209
  303.219
  303.225
  303.23
  303.233
  303.235
  303.236
  303.236
  303.235
  303.234
  303.232
  303.231
  303.233
  303.236
  303.246
  303.263
  303.289
  303.324
  303.358
  303.381
  303.437
  297.274
  299.65
  300.912
  301.34
  301.582
  301.825
  302.074
  302.326
  302.556
  302.75
  302.916
  303.057
  303.135
  303.18
  303.205
  303.22
  303.23
  303.238
  303.244
  303.249
  303.252
  303.255
  303.257
  303.259
  303.261
  303.262
  303.264
  303.266
  303.269
  303.273
  303.279
  303.289
  303.304
  303.325
  303.35
  303.374
  303.391
  303.408
  297.723
  299.73
  300.621
  301.169
  301.588
  301.964
  302.3
  302.624
  302.854
  303.01
  303.113
  303.175
  303.209
  303.229
  303.241
  303.249
  303.256
  303.26
  303.264
  303.267
  303.27
  303.273
  303.275
  303.278
  303.28
  303.282
  303.285
  303.287
  303.29
  303.293
  303.298
  303.306
  303.316
  303.331
  303.347
  303.365
  303.361
  303.39
  299.526
  299.458
  299.454
  301.107
  301.898
  302.347
  302.637
  302.826
  302.969
  303.075
  303.144
  303.189
  303.219
  303.237
  303.248
  303.255
  303.26
  303.264
  303.268
  303.271
  303.273
  303.276
  303.279
  303.281
  303.284
  303.286
  303.288
  303.291
  303.293
  303.295
  303.298
  303.301
  303.304
  303.309
  303.315
  303.326
  303.336
  303.341
  303.343
  303.38
)
;

boundaryField
{
  floor
  {
    type wallHeatTransfer;
    Tinf uniform 305.2;
    alphaWall uniform 0.24;
    value nonuniform List<scalar> 29
(
  303.25
  303.512
  303.45
  303.417
  303.42
  303.431
  303.446
  303.463
  303.482
  303.501
  303.52
  303.537
  303.554
  303.57
  303.585
  303.601
  303.616
  303.633
  303.643
  303.681
  303.681
  303.57
  303.517
  303.485
  303.25
  303.512
  303.497
  303.309
  303.218
)
;
  }
  ceiling
  {
    type wallHeatTransfer;
    Tinf uniform 303.2;
    alphaWall uniform 0.24;
    value nonuniform List<scalar> 43
(
  299.776
  299.703
  299.691
  301.236
  301.986
  302.41
  302.681
  302.857
  302.99
  303.087
  303.15
  303.191
  303.216
  303.231
  303.24
  303.245
  303.249
  303.253
  303.255
  303.258
  303.261
  303.263
  303.265
  303.268
  303.27
  303.273
  303.275
  303.278
  303.28
  303.283
  303.285
  303.288
  303.292
  303.296
  303.303
  303.313
  303.322
  303.327
  303.327
  303.36
  304.891
  304.623
  298.051
)
;
  }
  sWall
  {
    type wallHeatTransfer;
    Tinf uniform 315.2;
    alphaWall uniform 0.36;
    value uniform 301.079;
  }
  nWall
  {
    type wallHeatTransfer;
    Tinf uniform 307.2;
    alphaWall uniform 0.36;
    value nonuniform List<scalar> 6
(
  303.936
  303.883
  303.806
  303.955
  303.934
  303.99
)
;
  }
  sideWalls
  {
    type empty;
  }
  glass1
  {
    type wallHeatTransfer;
    Tinf uniform 315.2;
    alphaWall uniform 4.3;
    value nonuniform List<scalar> 9
(
  311.589
  310.938
  310.525
  310.206
  309.94
  309.699
  309.506
  309.566
  309.784
)
;
  }
  glass2
  {
    type wallHeatTransfer;
    Tinf uniform 307.2;
    alphaWall uniform 4.3;
    value nonuniform List<scalar> 2
(
  305.705
  305.81
)
;
  }
  sun
  {
    type wallHeatTransfer;
    Tinf uniform 305.2;
    alphaWall uniform 0.24;
    value nonuniform List<scalar> 14
(
  303.584
  303.333
  303.32
  303.31
  303.3
  303.292
  303.283
  303.274
  303.263
  303.252
  303.241
  303.233
  303.231
  303.237
)
;
  }
  heatsource1
  {
    type fixedGradient;
    gradient uniform 0;
  }
  heatsource2
  {
    type fixedGradient;
    gradient uniform 0;
  }
  Table_master
  {
    type zeroGradient;
  }
  Table_slave
  {
    type zeroGradient;
  }
  inlet
  {
    type fixedValue;
    value uniform 293.15;
  }
  outlet
  {
    type zeroGradient;
  }
} 	// ************************************************************************* //

