/*--------------------------------*- C++ -*----------------------------------*\
  =========                 |
  \\      /  F ield         | OpenFOAM: The Open Source CFD Toolbox
   \\    /   O peration     | Website:  https://openfoam.org
    \\  /    A nd           | Version:  6
     \\/     M anipulation  |
\*---------------------------------------------------------------------------*/
FoamFile
{
    version     2.0;
    format      ascii;
    class       volScalarField;
    location    "1300";
    object      nut;
}
// * * * * * * * * * * * * * * * * * * * * * * * * * * * * * * * * * * * * * //

dimensions      [0 2 -1 0 0 0 0];

internalField   nonuniform List<scalar> 
459
(
0.00106479
0.00116087
0.0011829
0.00123936
0.00129169
0.00134107
0.00139016
0.00143699
0.00146986
0.00148249
0.00146887
0.00142477
0.00134813
0.00124111
0.00111543
0.00046436
0.000554372
0.000626586
0.000632961
0.000615162
0.0005893
0.000553136
0.000516211
0.00048261
0.000452852
0.000426571
0.000403285
0.0003826
0.000364111
0.000347144
0.000330854
0.000314087
0.000303656
0.000277985
0.00144999
0.0034363
0.00325314
0.00377392
0.00428418
0.00479581
0.00524019
0.00558632
0.00590764
0.00617453
0.00635053
0.00639831
0.00627282
0.005867
0.00472951
0.00113568
0.000706669
0.000484118
0.00102061
0.00143185
0.00174398
0.0019293
0.00193966
0.00153197
0.00131581
0.00116265
0.00104582
0.000953534
0.000878775
0.000815354
0.000756263
0.000698979
0.000648146
0.000603448
0.000716771
0.000369679
0.00177069
0.00466094
0.00396734
0.00494268
0.00539069
0.00571668
0.00597162
0.00619644
0.00645677
0.0067384
0.00700838
0.00721675
0.0073182
0.00723675
0.00675116
0.00518035
0.00117084
0.0009095
0.00132689
0.00173218
0.00212657
0.00242071
0.00239286
0.000786415
0.000695559
0.000621739
0.000561809
0.000512828
0.000472437
0.000438891
0.000411061
0.000388456
0.000419573
0.000484298
0.000810114
0.00043182
0.00207917
0.00596377
0.00391614
0.00516188
0.00550075
0.00558341
0.00565312
0.00578119
0.00599957
0.00629263
0.00662913
0.00693789
0.00716981
0.0072595
0.00715808
0.0065999
0.00442245
0.00136999
0.00164299
0.00209905
0.00260071
0.00304946
0.00336036
0.00320285
0.000890265
0.000814658
0.000760826
0.00071989
0.000684889
0.000652081
0.000620448
0.000587039
0.000548086
0.000514193
0.000519453
0.000941019
0.000481035
0.00239396
0.00766544
0.00423368
0.00492243
0.00538951
0.00534395
0.00530042
0.005397
0.00560123
0.00590071
0.00627258
0.0066122
0.00684926
0.00694015
0.0068867
0.00666484
0.00610139
0.00517275
0.00485913
0.00481242
0.00486431
0.00492473
0.0049349
0.00478207
0.00406676
0.00371992
0.00351902
0.00336302
0.00319718
0.00295946
0.0026298
0.00222465
0.00177267
0.00132305
0.000976698
0.000963642
0.000654552
0.000594159
0.000716364
0.00080453
0.00272848
0.0095337
0.00582627
0.00476015
0.00521239
0.00536309
0.00522117
0.00531077
0.00547976
0.00575734
0.00611955
0.00647378
0.00670931
0.00676035
0.00664292
0.00644315
0.00625655
0.0061414
0.00615781
0.00619222
0.00617142
0.00608561
0.00593801
0.00571711
0.00538374
0.00508464
0.00482041
0.00456806
0.0043126
0.00403926
0.00369203
0.00325463
0.00272639
0.00213991
0.00161335
0.00118776
0.000909384
0.000776171
0.00110369
0.000841374
0.00304261
0.0108842
0.00835782
0.00604839
0.00565205
0.00568564
0.00554397
0.00546334
0.00554468
0.00580912
0.00619145
0.00656379
0.00678822
0.00678935
0.00660326
0.00638529
0.0063389
0.00652456
0.00675144
0.00682854
0.00672789
0.00649867
0.00618552
0.00582067
0.00543728
0.00508872
0.0047776
0.00449291
0.00423165
0.00399837
0.00379241
0.00351128
0.00310623
0.00260474
0.00211507
0.00166316
0.00134342
0.00125001
0.00127914
0.000963933
0.00311062
0.00987756
0.008571
0.00759708
0.00700411
0.00634193
0.00578718
0.00555464
0.00565964
0.00601744
0.0064797
0.00687153
0.00704095
0.00693824
0.00665944
0.00644928
0.00654294
0.00684568
0.00697416
0.00683579
0.00650575
0.00606006
0.00556576
0.00508634
0.00467059
0.00433276
0.00405655
0.0038285
0.0036473
0.00351886
0.00345073
0.0034209
0.00322671
0.00290954
0.00262516
0.00248268
0.00259401
0.00300094
0.00366819
0.00149558
0.00303583
0.00362508
0.00409439
0.00424183
0.00425409
0.00435378
0.00464006
0.00514018
0.00580946
0.00651588
0.00709262
0.00739443
0.00732649
0.00695656
0.00656335
0.00649565
0.00656573
0.00656708
0.00636283
0.00595578
0.00542338
0.00485308
0.00432629
0.00389371
0.00356283
0.00331111
0.00311144
0.0029461
0.00280443
0.0026778
0.00255819
0.00244473
0.0023545
0.00228764
0.00226211
0.00227034
0.00225241
0.00215523
0.00200993
0.00139898
0.00182671
0.00325823
0.00451374
0.00556151
0.00641473
0.00718205
0.00777999
0.0080815
0.00804394
0.00768396
0.00705717
0.00635699
0.00593373
0.00577994
0.00560781
0.00529011
0.00483493
0.00431107
0.00378877
0.00333162
0.00297764
0.00272127
0.00253865
0.00240629
0.00230854
0.00223686
0.00218685
0.00215663
0.00214857
0.00216403
0.00218913
0.00222026
0.00224931
0.00225118
0.00218597
0.00204195
0.00183253
0.00114813
0.00212453
0.0045704
0.00625612
0.00705268
0.00759058
0.00796362
0.00793017
0.00742744
0.00666091
0.00584211
0.00515738
0.00466397
0.0043337
0.0040354
0.00367687
0.00327618
0.00288418
0.0025475
0.00228983
0.00210849
0.00198261
0.0018967
0.00184509
0.00182128
0.00182036
0.00183902
0.00187414
0.00192142
0.00198658
0.00206656
0.00215858
0.00225587
0.00234273
0.0024009
0.00238247
0.0023976
0.00236882
0.00116736
0.00197022
0.00196484
0.00200114
0.00207383
0.00187891
0.00172513
0.0016523
0.00157804
0.00147003
0.00133649
0.00118453
0.00103411
0.000901344
0.000796313
0.000720467
0.000667061
0.00062881
0.000601581
0.000583706
0.000574371
0.000572579
0.000577133
0.000587006
0.000601709
0.000620251
0.000642396
0.000668271
0.00069819
0.000732756
0.000773087
0.000818497
0.000869178
0.000925752
0.000988795
0.00105811
0.00114178
0.00116789
0.00113798
0.00106605
0.000989454
)
;

boundaryField
{
    floor
    {
        type            nutkWallFunction;
        Cmu             0.09;
        kappa           0.41;
        E               9.8;
        value           nonuniform List<scalar> 
29
(
0.000134219
5.5134e-05
6.66151e-05
7.56595e-05
7.64515e-05
7.42375e-05
7.10064e-05
6.64591e-05
6.17783e-05
5.74826e-05
5.36472e-05
5.02334e-05
4.71865e-05
4.44611e-05
4.20091e-05
3.97446e-05
3.75572e-05
3.52908e-05
3.38729e-05
3.03553e-05
3.03552e-05
4.27486e-05
5.09166e-05
5.72796e-05
0.000134219
5.5134e-05
5.7676e-05
0.000110017
0.00016345
)
;
    }
    ceiling
    {
        type            nutkWallFunction;
        Cmu             0.09;
        kappa           0.41;
        E               9.8;
        value           nonuniform List<scalar> 
43
(
0.000230104
0.000229434
0.000233385
0.000241372
0.000220154
0.000203228
0.000195156
0.000186882
0.000174764
0.00015964
0.000142223
0.00012473
0.000109047
9.64498e-05
8.72322e-05
8.06726e-05
7.5936e-05
7.25431e-05
7.03057e-05
6.91338e-05
6.89086e-05
6.94808e-05
7.07192e-05
7.2559e-05
7.48713e-05
7.76222e-05
8.08218e-05
8.45031e-05
8.8733e-05
9.36385e-05
9.9126e-05
0.000105208
0.000111949
0.000119406
0.000127541
0.000137281
0.000140303
0.000136841
0.000128469
0.000119484
0.00034386
0.000404769
0.000246662
)
;
    }
    sWall
    {
        type            nutkWallFunction;
        Cmu             0.09;
        kappa           0.41;
        E               9.8;
        value           uniform 0.000230164;
    }
    nWall
    {
        type            nutkWallFunction;
        Cmu             0.09;
        kappa           0.41;
        E               9.8;
        value           nonuniform List<scalar> 6(9.74428e-05 0.000101878 0.000116476 0.000138027 0.000140252 0.00011949);
    }
    sideWalls
    {
        type            empty;
    }
    glass1
    {
        type            nutkWallFunction;
        Cmu             0.09;
        kappa           0.41;
        E               9.8;
        value           nonuniform List<scalar> 9(0.00012842 0.000172723 0.000208588 0.000242417 0.000276386 0.000311969 0.00034497 0.000352076 0.000344287);
    }
    glass2
    {
        type            nutkWallFunction;
        Cmu             0.09;
        kappa           0.41;
        E               9.8;
        value           nonuniform List<scalar> 2(0.00017772 0.00016681);
    }
    sun
    {
        type            nutkWallFunction;
        Cmu             0.09;
        kappa           0.41;
        E               9.8;
        value           nonuniform List<scalar> 
14
(
0.000128323
0.000139489
0.000142035
0.000148535
0.000154531
0.000160163
0.000165739
0.000171038
0.000174747
0.000176169
0.000174635
0.000169656
0.000160965
0.000148734
)
;
    }
    heatsource1
    {
        type            nutkWallFunction;
        Cmu             0.09;
        kappa           0.41;
        E               9.8;
        value           nonuniform List<scalar> 3(7.16166e-05 8.67305e-05 9.7442e-05);
    }
    heatsource2
    {
        type            nutkWallFunction;
        Cmu             0.09;
        kappa           0.41;
        E               9.8;
        value           nonuniform List<scalar> 4(0.000136567 8.55445e-05 8.55445e-05 0.000140636);
    }
    Table_master
    {
        type            nutkWallFunction;
        Cmu             0.09;
        kappa           0.41;
        E               9.8;
        value           nonuniform List<scalar> 9(9.52529e-05 8.41814e-05 7.50589e-05 6.75566e-05 6.13521e-05 5.61809e-05 5.1844e-05 4.82145e-05 4.52436e-05);
    }
    Table_slave
    {
        type            nutkWallFunction;
        Cmu             0.09;
        kappa           0.41;
        E               9.8;
        value           nonuniform List<scalar> 9(0.000107725 9.8663e-05 9.21507e-05 8.71622e-05 8.287e-05 7.8823e-05 7.48977e-05 7.07256e-05 6.58244e-05);
    }
    inlet
    {
        type            calculated;
        value           uniform 0.000100623;
    }
    outlet
    {
        type            calculated;
        value           nonuniform List<scalar> 2(0.00197022 0.00196484);
    }
}


// ************************************************************************* //
