// -*- C++ -*-
// File generated by PyFoam - sorry for the ugliness

FoamFile
{
 version 2.0;
 format ascii;
 class volVectorField;
 location "800";
 object U;
}

dimensions [ 0 1 -1 0 0 0 0 ];

internalField nonuniform List<vector> 459
(
  (0.0323297 0.0864785 0)
  (-0.168437 0.0260053 0)
  (-0.194132 0.0177405 0)
  (-0.225097 0.0115986 0)
  (-0.246782 0.00484863 0)
  (-0.257909 -0.0023395 0)
  (-0.256601 -0.00999807 0)
  (-0.242099 -0.0180856 0)
  (-0.215345 -0.0255844 0)
  (-0.178975 -0.0310797 0)
  (-0.137314 -0.0334968 0)
  (-0.095148 -0.03235 0)
  (-0.0569019 -0.0275943 0)
  (-0.0275095 -0.0200479 0)
  (-0.0222247 -0.0116271 0)
  (-0.00846364 0.00970373 0)
  (-0.0318977 -0.0158945 0)
  (-0.0112459 -0.02618 0)
  (0.0132359 -0.0211335 0)
  (0.0288138 -0.0147914 0)
  (0.042246 -0.00976428 0)
  (0.0509773 -0.00565456 0)
  (0.0556578 -0.00346829 0)
  (0.0578013 -0.00260221 0)
  (0.058859 -0.00223736 0)
  (0.0595249 -0.00201156 0)
  (0.0599316 -0.00182997 0)
  (0.0600236 -0.00162174 0)
  (0.0596244 -0.00122133 0)
  (0.0582301 -0.000276979 0)
  (0.0547462 0.00169985 0)
  (0.0479784 0.0038219 0)
  (0.0417588 0.00569589 0)
  (-0.0122487 0.0205198 0)
  (0.205696 0.177146 0)
  (-0.156733 0.0690173 0)
  (-0.156566 0.0535009 0)
  (-0.188719 0.0407266 0)
  (-0.210411 0.0261686 0)
  (-0.221997 0.00968548 0)
  (-0.221483 -0.00889165 0)
  (-0.208133 -0.0284166 0)
  (-0.183571 -0.0457726 0)
  (-0.150834 -0.0578479 0)
  (-0.114232 -0.0627888 0)
  (-0.0779064 -0.0603793 0)
  (-0.0453112 -0.05121 0)
  (-0.0191993 -0.0370187 0)
  (-0.00324819 -0.0215146 0)
  (0.00921843 -0.00531096 0)
  (0.00677699 0.01643 0)
  (0.0589802 0.0383444 0)
  (0.0200887 -0.0177168 0)
  (0.030275 -0.0318688 0)
  (0.0415661 -0.0290261 0)
  (0.0507632 -0.0214653 0)
  (0.0578403 -0.0139492 0)
  (0.0610447 -0.00612146 0)
  (0.0617498 -0.00154502 0)
  (0.0617356 0.000341518 0)
  (0.0618604 0.00115388 0)
  (0.0620838 0.00164305 0)
  (0.0622477 0.00203622 0)
  (0.0623142 0.00250818 0)
  (0.0622397 0.00335212 0)
  (0.0615448 0.0053982 0)
  (0.0580041 0.0110654 0)
  (0.0489912 0.0158326 0)
  (0.0450848 0.019229 0)
  (-0.0495781 0.0443261 0)
  (0.364894 0.265036 0)
  (-0.172396 0.109658 0)
  (-0.117694 0.0865043 0)
  (-0.149033 0.0639533 0)
  (-0.168579 0.0399938 0)
  (-0.179451 0.0131713 0)
  (-0.178376 -0.0169695 0)
  (-0.164332 -0.0480576 0)
  (-0.140426 -0.0745132 0)
  (-0.110464 -0.0916032 0)
  (-0.0787838 -0.0972417 0)
  (-0.048536 -0.0921945 0)
  (-0.0217618 -0.0778537 0)
  (0.000311077 -0.0567344 0)
  (0.0157907 -0.0324478 0)
  (0.0255536 -0.00689041 0)
  (0.028453 0.0292336 0)
  (0.110014 -0.0202083 0)
  (0.0739737 -0.0345697 0)
  (0.0681003 -0.0376143 0)
  (0.0692158 -0.0335401 0)
  (0.0703906 -0.0262524 0)
  (0.0718333 -0.0196781 0)
  (0.0707217 -0.0156336 0)
  (0.0656215 -0.0108831 0)
  (0.061852 -0.00829331 0)
  (0.0601403 -0.00681991 0)
  (0.0593968 -0.00587791 0)
  (0.0589879 -0.00523343 0)
  (0.0588765 -0.00469479 0)
  (0.0594909 -0.00388045 0)
  (0.0618919 -0.000872544 0)
  (0.0598904 0.0154477 0)
  (0.0472494 0.0266959 0)
  (0.0508798 0.034305 0)
  (-0.0832567 0.0685532 0)
  (0.508993 0.335716 0)
  (-0.205989 0.145533 0)
  (-0.0764615 0.114759 0)
  (-0.106319 0.0839793 0)
  (-0.120772 0.0530634 0)
  (-0.128467 0.0173874 0)
  (-0.123539 -0.0245101 0)
  (-0.106537 -0.0675238 0)
  (-0.0830951 -0.101815 0)
  (-0.0571276 -0.122055 0)
  (-0.032371 -0.126942 0)
  (-0.010262 -0.119037 0)
  (0.00936271 -0.0998485 0)
  (0.0250793 -0.0749392 0)
  (0.0388801 -0.0469872 0)
  (0.0537967 -0.0180619 0)
  (0.0741319 0.0143964 0)
  (0.104209 0.0236761 0)
  (0.1076 -0.0174345 0)
  (0.0937819 -0.0306658 0)
  (0.0843741 -0.0318708 0)
  (0.0784729 -0.0288859 0)
  (0.0737526 -0.02344 0)
  (0.0702292 -0.0161112 0)
  (0.0706801 -0.00959557 0)
  (0.0753345 -0.0069591 0)
  (0.0792099 -0.00552739 0)
  (0.0815437 -0.00457616 0)
  (0.0828352 -0.00358765 0)
  (0.0827216 -0.00223455 0)
  (0.0801768 -0.000248702 0)
  (0.0739177 0.00269651 0)
  (0.0613926 0.00713501 0)
  (0.0494651 0.0258301 0)
  (0.0374907 0.0414186 0)
  (0.0549747 0.0536107 0)
  (-0.119849 0.0895752 0)
  (0.634235 0.390353 0)
  (-0.24779 0.174587 0)
  (-0.0353962 0.13121 0)
  (-0.0614123 0.0956002 0)
  (-0.0682774 0.0606628 0)
  (-0.0695974 0.0183186 0)
  (-0.0539813 -0.0351568 0)
  (-0.0330032 -0.0879278 0)
  (-0.012096 -0.125736 0)
  (0.0069071 -0.145263 0)
  (0.0215711 -0.146591 0)
  (0.0328657 -0.134947 0)
  (0.041605 -0.11388 0)
  (0.0488873 -0.0873002 0)
  (0.0559168 -0.0589127 0)
  (0.0645346 -0.0325277 0)
  (0.0773235 -0.0144743 0)
  (0.0874241 -0.0163138 0)
  (0.0878394 -0.0251345 0)
  (0.0811881 -0.0271214 0)
  (0.0725574 -0.0253685 0)
  (0.0650237 -0.0223343 0)
  (0.0589406 -0.0182218 0)
  (0.0547572 -0.0129373 0)
  (0.053534 -0.00672881 0)
  (0.0550581 -0.00365207 0)
  (0.0570437 -0.00259339 0)
  (0.0589727 -0.00192179 0)
  (0.0608449 -0.000555845 0)
  (0.0623836 0.00212486 0)
  (0.0624366 0.00631655 0)
  (0.0603334 0.0122358 0)
  (0.0554036 0.0204575 0)
  (0.0490801 0.0350294 0)
  (0.0392868 0.0522063 0)
  (0.0632273 0.0715641 0)
  (-0.0253126 0.100561 0)
  (0.0465376 0.0302147 0)
  (-0.0613135 -0.0336057 0)
  (-0.271981 -0.0563739 0)
  (0.725977 0.435696 0)
  (-0.289151 0.193823 0)
  (-0.00363139 0.127865 0)
  (-0.0150277 0.0970153 0)
  (-0.0114545 0.063022 0)
  (-0.000609091 0.0108658 0)
  (0.0324694 -0.0561868 0)
  (0.0534601 -0.108774 0)
  (0.067606 -0.142023 0)
  (0.075244 -0.156198 0)
  (0.0774225 -0.153911 0)
  (0.0758417 -0.139267 0)
  (0.0720751 -0.116394 0)
  (0.0678233 -0.0893854 0)
  (0.064488 -0.0618239 0)
  (0.0633424 -0.0374251 0)
  (0.0650219 -0.0203201 0)
  (0.0660044 -0.0149455 0)
  (0.0627132 -0.0159947 0)
  (0.0556677 -0.0172981 0)
  (0.0474956 -0.0168941 0)
  (0.0402757 -0.0153188 0)
  (0.0346031 -0.0129073 0)
  (0.0308731 -0.00977783 0)
  (0.0295108 -0.00658837 0)
  (0.0302949 -0.00528506 0)
  (0.0321727 -0.00520613 0)
  (0.034694 -0.00509659 0)
  (0.0377163 -0.00391631 0)
  (0.0410665 -0.00074412 0)
  (0.0443939 0.00489312 0)
  (0.046515 0.012791 0)
  (0.0475477 0.0229939 0)
  (0.0487847 0.0367769 0)
  (0.0482454 0.0536391 0)
  (0.0720351 0.075785 0)
  (0.0513875 0.0934075 0)
  (0.0932481 0.0656718 0)
  (0.115874 0.0437305 0)
  (-0.127829 -0.0062994 0)
  (0.780162 0.476855 0)
  (-0.310084 0.178765 0)
  (0.0246372 0.0774976 0)
  (0.0456825 0.0711937 0)
  (0.062903 0.0440188 0)
  (0.100594 -0.0176868 0)
  (0.131195 -0.0802426 0)
  (0.14713 -0.124337 0)
  (0.150329 -0.148425 0)
  (0.143543 -0.154892 0)
  (0.129825 -0.147161 0)
  (0.11219 -0.129227 0)
  (0.0933028 -0.105252 0)
  (0.0754884 -0.0790188 0)
  (0.0602629 -0.0534167 0)
  (0.0487349 -0.0317188 0)
  (0.0411061 -0.0168136 0)
  (0.0355254 -0.0102964 0)
  (0.0296471 -0.00932058 0)
  (0.0229036 -0.00992997 0)
  (0.0161721 -0.0100559 0)
  (0.0103652 -0.00956957 0)
  (0.0058938 -0.00866028 0)
  (0.00307669 -0.00748817 0)
  (0.00216189 -0.00656279 0)
  (0.00290064 -0.00672571 0)
  (0.00464725 -0.00756989 0)
  (0.00710153 -0.00822926 0)
  (0.0102909 -0.00782239 0)
  (0.0143756 -0.00534391 0)
  (0.0202053 0.000315796 0)
  (0.0268278 0.00888659 0)
  (0.0332773 0.0191308 0)
  (0.0412432 0.0312528 0)
  (0.0499635 0.0449349 0)
  (0.073099 0.062668 0)
  (0.0871343 0.0702811 0)
  (0.119431 0.0495051 0)
  (0.15845 0.042657 0)
  (-0.0341904 0.0922776 0)
  (0.885619 0.478437 0)
  (-0.0664688 0.157815 0)
  (0.10905 0.00206348 0)
  (0.174313 -0.0257073 0)
  (0.200542 -0.0492126 0)
  (0.234241 -0.0830832 0)
  (0.250676 -0.113302 0)
  (0.247922 -0.132817 0)
  (0.229357 -0.139966 0)
  (0.200077 -0.135706 0)
  (0.165167 -0.122281 0)
  (0.128655 -0.102339 0)
  (0.0936766 -0.0791386 0)
  (0.0627443 -0.0557257 0)
  (0.036972 -0.0340088 0)
  (0.0179369 -0.0170528 0)
  (0.00553742 -0.00684043 0)
  (-0.00208392 -0.00300122 0)
  (-0.00756822 -0.00297369 0)
  (-0.0125666 -0.00398901 0)
  (-0.0171807 -0.00482638 0)
  (-0.0211492 -0.00535343 0)
  (-0.0242567 -0.00570957 0)
  (-0.0263135 -0.0060797 0)
  (-0.0272448 -0.00675315 0)
  (-0.0273117 -0.00798004 0)
  (-0.0269298 -0.00952559 0)
  (-0.0262772 -0.0109343 0)
  (-0.0252395 -0.0116976 0)
  (-0.0234391 -0.0112353 0)
  (-0.0199985 -0.00883062 0)
  (-0.012344 -0.00373063 0)
  (-0.00169231 0.00368889 0)
  (0.00985698 0.0116063 0)
  (0.022594 0.0177308 0)
  (0.0434323 0.0241811 0)
  (0.0630072 0.0184252 0)
  (0.0817372 -0.00278519 0)
  (0.138689 0.04849 0)
  (-0.433199 0.204862 0)
  (1.03207 0.429507 0)
  (0.496757 0.284456 0)
  (0.503735 0.188289 0)
  (0.516433 0.113042 0)
  (0.491623 0.0570642 0)
  (0.444185 0.00183123 0)
  (0.390698 -0.0442059 0)
  (0.33389 -0.0738266 0)
  (0.273583 -0.0864252 0)
  (0.212629 -0.0852379 0)
  (0.154743 -0.0747578 0)
  (0.101991 -0.0584886 0)
  (0.0562282 -0.0399878 0)
  (0.0188315 -0.0222002 0)
  (-0.0113612 -0.00697929 0)
  (-0.0279732 0.000165635 0)
  (-0.036687 0.00249833 0)
  (-0.041238 0.00234484 0)
  (-0.0442314 0.00106112 0)
  (-0.046929 -0.000400366 0)
  (-0.0496359 -0.00165937 0)
  (-0.0523205 -0.00274264 0)
  (-0.054807 -0.00379071 0)
  (-0.0570204 -0.00490393 0)
  (-0.059006 -0.00617036 0)
  (-0.0610413 -0.00760481 0)
  (-0.063505 -0.00901399 0)
  (-0.0667252 -0.0100492 0)
  (-0.0710155 -0.010215 0)
  (-0.0767743 -0.00886259 0)
  (-0.0844908 -0.00521822 0)
  (-0.0945269 0.00144391 0)
  (-0.105334 0.0108483 0)
  (-0.119179 0.0228935 0)
  (-0.141017 0.0375964 0)
  (-0.172992 0.0543718 0)
  (-0.218904 0.0702688 0)
  (-0.274902 0.0830356 0)
  (-0.350226 0.0910008 0)
  (-0.615258 0.0876996 0)
  (-0.138839 0.0772554 0)
  (0.130005 0.0488604 0)
  (0.208012 -0.0110551 0)
  (0.191417 -0.0405739 0)
  (0.173379 -0.0490118 0)
  (0.1479 -0.0486341 0)
  (0.113072 -0.0431633 0)
  (0.073433 -0.0339809 0)
  (0.0340314 -0.0222246 0)
  (-0.00602509 -0.00799489 0)
  (-0.0373297 0.00261198 0)
  (-0.0566203 0.00805297 0)
  (-0.0668695 0.00986197 0)
  (-0.0713022 0.00935301 0)
  (-0.0736742 0.00838681 0)
  (-0.0752228 0.00737605 0)
  (-0.0767099 0.00649605 0)
  (-0.0784068 0.00588342 0)
  (-0.0802717 0.0054706 0)
  (-0.0822462 0.00505674 0)
  (-0.0844151 0.00446932 0)
  (-0.0868506 0.00357774 0)
  (-0.089592 0.00248954 0)
  (-0.0927629 0.00139882 0)
  (-0.0964833 0.000584142 0)
  (-0.100783 0.000380354 0)
  (-0.105594 0.00116138 0)
  (-0.110747 0.00328946 0)
  (-0.115775 0.00720668 0)
  (-0.119844 0.0135375 0)
  (-0.123296 0.0233633 0)
  (-0.126067 0.0371791 0)
  (-0.128614 0.0545115 0)
  (-0.130687 0.073035 0)
  (-0.129113 0.0859606 0)
  (-0.11127 0.0790339 0)
  (-0.0689314 0.0249626 0)
  (-0.197375 -0.17693 0)
  (-0.011669 0.226419 0)
  (0.0609458 0.0906005 0)
  (0.0290342 0.0107497 0)
  (0.01657 -0.0105863 0)
  (-0.000431241 -0.0111207 0)
  (-0.0235158 -0.00878609 0)
  (-0.0491916 -0.00503058 0)
  (-0.072709 -0.00031672 0)
  (-0.0903109 0.00380826 0)
  (-0.100091 0.00562871 0)
  (-0.103734 0.00460005 0)
  (-0.104325 0.00214558 0)
  (-0.103129 -0.00078426 0)
  (-0.101483 -0.00410508 0)
  (-0.100222 -0.00743594 0)
  (-0.0995592 -0.0107606 0)
  (-0.0995536 -0.0140305 0)
  (-0.1001 -0.0170686 0)
  (-0.101015 -0.0196561 0)
  (-0.102146 -0.0216184 0)
  (-0.103415 -0.0228683 0)
  (-0.104812 -0.0233801 0)
  (-0.106424 -0.0232628 0)
  (-0.108246 -0.0225313 0)
  (-0.110208 -0.0211871 0)
  (-0.112172 -0.0192507 0)
  (-0.113847 -0.0163965 0)
  (-0.114813 -0.0121333 0)
  (-0.114609 -0.00627435 0)
  (-0.112393 0.00157683 0)
  (-0.1069 0.0120867 0)
  (-0.0968398 0.025863 0)
  (-0.0816153 0.0426134 0)
  (-0.061562 0.059095 0)
  (-0.0385909 0.0676037 0)
  (0.0317111 0.0345455 0)
  (0.14693 -0.0417772 0)
  (-0.0490126 -0.0658312 0)
  (-0.0999262 -0.347384 0)
  (-0.438741 -0.121602 0)
  (-0.310443 0.0916552 0)
  (-0.234064 -0.0194033 0)
  (-0.19032 -0.0352879 0)
  (-0.17931 -0.0217235 0)
  (-0.177503 -0.0091706 0)
  (-0.177792 -3.04781e-05 0)
  (-0.176124 0.00758796 0)
  (-0.172045 0.0146641 0)
  (-0.165318 0.0212144 0)
  (-0.156555 0.0269674 0)
  (-0.14707 0.0317386 0)
  (-0.138043 0.0360066 0)
  (-0.13004 0.040196 0)
  (-0.12326 0.0445468 0)
  (-0.117575 0.0491853 0)
  (-0.112779 0.0539638 0)
  (-0.108747 0.0585613 0)
  (-0.105406 0.062566 0)
  (-0.102709 0.0655981 0)
  (-0.100628 0.0674186 0)
  (-0.0991435 0.06795 0)
  (-0.0982301 0.0672305 0)
  (-0.0978684 0.0654089 0)
  (-0.0980247 0.0626235 0)
  (-0.0985914 0.0591398 0)
  (-0.0993383 0.0553973 0)
  (-0.0999171 0.0515049 0)
  (-0.099735 0.047593 0)
  (-0.0977148 0.0444395 0)
  (-0.0922487 0.0427159 0)
  (-0.0811898 0.0431232 0)
  (-0.0627212 0.046435 0)
  (-0.0370363 0.0530947 0)
  (-0.00195873 0.0619422 0)
  (0.0340814 0.057754 0)
  (0.0894443 0.0225066 0)
  (0.118538 -0.0146682 0)
  (-0.503478 0.0633431 0)
)
;

boundaryField
{
  floor
  {
    type noSlip;
  }
  ceiling
  {
    type noSlip;
  }
  sWall
  {
    type noSlip;
  }
  nWall
  {
    type noSlip;
  }
  sideWalls
  {
    type empty;
  }
  glass1
  {
    type noSlip;
  }
  glass2
  {
    type noSlip;
  }
  sun
  {
    type noSlip;
  }
  heatsource1
  {
    type noSlip;
  }
  heatsource2
  {
    type noSlip;
  }
  Table_master
  {
    type noSlip;
  }
  Table_slave
  {
    type noSlip;
  }
  inlet
  {
    type fixedValue;
    value uniform (0.3 0 0);
  }
  outlet
  {
    type zeroGradient;
  }
} 	// ************************************************************************* //

