/*--------------------------------*- C++ -*----------------------------------*\
  =========                 |
  \\      /  F ield         | OpenFOAM: The Open Source CFD Toolbox
   \\    /   O peration     | Website:  https://openfoam.org
    \\  /    A nd           | Version:  6
     \\/     M anipulation  |
\*---------------------------------------------------------------------------*/
FoamFile
{
    version     2.0;
    format      ascii;
    class       surfaceScalarField;
    location    "600";
    object      phi;
}
// * * * * * * * * * * * * * * * * * * * * * * * * * * * * * * * * * * * * * //

dimensions      [1 0 -1 0 0 0 0];

internalField   nonuniform List<scalar> 
852
(
-0.00310312
0.00316013
-0.00431322
0.00121013
-0.00512588
0.000812691
-0.00561377
0.000487923
-0.00572676
0.000113018
-0.00541987
-0.000306859
-0.00468255
-0.000737285
-0.00359205
-0.00109047
-0.00230213
-0.00128989
-0.000989775
-0.00131234
0.000154079
-0.00114384
0.000889514
-0.000735423
0.00120816
-0.000318638
0.00101283
0.000195343
0.00101492
-0.000940799
0.000943515
-0.000864167
-7.66735e-05
-0.000272995
-0.00059121
0.000384225
-0.000657255
0.00091948
-0.000535293
0.00130539
-0.000385947
0.00152673
-0.000221383
0.0016319
-0.000105212
0.00169149
-5.96404e-05
0.00173133
-3.98813e-05
0.00175777
-2.64885e-05
0.00177356
-1.58429e-05
0.0017772
-3.68856e-06
0.00175879
1.83631e-05
0.00169224
6.64924e-05
0.00153245
0.00015974
0.00125409
0.000278294
0.0008487
0.000405333
0.000851919
-0.00223575
0.00555021
-0.00337605
0.00235046
-0.00421455
0.00165123
-0.00472016
0.000993561
-0.00485495
0.000247849
-0.00457849
-0.000583281
-0.00390534
-0.0014104
-0.00294461
-0.00205115
-0.00186594
-0.00236853
-0.000826843
-0.00235141
5.09255e-05
-0.0020216
0.000721785
-0.00140627
0.00113216
-0.000729002
0.00134861
-2.11088e-05
0.00173708
0.000626455
0.000928002
0.000809035
0.000927954
-9.57997e-05
0.00104763
0.000311458
-0.000483971
0.000741349
-0.00102113
0.00108648
-0.00100242
0.00137512
-0.000823961
0.00158256
-0.000593424
0.00163035
-0.000269215
0.00164084
-0.000115742
0.00165201
-7.08584e-05
0.00166125
-4.91624e-05
0.00166744
-3.27243e-05
0.00167136
-1.98152e-05
0.00167239
-4.76754e-06
0.00166612
2.45773e-05
0.00162169
0.000110866
0.00143129
0.000350081
0.00110812
0.000601413
0.00069316
0.000820227
0.001554
-0.00157515
0.00736258
-0.00254033
0.00331568
-0.00330057
0.00241151
-0.00375531
0.00144834
-0.00387005
0.000362625
-0.00357524
-0.00087804
-0.00291751
-0.00206808
-0.00205119
-0.00291743
-0.00115151
-0.00326816
-0.000334996
-0.00316789
0.000328479
-0.00268506
0.000859959
-0.00193775
0.0012406
-0.00110965
0.00150432
-0.00028482
0.00164788
0.000482893
0.00132655
0.00113037
0.00225451
0.00134366
-0.000284352
0.00168157
-0.000821917
0.0017079
-0.00104749
0.00175414
-0.00104869
0.00182827
-0.000898124
0.00195399
-0.000719178
0.00168488
0.00156925
0.00149851
0.00144945
0.00141683
0.00139712
0.00139246
0.00141713
0.0015281
0.00123468
0.000643436
0.000909311
0.000926721
0.000525589
0.00120388
0.00209359
-0.00109503
0.00876632
-0.00183789
0.00405858
-0.00236957
0.00294323
-0.00268272
0.00176152
-0.00268323
0.000363181
-0.00228196
-0.00127927
-0.00161974
-0.00273023
-0.000878857
-0.00365824
-0.000198087
-0.00394887
0.000366833
-0.00373277
0.000812258
-0.00313047
0.00117248
-0.00229797
0.00145186
-0.00138903
0.00167863
-0.000511599
0.00189432
0.000267198
0.00217633
0.000848357
0.00325935
0.0011715
0.00285082
0.000418225
0.00272427
-0.00015781
0.00252369
-0.000621343
0.00230344
-0.000827244
0.00210987
-0.000855146
0.0019631
-0.000751391
0.00178939
-0.000545513
0.00199965
-0.000210457
0.00207248
-7.303e-05
0.00209048
-1.82104e-05
0.00207014
2.01332e-05
0.00200851
6.1423e-05
0.0018967
0.000111597
0.00171749
0.000178991
0.00144058
0.000276687
0.00100744
0.000432915
0.000881669
0.000769141
0.000634419
0.0011739
0.000300056
0.00153818
0.00241232
-0.000751822
0.0098883
-0.00128587
0.00459266
-0.0014347
0.00309208
-0.00151105
0.00183791
-0.0012159
6.80612e-05
-0.000617522
-0.00187759
1.17961e-05
-0.00335947
0.000534939
-0.00418131
0.000919475
-0.00433334
0.00118492
-0.00399818
0.00136959
-0.00331513
0.00150128
-0.00242968
0.00160465
-0.00149242
0.00171984
-0.00062681
0.00190183
8.52007e-05
0.00218298
0.000567202
0.002599
0.000755468
0.0026179
0.000399324
0.00253897
-7.88913e-05
0.00232976
-0.000412143
0.00207898
-0.000576491
0.00183207
-0.000608274
0.00161753
-0.000536886
0.00145667
-0.000384711
0.00143129
-0.000185133
0.00141278
-5.45842e-05
0.00138275
1.17541e-05
0.00134845
5.4369e-05
0.00130977
0.000100032
0.00125619
0.000165106
0.00117327
0.000261836
0.00104738
0.000402498
0.000885151
0.000595071
0.000764652
0.000889567
0.000666946
0.00127154
0.000422386
0.00178267
0.000472375
0.00236226
-0.000968678
0.00144076
-0.00141425
0.000445269
-0.00136836
-0.000622434
0.0109333
-0.000933425
0.00490369
-0.000486524
0.00264521
3.12042e-05
0.00132021
0.000745208
-0.000645921
0.00141373
-0.00254606
0.00186508
-0.00381073
0.00207539
-0.00439152
0.00211374
-0.00437163
0.00202512
-0.00390953
0.00187066
-0.00316066
0.00169973
-0.00225878
0.00155406
-0.00134679
0.00147371
-0.000546485
0.00149487
6.40144e-05
0.00162415
0.000437904
0.00183664
0.000542969
0.00191352
0.000322432
0.00181946
1.51378e-05
0.00162593
-0.00021864
0.00139451
-0.000345106
0.00116115
-0.000374972
0.000952621
-0.00032841
0.000794766
-0.00022692
0.000711594
-0.00010203
0.000673008
-1.60705e-05
0.000659009
2.5677e-05
0.000664146
4.91543e-05
0.000682653
8.14461e-05
0.000707182
0.000140495
0.000731006
0.000237929
0.000751195
0.000382226
0.000768884
0.0005773
0.000825445
0.000832928
0.000970932
0.00112598
0.00121136
0.00154218
0.00174201
0.00183154
0.00206011
0.00112258
0.00171614
0.000789152
0.000403284
-0.000598817
0.0120025
-0.000357171
0.00466207
0.00094484
0.00134322
0.00211266
0.000152411
0.0031067
-0.00163992
0.00368085
-0.00312014
0.00383752
-0.0039673
0.00365059
-0.0042045
0.00323143
-0.0039524
0.00268678
-0.00336486
0.00211585
-0.00258975
0.00158536
-0.00172835
0.00115472
-0.0009162
0.000859485
-0.000251305
0.000738576
0.000184886
0.000776661
0.000399792
0.00089021
0.000429394
0.000929281
0.00028333
0.0008569
8.74801e-05
0.000707441
-6.9231e-05
0.000517567
-0.000155291
0.000319361
-0.000176834
0.00014033
-0.000149454
5.70488e-06
-9.23732e-05
-6.63603e-05
-3.00472e-05
-8.56321e-05
3.11589e-06
-6.72291e-05
7.18802e-06
-1.93813e-05
1.21919e-06
5.51078e-05
6.86815e-06
0.000153595
4.19165e-05
0.000275091
0.000116342
0.000423325
0.000233901
0.000600471
0.000400064
0.000829328
0.000603986
0.00114856
0.000806668
0.00161996
0.0010707
0.00233911
0.00111232
0.00291521
0.000546397
0.00297496
0.000729314
0.00343741
0.00293294
0.00959667
0.00381095
0.00378409
0.00446286
0.000691338
0.00562953
-0.00101422
0.0062933
-0.00230361
0.00631114
-0.00313786
0.0058105
-0.00346655
0.00495808
-0.00335199
0.00391247
-0.00290675
0.00281635
-0.00226875
0.00180079
-0.00157425
0.000925205
-0.000852847
0.00026837
-0.000259453
-0.000108791
0.000125779
-0.000231466
0.000307511
-0.000204099
0.000372381
-0.000131746
0.000356997
-0.000110994
0.000262526
-0.000166338
0.000142762
-0.000280461
4.48206e-05
-0.000425791
-1.004e-05
-0.000576456
-2.6255e-05
-0.000708707
-1.72925e-05
-0.000803962
2.78886e-06
-0.000851112
1.70068e-05
-0.000859095
1.10038e-05
-0.000840384
-1.16179e-05
-0.000797997
-4.1264e-05
-0.000725073
-6.61531e-05
-0.000612659
-7.05963e-05
-0.000458521
-3.78943e-05
-0.000264541
3.98221e-05
-1.81843e-05
0.000153612
0.00028477
0.000300938
0.000624176
0.000467174
0.00104126
0.000653536
0.00148518
0.000668314
0.00161777
0.000413715
0.000865183
0.00148182
0.00454628
0.0101781
0.0139567
0.0124489
0.00219923
0.011488
-5.32166e-05
0.0102191
-0.00103456
0.00864465
-0.00156328
0.00687926
-0.00170105
0.00508049
-0.00155318
0.00335783
-0.00118411
0.00178996
-0.00070095
0.000468766
-0.000253159
-0.00048707
0.000102852
-0.001006
0.000259379
-0.00119137
0.000311075
-0.00121658
0.000332652
-0.00117769
0.00033343
-0.00112891
0.000308144
-0.00111865
0.000252194
-0.00116065
0.000184677
-0.00124287
0.000126951
-0.00134331
9.03005e-05
-0.00144366
7.39961e-05
-0.00153135
7.02927e-05
-0.00159851
6.98454e-05
-0.00164685
6.52327e-05
-0.00168864
5.26923e-05
-0.00173658
3.62064e-05
-0.00180279
2.4841e-05
-0.0018984
2.93547e-05
-0.00203112
6.20117e-05
-0.00220532
0.0001362
-0.00243284
0.000267246
-0.00275198
0.000472654
-0.00321856
0.000767422
-0.00390532
0.00115384
-0.00486351
0.00161163
-0.00620473
0.00200944
-0.0078456
0.00205449
-0.00731985
0.000955985
-0.00250909
0.00498938
0.00396717
0.00352925
0.00140699
0.00339922
-0.000904559
0.0028649
-0.00102906
0.00189555
-0.000731834
0.000741406
-0.000399202
-0.000408229
-3.46709e-05
-0.00132625
0.000216927
-0.00188001
0.000300485
-0.00211153
0.000334259
-0.00217752
0.000325271
-0.00217058
0.000304046
-0.00212629
0.000288283
-0.0020705
0.000277549
-0.00202522
0.000262766
-0.00201013
0.00023701
-0.00202978
0.000204217
-0.00207535
0.000172412
-0.00213257
0.000147416
-0.00218914
0.000130449
-0.00223826
0.000119293
-0.00227899
0.000110461
-0.00231498
0.000101108
-0.00235288
9.04722e-05
-0.0023981
8.13074e-05
-0.00245286
7.94911e-05
-0.0025169
9.32813e-05
-0.00258811
0.000133106
-0.00266378
0.000211762
-0.00274197
0.000345337
-0.00282265
0.000553227
-0.00290542
0.000850093
-0.0029753
0.00122362
-0.00296577
0.001602
-0.00279155
0.00183512
-0.00218962
0.00145246
-0.000926608
-0.000307132
-0.00337003
-0.000165893
0.00420241
0.00045687
0.00078412
-0.000537839
8.9932e-05
-0.00156798
8.90967e-07
-0.00238148
8.1483e-05
-0.00295336
0.000172515
-0.00323569
0.000247509
-0.00330294
0.000284045
-0.00327895
0.000276378
-0.00319501
0.000250209
-0.00308985
0.000219999
-0.00298309
0.000197182
-0.0028802
0.000185281
-0.00278435
0.000181595
-0.00270162
0.000179925
-0.00263957
0.000174836
-0.00260077
0.000165295
-0.00258152
0.000153044
-0.00257463
0.000140396
-0.00257315
0.000128844
-0.0025728
0.000118817
-0.00257241
0.000109948
-0.00257294
0.000101511
-0.00257576
9.3167e-05
-0.00258049
8.59094e-05
-0.00258348
8.23631e-05
-0.00257723
8.69114e-05
-0.00255017
0.000105932
-0.00248648
0.000147955
-0.00236555
0.000224293
-0.00216311
0.000350681
-0.00185662
0.000543495
-0.00142305
0.000789946
-0.000810489
0.000989337
0.000111179
0.000913345
0.00124134
0.000322194
0.0015966
-0.000662504
-0.00170167
0.000876222
-0.0105451
-0.00630274
-0.00550535
-0.00541201
-0.00541194
-0.0053337
-0.00516629
-0.00492547
-0.00464947
-0.00438229
-0.00414223
-0.00393313
-0.00374747
-0.00357426
-0.00340527
-0.00323848
-0.00307733
-0.00292625
-0.00278789
-0.00266257
-0.00254909
-0.00244581
-0.00235149
-0.00226563
-0.00218807
-0.00211765
-0.00205057
-0.00197864
-0.00188726
-0.00175332
-0.00154241
-0.00120442
-0.000672901
0.000105748
0.00108437
0.00198696
0.00229778
0.00162309
)
;

boundaryField
{
    floor
    {
        type            calculated;
        value           nonuniform List<scalar> 
29
(
0
0
0
0
0
0
0
0
0
0
0
0
0
0
0
0
0
0
0
0
-3.28373e-06
-8.9841e-06
-1.40759e-05
-1.87434e-05
-2.08125e-06
-2.76222e-06
-8.35983e-06
-1.17251e-05
-9.69824e-06
)
;
    }
    ceiling
    {
        type            calculated;
        value           nonuniform List<scalar> 
43
(
-1.58857e-05
-3.81931e-05
-4.01063e-05
-1.34459e-05
-3.56949e-06
6.72462e-07
3.09087e-06
4.9648e-06
6.55175e-06
7.91582e-06
9.07748e-06
1.00169e-05
1.07693e-05
1.13936e-05
1.19461e-05
1.2474e-05
1.3007e-05
1.35492e-05
1.40768e-05
1.45513e-05
1.49386e-05
1.52218e-05
1.54033e-05
1.54971e-05
1.55181e-05
1.54737e-05
1.53587e-05
1.51575e-05
1.48514e-05
1.44286e-05
1.38928e-05
1.32634e-05
1.25718e-05
1.18609e-05
1.11839e-05
1.0606e-05
1.06445e-05
1.12551e-05
1.20687e-05
1.39527e-05
8.1911e-06
5.52828e-06
-6.92892e-05
)
;
    }
    sWall
    {
        type            calculated;
        value           uniform -0.000222284;
    }
    nWall
    {
        type            calculated;
        value           nonuniform List<scalar> 6(-4.61938e-05 -5.55906e-05 -5.92535e-05 -6.57914e-05 -7.1891e-05 -9.26553e-05);
    }
    sideWalls
    {
        type            empty;
        value           nonuniform 0();
    }
    glass1
    {
        type            calculated;
        value           nonuniform List<scalar> 9(-5.69758e-05 -0.000154289 -0.000237188 -0.00030867 -0.000370123 -0.000422483 -0.000470439 -0.000527027 -0.000589618);
    }
    glass2
    {
        type            calculated;
        value           nonuniform List<scalar> 2(-0.000243769 -0.000264576);
    }
    sun
    {
        type            calculated;
        value           uniform 0;
    }
    heatsource1
    {
        type            calculated;
        value           nonuniform List<scalar> 3(2.03883e-07 2.03769e-07 2.03805e-07);
    }
    heatsource2
    {
        type            calculated;
        value           nonuniform List<scalar> 4(5.11248e-08 5.12586e-08 0 0);
    }
    Table_master
    {
        type            calculated;
        value           nonuniform List<scalar> 9(-1.53021e-07 -1.53172e-07 -1.53218e-07 -1.53245e-07 -1.53261e-07 -1.53269e-07 -1.53271e-07 -1.53258e-07 -1.53213e-07);
    }
    Table_slave
    {
        type            calculated;
        value           nonuniform List<scalar> 9(1.52806e-07 1.52838e-07 1.52821e-07 1.52809e-07 1.52805e-07 1.52817e-07 1.52847e-07 1.52902e-07 1.52992e-07);
    }
    inlet
    {
        type            calculated;
        value           uniform -0.00675723;
    }
    outlet
    {
        type            calculated;
        value           nonuniform List<scalar> 2(-0.000638212 0.0114594);
    }
}


// ************************************************************************* //
