// -*- C++ -*-
// File generated by PyFoam - sorry for the ugliness

FoamFile
{
 version 2.0;
 format ascii;
 class volScalarField;
 location "600";
 object T;
}

dimensions [ 0 0 0 1 0 0 0 ];

internalField nonuniform List<scalar> 459
(
  303.053
  302.797
  302.786
  302.784
  302.782
  302.78
  302.775
  302.768
  302.762
  302.76
  302.766
  302.781
  302.79
  302.796
  302.809
  303.095
  303.064
  303.046
  303.052
  303.069
  303.084
  303.097
  303.109
  303.121
  303.132
  303.144
  303.156
  303.168
  303.18
  303.193
  303.206
  303.221
  303.241
  303.279
  303.219
  302.832
  302.809
  302.811
  302.812
  302.811
  302.801
  302.781
  302.761
  302.752
  302.76
  302.777
  302.789
  302.795
  302.801
  302.8
  302.798
  303.1
  303.028
  303.012
  303.026
  303.05
  303.073
  303.085
  303.095
  303.105
  303.116
  303.126
  303.136
  303.147
  303.158
  303.17
  303.184
  303.202
  303.226
  303.272
  303.395
  302.879
  302.843
  302.854
  302.866
  302.87
  302.851
  302.808
  302.766
  302.746
  302.756
  302.78
  302.798
  302.807
  302.81
  302.809
  302.805
  303.047
  302.994
  302.99
  303.018
  303.058
  303.094
  303.099
  303.106
  303.113
  303.122
  303.132
  303.142
  303.153
  303.165
  303.176
  303.191
  303.207
  303.229
  303.274
  303.577
  302.941
  302.885
  302.909
  302.94
  302.957
  302.92
  302.839
  302.77
  302.739
  302.751
  302.784
  302.814
  302.83
  302.833
  302.83
  302.822
  302.832
  302.857
  302.903
  302.966
  303.036
  303.102
  303.156
  303.2
  303.234
  303.263
  303.29
  303.315
  303.338
  303.36
  303.38
  303.396
  303.328
  303.277
  303.258
  303.284
  303.757
  303.02
  302.936
  302.968
  303.025
  303.056
  302.987
  302.861
  302.768
  302.73
  302.746
  302.792
  302.839
  302.868
  302.876
  302.875
  302.874
  302.891
  302.928
  302.988
  303.061
  303.138
  303.209
  303.269
  303.322
  303.363
  303.396
  303.424
  303.445
  303.46
  303.469
  303.471
  303.464
  303.415
  303.344
  303.296
  303.297
  303.483
  303.562
  303.553
  303.925
  303.125
  303.014
  303.039
  303.138
  303.131
  303.013
  302.863
  302.752
  302.714
  302.742
  302.811
  302.882
  302.93
  302.952
  302.959
  302.968
  303
  303.055
  303.126
  303.203
  303.279
  303.346
  303.403
  303.449
  303.486
  303.514
  303.536
  303.55
  303.557
  303.556
  303.547
  303.527
  303.481
  303.411
  303.347
  303.323
  303.403
  303.446
  303.495
  304.087
  303.291
  303.18
  303.201
  303.263
  303.174
  302.99
  302.807
  302.698
  302.682
  302.745
  302.851
  302.956
  303.029
  303.07
  303.088
  303.11
  303.157
  303.224
  303.296
  303.369
  303.435
  303.492
  303.538
  303.574
  303.601
  303.62
  303.632
  303.639
  303.638
  303.629
  303.613
  303.587
  303.543
  303.482
  303.418
  303.38
  303.401
  303.426
  303.464
  304.311
  303.719
  303.59
  303.57
  303.414
  303.133
  302.846
  302.652
  302.592
  302.649
  302.778
  302.943
  303.086
  303.182
  303.228
  303.251
  303.285
  303.34
  303.409
  303.476
  303.536
  303.587
  303.628
  303.659
  303.681
  303.696
  303.705
  303.709
  303.707
  303.698
  303.684
  303.665
  303.64
  303.599
  303.553
  303.505
  303.479
  303.498
  303.52
  303.627
  304.637
  304.351
  304.111
  303.822
  303.191
  302.661
  302.377
  302.334
  302.466
  302.683
  302.911
  303.146
  303.297
  303.364
  303.398
  303.43
  303.471
  303.525
  303.584
  303.638
  303.682
  303.716
  303.74
  303.755
  303.764
  303.767
  303.764
  303.756
  303.744
  303.73
  303.715
  303.701
  303.689
  303.681
  303.682
  303.695
  303.722
  303.753
  303.772
  303.827
  296.155
  296.994
  298.657
  300.147
  301.248
  302.057
  302.673
  303.094
  303.301
  303.421
  303.49
  303.533
  303.567
  303.603
  303.643
  303.688
  303.731
  303.767
  303.794
  303.811
  303.821
  303.823
  303.821
  303.814
  303.804
  303.792
  303.779
  303.766
  303.754
  303.744
  303.737
  303.734
  303.739
  303.753
  303.777
  303.81
  303.854
  303.924
  296.611
  298.348
  300.318
  301.779
  302.561
  303.022
  303.301
  303.46
  303.556
  303.617
  303.659
  303.693
  303.724
  303.755
  303.786
  303.816
  303.842
  303.861
  303.872
  303.877
  303.876
  303.871
  303.863
  303.852
  303.841
  303.829
  303.817
  303.805
  303.793
  303.783
  303.775
  303.771
  303.772
  303.779
  303.795
  303.825
  303.852
  303.904
  301.941
  300.067
  299.867
  302.058
  302.952
  303.304
  303.484
  303.601
  303.681
  303.736
  303.776
  303.806
  303.831
  303.853
  303.872
  303.888
  303.903
  303.914
  303.921
  303.924
  303.923
  303.918
  303.912
  303.904
  303.894
  303.885
  303.874
  303.864
  303.853
  303.843
  303.833
  303.823
  303.814
  303.806
  303.801
  303.803
  303.811
  303.826
  303.842
  303.903
)
;

boundaryField
{
  floor
  {
    type wallHeatTransfer;
    Tinf uniform 305.2;
    alphaWall uniform 0.24;
    value nonuniform List<scalar> 29
(
  303.086
  303.464
  303.4
  303.348
  303.336
  303.349
  303.368
  303.392
  303.418
  303.444
  303.469
  303.493
  303.516
  303.539
  303.562
  303.584
  303.607
  303.633
  303.662
  303.718
  303.718
  303.673
  303.651
  303.643
  303.086
  303.464
  303.472
  303.361
  303.052
)
;
  }
  ceiling
  {
    type wallHeatTransfer;
    Tinf uniform 303.2;
    alphaWall uniform 0.24;
    value nonuniform List<scalar> 43
(
  302.025
  300.277
  300.086
  302.13
  302.969
  303.297
  303.463
  303.57
  303.641
  303.688
  303.721
  303.747
  303.767
  303.785
  303.801
  303.815
  303.826
  303.834
  303.838
  303.839
  303.835
  303.829
  303.822
  303.813
  303.804
  303.794
  303.785
  303.776
  303.767
  303.759
  303.751
  303.745
  303.74
  303.736
  303.735
  303.74
  303.748
  303.759
  303.771
  303.821
  304.571
  304.305
  297.038
)
;
  }
  sWall
  {
    type wallHeatTransfer;
    Tinf uniform 315.2;
    alphaWall uniform 0.36;
    value uniform 303.229;
  }
  nWall
  {
    type wallHeatTransfer;
    Tinf uniform 307.2;
    alphaWall uniform 0.36;
    value nonuniform List<scalar> 6
(
  304.243
  304.175
  304.079
  304.392
  304.367
  304.446
)
;
  }
  sideWalls
  {
    type empty;
  }
  glass1
  {
    type wallHeatTransfer;
    Tinf uniform 315.2;
    alphaWall uniform 4.3;
    value nonuniform List<scalar> 9
(
  311.094
  310.492
  310.116
  309.834
  309.601
  309.39
  309.244
  309.327
  309.564
)
;
  }
  glass2
  {
    type wallHeatTransfer;
    Tinf uniform 307.2;
    alphaWall uniform 4.3;
    value nonuniform List<scalar> 2
(
  305.852
  305.972
)
;
  }
  sun
  {
    type wallHeatTransfer;
    Tinf uniform 305.2;
    alphaWall uniform 0.24;
    value nonuniform List<scalar> 14
(
  303.261
  303.012
  302.997
  302.987
  302.977
  302.968
  302.958
  302.948
  302.941
  302.942
  302.954
  302.985
  303.012
  303.044
)
;
  }
  heatsource1
  {
    type fixedGradient;
    gradient uniform 0;
  }
  heatsource2
  {
    type fixedGradient;
    gradient uniform 0;
  }
  Table_master
  {
    type zeroGradient;
  }
  Table_slave
  {
    type zeroGradient;
  }
  inlet
  {
    type fixedValue;
    value uniform 293.15;
  }
  outlet
  {
    type zeroGradient;
  }
} 	// ************************************************************************* //

