// -*- C++ -*-
// File generated by PyFoam - sorry for the ugliness

FoamFile
{
 version 2.0;
 format ascii;
 class volVectorField;
 location "1000";
 object U;
}

dimensions [ 0 1 -1 0 0 0 0 ];

internalField nonuniform List<vector> 459
(
  (0.0357159 0.085533 0)
  (-0.166271 0.0251073 0)
  (-0.190408 0.0179563 0)
  (-0.221545 0.0125431 0)
  (-0.244572 0.00654803 0)
  (-0.258502 0.00016995 0)
  (-0.261772 -0.0066782 0)
  (-0.252809 -0.0140365 0)
  (-0.232011 -0.021435 0)
  (-0.200792 -0.0276262 0)
  (-0.162446 -0.0315192 0)
  (-0.121058 -0.0325453 0)
  (-0.0806998 -0.0309817 0)
  (-0.0467269 -0.0282358 0)
  (-0.0332342 -0.0262914 0)
  (-0.00450333 0.00844321 0)
  (-0.0275614 -0.0171019 0)
  (-0.00527731 -0.0264968 0)
  (0.0173887 -0.0199401 0)
  (0.0327871 -0.0134799 0)
  (0.0449672 -0.00863644 0)
  (0.0524707 -0.00505177 0)
  (0.056297 -0.00319328 0)
  (0.0580157 -0.00244157 0)
  (0.058878 -0.00211221 0)
  (0.0594121 -0.00190831 0)
  (0.0596975 -0.00174402 0)
  (0.0596778 -0.00153938 0)
  (0.0591676 -0.00113049 0)
  (0.057644 -0.000151912 0)
  (0.0539893 0.00189913 0)
  (0.0469841 0.00403039 0)
  (0.0410978 0.00553895 0)
  (-0.0150234 0.0200328 0)
  (0.211462 0.175344 0)
  (-0.156249 0.0663589 0)
  (-0.153743 0.0528992 0)
  (-0.186062 0.0416946 0)
  (-0.208867 0.0289865 0)
  (-0.223 0.0146777 0)
  (-0.226906 -0.0016288 0)
  (-0.218748 -0.0196417 0)
  (-0.199492 -0.0371061 0)
  (-0.170967 -0.0510065 0)
  (-0.136689 -0.0591006 0)
  (-0.100637 -0.0604613 0)
  (-0.0664554 -0.0556486 0)
  (-0.0379475 -0.0462567 0)
  (-0.0195086 -0.0344579 0)
  (-0.0048521 -0.0156861 0)
  (-0.00404793 0.01591 0)
  (0.0640922 0.0352073 0)
  (0.0271798 -0.0178968 0)
  (0.0347644 -0.0307027 0)
  (0.0457114 -0.0269561 0)
  (0.0543869 -0.0190563 0)
  (0.0605462 -0.011608 0)
  (0.063124 -0.00484177 0)
  (0.0635756 -0.00100909 0)
  (0.0635166 0.000609931 0)
  (0.0636204 0.00134397 0)
  (0.0638136 0.00180158 0)
  (0.0639549 0.00218499 0)
  (0.0640022 0.00265248 0)
  (0.0639125 0.00351738 0)
  (0.0631771 0.00564264 0)
  (0.0594808 0.0115729 0)
  (0.0500762 0.0164352 0)
  (0.0460807 0.0193711 0)
  (-0.0513274 0.0437485 0)
  (0.372695 0.262539 0)
  (-0.174232 0.106021 0)
  (-0.115476 0.0857522 0)
  (-0.147142 0.0655723 0)
  (-0.167411 0.0445834 0)
  (-0.180603 0.0213134 0)
  (-0.184329 -0.00528265 0)
  (-0.175544 -0.0342346 0)
  (-0.156325 -0.0615547 0)
  (-0.129467 -0.0821554 0)
  (-0.0987829 -0.0930447 0)
  (-0.0679585 -0.0935086 0)
  (-0.0395005 -0.0848928 0)
  (-0.01563 -0.0690085 0)
  (0.00201462 -0.0475021 0)
  (0.0144641 -0.0201109 0)
  (0.0200637 0.0174324 0)
  (0.111002 -0.0308825 0)
  (0.0744757 -0.0392098 0)
  (0.069069 -0.0382856 0)
  (0.0707843 -0.032073 0)
  (0.0722187 -0.023762 0)
  (0.0733757 -0.0165492 0)
  (0.0719456 -0.0133623 0)
  (0.067659 -0.00957883 0)
  (0.0645948 -0.00750705 0)
  (0.0632072 -0.00631395 0)
  (0.0626131 -0.00554563 0)
  (0.0623236 -0.00500997 0)
  (0.0623406 -0.00452241 0)
  (0.0630962 -0.00373077 0)
  (0.0657002 -0.000708464 0)
  (0.063672 0.0161092 0)
  (0.0505022 0.0277912 0)
  (0.0530311 0.0354219 0)
  (-0.0828246 0.0686005 0)
  (0.518 0.332748 0)
  (-0.21009 0.141357 0)
  (-0.0746941 0.113723 0)
  (-0.105337 0.0858877 0)
  (-0.120004 0.0590726 0)
  (-0.130007 0.0287609 0)
  (-0.131298 -0.00776495 0)
  (-0.119496 -0.0483085 0)
  (-0.0993905 -0.08504 0)
  (-0.0749699 -0.110825 0)
  (-0.049514 -0.12298 0)
  (-0.0260056 -0.12172 0)
  (-0.00508768 -0.109569 0)
  (0.0128216 -0.0885468 0)
  (0.027415 -0.0629896 0)
  (0.042817 -0.0340634 0)
  (0.0652097 -0.0030091 0)
  (0.0960548 0.0113684 0)
  (0.102498 -0.0260468 0)
  (0.0891368 -0.0348701 0)
  (0.0806684 -0.0328066 0)
  (0.0763173 -0.0279653 0)
  (0.0732563 -0.021546 0)
  (0.0714879 -0.0136306 0)
  (0.073267 -0.00837382 0)
  (0.0782131 -0.00646607 0)
  (0.0824586 -0.00539363 0)
  (0.0854205 -0.0045885 0)
  (0.0873193 -0.00362658 0)
  (0.0876573 -0.00223963 0)
  (0.0852771 -0.000181921 0)
  (0.0789439 0.00283987 0)
  (0.0661923 0.00734566 0)
  (0.0538913 0.0267075 0)
  (0.0415882 0.0431283 0)
  (0.0572489 0.056038 0)
  (-0.115888 0.091156 0)
  (0.643558 0.38724 0)
  (-0.25345 0.170424 0)
  (-0.033937 0.129899 0)
  (-0.0615976 0.0975693 0)
  (-0.0680421 0.0676027 0)
  (-0.0722153 0.0329981 0)
  (-0.0660728 -0.0120537 0)
  (-0.0484182 -0.0638835 0)
  (-0.0283013 -0.106993 0)
  (-0.00898188 -0.134219 0)
  (0.00833466 -0.144642 0)
  (0.0215889 -0.139838 0)
  (0.0320545 -0.124539 0)
  (0.0404327 -0.101973 0)
  (0.0479284 -0.0755996 0)
  (0.0565461 -0.0489203 0)
  (0.069149 -0.0281421 0)
  (0.0801804 -0.0248498 0)
  (0.0819115 -0.031582 0)
  (0.0759009 -0.0314212 0)
  (0.0681299 -0.0275977 0)
  (0.0620011 -0.0230902 0)
  (0.0576132 -0.0181713 0)
  (0.0552624 -0.0127444 0)
  (0.0556481 -0.00740213 0)
  (0.0583623 -0.00484851 0)
  (0.0613772 -0.00389761 0)
  (0.0642408 -0.00307895 0)
  (0.0668217 -0.00141514 0)
  (0.0687553 0.00168486 0)
  (0.0687798 0.00629564 0)
  (0.0663138 0.012554 0)
  (0.0607958 0.0211083 0)
  (0.0537709 0.036399 0)
  (0.0434187 0.054623 0)
  (0.0655149 0.0749764 0)
  (-0.0215293 0.103905 0)
  (0.0460466 0.0319549 0)
  (-0.0629817 -0.035111 0)
  (-0.273386 -0.0577657 0)
  (0.734557 0.432841 0)
  (-0.295418 0.190253 0)
  (-0.00273866 0.126589 0)
  (-0.0171411 0.0990633 0)
  (-0.0130581 0.0701643 0)
  (-0.00972214 0.032251 0)
  (0.0143746 -0.0260427 0)
  (0.0366815 -0.0835755 0)
  (0.0529812 -0.124994 0)
  (0.0635596 -0.148001 0)
  (0.068808 -0.154066 0)
  (0.0697968 -0.146264 0)
  (0.0680165 -0.128575 0)
  (0.0648327 -0.104805 0)
  (0.0617294 -0.0786561 0)
  (0.060124 -0.0536411 0)
  (0.06104 -0.0341268 0)
  (0.0617649 -0.0251419 0)
  (0.0585994 -0.0235021 0)
  (0.0517443 -0.0225932 0)
  (0.0440728 -0.0203277 0)
  (0.0378809 -0.017504 0)
  (0.0336578 -0.014495 0)
  (0.0316164 -0.0113308 0)
  (0.0318813 -0.00860344 0)
  (0.0339941 -0.00760632 0)
  (0.036947 -0.00747055 0)
  (0.0403189 -0.0069973 0)
  (0.0439251 -0.00521626 0)
  (0.04748 -0.00126197 0)
  (0.0506601 0.00516692 0)
  (0.0522132 0.0136568 0)
  (0.0524583 0.0243737 0)
  (0.0528041 0.038921 0)
  (0.0514028 0.0569037 0)
  (0.0738894 0.0799987 0)
  (0.0529765 0.0979841 0)
  (0.0935525 0.068481 0)
  (0.116642 0.0448485 0)
  (-0.130255 -0.00775295 0)
  (0.784888 0.474303 0)
  (-0.316558 0.176036 0)
  (0.0232436 0.0776761 0)
  (0.0401083 0.0771987 0)
  (0.0538541 0.0587147 0)
  (0.0719647 0.0138983 0)
  (0.108834 -0.050614 0)
  (0.130263 -0.10212 0)
  (0.138701 -0.135258 0)
  (0.137002 -0.15062 0)
  (0.12768 -0.150711 0)
  (0.113418 -0.138955 0)
  (0.0967485 -0.11913 0)
  (0.079818 -0.0950378 0)
  (0.064396 -0.0700554 0)
  (0.0517083 -0.0471216 0)
  (0.0423885 -0.0295668 0)
  (0.0352169 -0.0198547 0)
  (0.0281922 -0.0163236 0)
  (0.0208583 -0.015122 0)
  (0.0141604 -0.0139843 0)
  (0.00903117 -0.0127803 0)
  (0.0056974 -0.0116362 0)
  (0.00422212 -0.0105727 0)
  (0.00456199 -0.00993387 0)
  (0.00627875 -0.0101771 0)
  (0.00875506 -0.0107471 0)
  (0.0117523 -0.0108154 0)
  (0.0153204 -0.00953766 0)
  (0.0195832 -0.00591247 0)
  (0.0255041 0.00106819 0)
  (0.031415 0.0104433 0)
  (0.0369052 0.0213392 0)
  (0.0438951 0.0343425 0)
  (0.0515026 0.0492333 0)
  (0.0736225 0.0679849 0)
  (0.0866252 0.0758334 0)
  (0.118883 0.052964 0)
  (0.158753 0.0443649 0)
  (-0.0358859 0.0943427 0)
  (0.889022 0.477851 0)
  (-0.074113 0.155986 0)
  (0.10434 0.00538277 0)
  (0.165439 -0.00989615 0)
  (0.175489 -0.0230129 0)
  (0.206997 -0.0580325 0)
  (0.231231 -0.0927451 0)
  (0.236896 -0.119043 0)
  (0.225913 -0.13397 0)
  (0.203125 -0.137173 0)
  (0.173128 -0.130001 0)
  (0.139976 -0.114903 0)
  (0.106781 -0.0945166 0)
  (0.0758939 -0.071942 0)
  (0.0490328 -0.0499007 0)
  (0.0272454 -0.0306106 0)
  (0.0114743 -0.0170491 0)
  (0.000684873 -0.010315 0)
  (-0.0069235 -0.0085331 0)
  (-0.0129029 -0.00859821 0)
  (-0.0177729 -0.00893165 0)
  (-0.0214438 -0.00928888 0)
  (-0.0239554 -0.00969786 0)
  (-0.0253543 -0.0102073 0)
  (-0.0257594 -0.0109569 0)
  (-0.0254974 -0.0120222 0)
  (-0.0249165 -0.0131294 0)
  (-0.0241137 -0.0138592 0)
  (-0.0229286 -0.0137363 0)
  (-0.020976 -0.0121859 0)
  (-0.0172805 -0.00845563 0)
  (-0.00821593 -0.00177275 0)
  (0.000456857 0.00688664 0)
  (0.0110226 0.0153224 0)
  (0.0227361 0.0226098 0)
  (0.0427416 0.0301661 0)
  (0.0615459 0.023203 0)
  (0.0813227 -0.00486886 0)
  (0.140842 0.0401328 0)
  (-0.415007 0.207386 0)
  (1.03293 0.431039 0)
  (0.49775 0.286038 0)
  (0.503291 0.194382 0)
  (0.508487 0.125643 0)
  (0.478808 0.0757326 0)
  (0.440324 0.0245262 0)
  (0.393722 -0.0245428 0)
  (0.343085 -0.0617423 0)
  (0.288472 -0.0831158 0)
  (0.232147 -0.0895906 0)
  (0.177021 -0.0847024 0)
  (0.125779 -0.0724789 0)
  (0.0797706 -0.0557829 0)
  (0.0402612 -0.0378004 0)
  (0.0079041 -0.0210772 0)
  (-0.0162625 -0.00853712 0)
  (-0.0291527 -0.00346334 0)
  (-0.03675 -0.00225905 0)
  (-0.0417412 -0.00291836 0)
  (-0.0457327 -0.00417267 0)
  (-0.0492088 -0.00544977 0)
  (-0.0522412 -0.00665776 0)
  (-0.0549018 -0.0078254 0)
  (-0.0572658 -0.00898905 0)
  (-0.059479 -0.01018 0)
  (-0.0618131 -0.011357 0)
  (-0.0645782 -0.012307 0)
  (-0.0680575 -0.0126674 0)
  (-0.0725723 -0.0119229 0)
  (-0.0785886 -0.00938614 0)
  (-0.0867201 -0.0042438 0)
  (-0.0970253 0.00410722 0)
  (-0.10732 0.0151186 0)
  (-0.122577 0.0290052 0)
  (-0.146689 0.045872 0)
  (-0.182197 0.0645135 0)
  (-0.232495 0.080812 0)
  (-0.289914 0.0921837 0)
  (-0.35912 0.0985934 0)
  (-0.622861 0.100585 0)
  (-0.154971 0.0879305 0)
  (0.139213 0.0729789 0)
  (0.225459 0.0206267 0)
  (0.210627 -0.0177503 0)
  (0.196223 -0.0367076 0)
  (0.175569 -0.0458983 0)
  (0.14478 -0.0478655 0)
  (0.107298 -0.0439975 0)
  (0.0674093 -0.035963 0)
  (0.029067 -0.0250393 0)
  (-0.00828078 -0.0110558 0)
  (-0.0373602 -0.000363155 0)
  (-0.0551963 0.0047535 0)
  (-0.0648252 0.00618107 0)
  (-0.0694155 0.00560381 0)
  (-0.0721956 0.00456876 0)
  (-0.0743787 0.00336793 0)
  (-0.0766614 0.00213451 0)
  (-0.0792857 0.000861578 0)
  (-0.0821552 -0.000385297 0)
  (-0.0852839 -0.00156584 0)
  (-0.0887046 -0.00263771 0)
  (-0.092478 -0.00352505 0)
  (-0.096703 -0.00409837 0)
  (-0.101452 -0.00413739 0)
  (-0.106718 -0.00334209 0)
  (-0.112394 -0.00135983 0)
  (-0.118245 0.00217451 0)
  (-0.123666 0.00766842 0)
  (-0.127815 0.0158305 0)
  (-0.131209 0.0277833 0)
  (-0.134144 0.0439115 0)
  (-0.137444 0.0633554 0)
  (-0.141651 0.0824314 0)
  (-0.143602 0.0910702 0)
  (-0.12665 0.0681686 0)
  (-0.0845236 -0.0259521 0)
  (-0.280036 -0.204431 0)
  (-0.0330538 0.235203 0)
  (0.0652106 0.107816 0)
  (0.0435234 0.0268922 0)
  (0.0316241 0.00139875 0)
  (0.028044 -0.00683822 0)
  (0.0142917 -0.0120313 0)
  (-0.00945043 -0.0118351 0)
  (-0.0358395 -0.00732145 0)
  (-0.0607134 -0.00214318 0)
  (-0.0798673 0.00176738 0)
  (-0.0916025 0.00337254 0)
  (-0.0959112 0.00201867 0)
  (-0.097465 -0.000716287 0)
  (-0.0975777 -0.00392921 0)
  (-0.0975308 -0.00726649 0)
  (-0.0979057 -0.0102165 0)
  (-0.0987476 -0.012626 0)
  (-0.0999835 -0.0144083 0)
  (-0.101519 -0.0155517 0)
  (-0.103428 -0.0161907 0)
  (-0.105664 -0.0163629 0)
  (-0.108211 -0.0163142 0)
  (-0.111046 -0.0160601 0)
  (-0.114107 -0.0155527 0)
  (-0.117258 -0.0146606 0)
  (-0.120258 -0.0131481 0)
  (-0.12274 -0.0106506 0)
  (-0.124191 -0.00662687 0)
  (-0.124037 -0.000755741 0)
  (-0.121316 0.00751615 0)
  (-0.11457 0.019074 0)
  (-0.102506 0.034689 0)
  (-0.0848517 0.0539806 0)
  (-0.0625542 0.072937 0)
  (-0.0383867 0.0842389 0)
  (0.00129151 0.0689787 0)
  (0.143978 -0.00300179 0)
  (-0.208021 -0.115581 0)
  (-0.109376 -0.350994 0)
  (-0.440721 -0.118995 0)
  (-0.311643 0.100414 0)
  (-0.22002 -0.0195156 0)
  (-0.170582 -0.0464269 0)
  (-0.152674 -0.0368574 0)
  (-0.149304 -0.0243258 0)
  (-0.151155 -0.013468 0)
  (-0.15401 -0.00374163 0)
  (-0.153973 0.00443997 0)
  (-0.150839 0.0115396 0)
  (-0.145347 0.0179195 0)
  (-0.13807 0.0234745 0)
  (-0.13027 0.0280047 0)
  (-0.123139 0.0318942 0)
  (-0.11715 0.0353906 0)
  (-0.112487 0.0385583 0)
  (-0.109037 0.0412631 0)
  (-0.10662 0.0432424 0)
  (-0.105091 0.044324 0)
  (-0.104321 0.044485 0)
  (-0.104213 0.0438412 0)
  (-0.104678 0.0425154 0)
  (-0.105637 0.0409158 0)
  (-0.10701 0.0391507 0)
  (-0.108683 0.0373047 0)
  (-0.110479 0.035455 0)
  (-0.11212 0.0336739 0)
  (-0.113178 0.0320281 0)
  (-0.112979 0.0305974 0)
  (-0.110303 0.0300731 0)
  (-0.103264 0.0311292 0)
  (-0.089376 0.0345049 0)
  (-0.0667038 0.0410882 0)
  (-0.0357188 0.0514186 0)
  (0.0129683 0.0653625 0)
  (0.0589776 0.0671036 0)
  (0.102315 0.0518405 0)
  (0.164694 0.0216869 0)
  (-0.217175 -0.034528 0)
)
;

boundaryField
{
  floor
  {
    type noSlip;
  }
  ceiling
  {
    type noSlip;
  }
  sWall
  {
    type noSlip;
  }
  nWall
  {
    type noSlip;
  }
  sideWalls
  {
    type empty;
  }
  glass1
  {
    type noSlip;
  }
  glass2
  {
    type noSlip;
  }
  sun
  {
    type noSlip;
  }
  heatsource1
  {
    type noSlip;
  }
  heatsource2
  {
    type noSlip;
  }
  Table_master
  {
    type noSlip;
  }
  Table_slave
  {
    type noSlip;
  }
  inlet
  {
    type fixedValue;
    value uniform (0.3 0 0);
  }
  outlet
  {
    type zeroGradient;
  }
} 	// ************************************************************************* //

