// -*- C++ -*-
// File generated by PyFoam - sorry for the ugliness

FoamFile
{
 version 2.0;
 format ascii;
 class volScalarField;
 location "200";
 object T;
}

dimensions [ 0 0 0 1 0 0 0 ];

internalField nonuniform List<scalar> 459
(
  302.376
  302.014
  302.012
  302.027
  302.04
  302.051
  302.06
  302.068
  302.075
  302.081
  302.083
  302.081
  302.074
  302.065
  302.053
  300.767
  300.756
  300.762
  300.722
  300.681
  300.683
  300.696
  300.692
  300.663
  300.65
  300.645
  300.648
  300.658
  300.677
  300.722
  300.793
  300.84
  300.831
  300.825
  302.644
  302.11
  302.077
  302.095
  302.117
  302.136
  302.153
  302.167
  302.179
  302.186
  302.186
  302.176
  302.156
  302.121
  302.071
  302.016
  301.849
  300.867
  300.895
  300.925
  300.956
  300.952
  300.86
  300.801
  300.764
  300.763
  300.767
  300.783
  300.812
  300.858
  300.937
  301.043
  301.155
  301.138
  300.997
  300.874
  302.888
  302.221
  302.152
  302.174
  302.205
  302.235
  302.262
  302.285
  302.303
  302.315
  302.315
  302.301
  302.269
  302.215
  302.14
  302.051
  301.97
  301.326
  301.27
  301.287
  301.343
  301.398
  301.439
  300.956
  300.863
  300.932
  300.999
  301.065
  301.134
  301.206
  301.284
  301.375
  301.458
  301.328
  301.264
  301.21
  303.11
  302.34
  302.231
  302.251
  302.294
  302.337
  302.378
  302.414
  302.443
  302.462
  302.467
  302.454
  302.418
  302.356
  302.267
  302.149
  302.008
  301.88
  301.77
  301.792
  301.879
  301.983
  302.073
  302.13
  302.173
  302.179
  302.183
  302.188
  302.192
  302.195
  302.199
  302.2
  302.174
  302.063
  302.008
  301.981
  301.977
  303.314
  302.466
  302.318
  302.326
  302.378
  302.434
  302.49
  302.541
  302.586
  302.618
  302.633
  302.628
  302.6
  302.551
  302.482
  302.401
  302.318
  302.246
  302.196
  302.187
  302.208
  302.237
  302.258
  302.271
  302.278
  302.282
  302.287
  302.294
  302.305
  302.317
  302.331
  302.346
  302.359
  302.362
  302.383
  302.418
  302.457
  302.493
  302.476
  302.473
  303.489
  302.606
  302.436
  302.41
  302.457
  302.522
  302.591
  302.658
  302.719
  302.768
  302.795
  302.799
  302.78
  302.739
  302.68
  302.609
  302.536
  302.472
  302.424
  302.397
  302.385
  302.38
  302.376
  302.372
  302.368
  302.366
  302.367
  302.374
  302.389
  302.41
  302.437
  302.467
  302.499
  302.533
  302.569
  302.602
  302.629
  302.64
  302.563
  302.51
  303.638
  302.809
  302.661
  302.582
  302.575
  302.624
  302.691
  302.766
  302.844
  302.904
  302.942
  302.957
  302.949
  302.92
  302.872
  302.808
  302.739
  302.673
  302.618
  302.576
  302.544
  302.521
  302.501
  302.483
  302.467
  302.452
  302.443
  302.442
  302.454
  302.479
  302.513
  302.551
  302.588
  302.622
  302.651
  302.674
  302.689
  302.691
  302.662
  302.526
  303.876
  303.248
  303.144
  303.015
  302.9
  302.859
  302.874
  302.92
  302.987
  303.039
  303.074
  303.094
  303.098
  303.085
  303.053
  303.002
  302.939
  302.875
  302.815
  302.762
  302.718
  302.68
  302.646
  302.616
  302.586
  302.557
  302.531
  302.511
  302.504
  302.515
  302.542
  302.577
  302.614
  302.648
  302.677
  302.701
  302.725
  302.753
  302.782
  302.824
  304.202
  303.948
  303.943
  303.755
  303.532
  303.384
  303.302
  303.263
  303.239
  303.229
  303.231
  303.235
  303.236
  303.228
  303.209
  303.177
  303.13
  303.076
  303.018
  302.961
  302.909
  302.861
  302.817
  302.775
  302.734
  302.693
  302.651
  302.611
  302.578
  302.559
  302.554
  302.564
  302.582
  302.597
  302.606
  302.61
  302.628
  302.659
  302.705
  302.83
  305.465
  304.062
  303.752
  303.606
  303.524
  303.476
  303.449
  303.429
  303.414
  303.403
  303.391
  303.377
  303.358
  303.333
  303.299
  303.258
  303.21
  303.159
  303.107
  303.055
  303.005
  302.956
  302.908
  302.859
  302.809
  302.758
  302.708
  302.663
  302.627
  302.605
  302.596
  302.593
  302.591
  302.589
  302.593
  302.605
  302.628
  302.683
  305.077
  304.231
  303.953
  303.807
  303.722
  303.671
  303.638
  303.614
  303.592
  303.572
  303.552
  303.53
  303.507
  303.481
  303.452
  303.419
  303.381
  303.339
  303.295
  303.247
  303.199
  303.149
  303.099
  303.048
  302.995
  302.94
  302.884
  302.826
  302.77
  302.723
  302.686
  302.661
  302.644
  302.633
  302.631
  302.635
  302.648
  302.7
  305.005
  304.983
  305.006
  304.52
  304.236
  304.071
  303.973
  303.907
  303.859
  303.821
  303.787
  303.754
  303.722
  303.691
  303.661
  303.63
  303.599
  303.568
  303.535
  303.502
  303.468
  303.432
  303.395
  303.356
  303.316
  303.274
  303.231
  303.185
  303.136
  303.082
  303.023
  302.962
  302.904
  302.854
  302.814
  302.785
  302.759
  302.736
  302.715
  302.732
)
;

boundaryField
{
  floor
  {
    type wallHeatTransfer;
    Tinf uniform 305.2;
    alphaWall uniform 0.24;
    value nonuniform List<scalar> 29
(
  302.451
  301.739
  301.676
  301.666
  301.76
  301.901
  301.975
  302.003
  302.004
  301.952
  301.884
  301.811
  301.746
  301.695
  301.659
  301.633
  301.631
  301.64
  301.643
  301.703
  301.703
  301.618
  301.78
  302.319
  302.451
  301.739
  301.653
  301.799
  302.216
)
;
  }
  ceiling
  {
    type wallHeatTransfer;
    Tinf uniform 303.2;
    alphaWall uniform 0.24;
    value nonuniform List<scalar> 43
(
  304.913
  304.907
  304.945
  304.471
  304.191
  304.028
  303.93
  303.864
  303.816
  303.777
  303.742
  303.709
  303.677
  303.647
  303.616
  303.587
  303.557
  303.527
  303.497
  303.467
  303.436
  303.404
  303.371
  303.337
  303.302
  303.265
  303.227
  303.186
  303.144
  303.096
  303.044
  302.988
  302.935
  302.889
  302.852
  302.826
  302.803
  302.783
  302.764
  302.782
  304.16
  303.92
  305.026
)
;
  }
  sWall
  {
    type wallHeatTransfer;
    Tinf uniform 315.2;
    alphaWall uniform 0.36;
    value uniform 305.77;
  }
  nWall
  {
    type wallHeatTransfer;
    Tinf uniform 307.2;
    alphaWall uniform 0.36;
    value nonuniform List<scalar> 6
(
  303.163
  303.176
  303.199
  303.201
  303.268
  303.412
)
;
  }
  sideWalls
  {
    type empty;
  }
  glass1
  {
    type wallHeatTransfer;
    Tinf uniform 315.2;
    alphaWall uniform 4.3;
    value nonuniform List<scalar> 9
(
  311.983
  310.724
  309.977
  309.475
  309.135
  308.886
  308.705
  308.809
  309.091
)
;
  }
  glass2
  {
    type wallHeatTransfer;
    Tinf uniform 307.2;
    alphaWall uniform 4.3;
    value nonuniform List<scalar> 2
(
  305.554
  305.466
)
;
  }
  sun
  {
    type wallHeatTransfer;
    Tinf uniform 305.2;
    alphaWall uniform 0.24;
    value nonuniform List<scalar> 14
(
  302.77
  302.455
  302.507
  302.511
  302.509
  302.507
  302.504
  302.501
  302.497
  302.492
  302.486
  302.478
  302.469
  302.459
)
;
  }
  heatsource1
  {
    type fixedGradient;
    gradient uniform 0;
  }
  heatsource2
  {
    type fixedGradient;
    gradient uniform 0;
  }
  Table_master
  {
    type zeroGradient;
  }
  Table_slave
  {
    type zeroGradient;
  }
  inlet
  {
    type fixedValue;
    value uniform 293.15;
  }
  outlet
  {
    type zeroGradient;
  }
} 	// ************************************************************************* //

