/*--------------------------------*- C++ -*----------------------------------*\
  =========                 |
  \\      /  F ield         | OpenFOAM: The Open Source CFD Toolbox
   \\    /   O peration     | Website:  https://openfoam.org
    \\  /    A nd           | Version:  6
     \\/     M anipulation  |
\*---------------------------------------------------------------------------*/
FoamFile
{
    version     2.0;
    format      ascii;
    class       volScalarField;
    location    "1700";
    object      alphat;
}
// * * * * * * * * * * * * * * * * * * * * * * * * * * * * * * * * * * * * * //

dimensions      [1 -1 -1 0 0 0 0];

internalField   nonuniform List<scalar> 
459
(
0.00123657
0.00134935
0.00137489
0.0014405
0.00150131
0.0015587
0.00161574
0.00167019
0.00170846
0.00172324
0.00170754
0.00165641
0.00156744
0.00144315
0.00129715
0.000539806
0.000644652
0.000728676
0.000736104
0.000715451
0.000685415
0.000643394
0.000600482
0.000561421
0.000526817
0.000496246
0.000469154
0.000445078
0.000423549
0.000403782
0.0003848
0.000365256
0.000353037
0.000323089
0.00168314
0.00399728
0.00378283
0.00438713
0.00497934
0.0055732
0.00608927
0.00649145
0.00686558
0.00717729
0.00738396
0.00744165
0.00729732
0.00682534
0.00549795
0.00132085
0.000821061
0.000562883
0.00118801
0.00166712
0.00203099
0.00224709
0.00225916
0.00178409
0.00153251
0.00135444
0.00121868
0.00111146
0.00102462
0.00095096
0.000882236
0.000815429
0.000755938
0.000703411
0.000834557
0.000429477
0.00205426
0.00542285
0.00461445
0.0057457
0.00626422
0.00664105
0.00693582
0.0071964
0.0074998
0.00782939
0.00814648
0.00839232
0.00851356
0.00842088
0.00785551
0.00602655
0.00136109
0.00105796
0.00154424
0.00201688
0.00247697
0.00282021
0.00278729
0.000914625
0.000808916
0.000723078
0.000653408
0.000596467
0.000549504
0.000510485
0.000478099
0.000451783
0.00048832
0.000563994
0.000942903
0.000501456
0.00241062
0.00693725
0.00455659
0.00600016
0.00638964
0.00648168
0.00655989
0.00670808
0.00696327
0.00730668
0.0077017
0.00806494
0.00833903
0.00844692
0.00833007
0.00767992
0.00514819
0.00159267
0.00191119
0.00244327
0.00302845
0.00355206
0.00391522
0.00373104
0.00103548
0.000947516
0.000884966
0.000837444
0.000796813
0.000758703
0.000721925
0.000683039
0.000637652
0.000598552
0.000604981
0.00109574
0.000558387
0.00277375
0.00891206
0.00492734
0.00572267
0.00625775
0.00619809
0.00614463
0.00625768
0.00649729
0.00684831
0.0072845
0.0076836
0.00796385
0.00807378
0.00801449
0.00775724
0.00710068
0.00601746
0.00565239
0.00559887
0.00566094
0.00573379
0.00574889
0.00557379
0.00474051
0.00433834
0.00410573
0.00392462
0.00373146
0.00345442
0.00307006
0.00259749
0.00207
0.00154526
0.0011403
0.00112122
0.000760946
0.00068962
0.000831465
0.000933943
0.00315929
0.0110766
0.00677676
0.00553635
0.00605289
0.00621775
0.00605181
0.00615746
0.00635625
0.00668159
0.00710576
0.00752136
0.00779951
0.00786323
0.00773034
0.00750017
0.00728323
0.00714765
0.00716535
0.00720553
0.00718357
0.00708775
0.00692099
0.00666845
0.00628256
0.00593414
0.00562397
0.00532627
0.00502494
0.00470426
0.00429927
0.00379016
0.00317608
0.00249439
0.00188161
0.00138235
0.00105817
0.000902568
0.00128141
0.000976981
0.00352075
0.0126349
0.00970882
0.00702867
0.00656355
0.006597
0.00643037
0.00633768
0.0064342
0.00674378
0.00719075
0.00762678
0.00789146
0.00789672
0.00768405
0.00743332
0.00738043
0.00759566
0.00785878
0.0079499
0.0078369
0.00757562
0.00721588
0.00679297
0.006344
0.00593133
0.00555989
0.00521938
0.00490812
0.00463246
0.0043924
0.00406671
0.00359947
0.00302292
0.00246043
0.00193916
0.0015717
0.00146836
0.00150253
0.00112383
0.00359656
0.0114462
0.00993844
0.00881255
0.00812513
0.00735726
0.00671505
0.00644749
0.00657192
0.00698986
0.00752924
0.0079873
0.00818733
0.00807109
0.00775044
0.00750933
0.0076204
0.00797354
0.00812483
0.00796819
0.00758892
0.00707237
0.00649429
0.00592802
0.00543208
0.00502579
0.00469333
0.00442107
0.00420793
0.00405959
0.00398276
0.00395172
0.00373189
0.00337524
0.00306002
0.00291297
0.0030623
0.00354412
0.0043083
0.00174077
0.00350621
0.00419038
0.00473735
0.00491202
0.0049297
0.00504875
0.00538582
0.00597136
0.0067527
0.00757598
0.00824768
0.0086001
0.00852349
0.00809594
0.0076427
0.0075696
0.00765629
0.00766266
0.00742904
0.00695677
0.00633354
0.00565941
0.00503062
0.00451009
0.00411082
0.00380951
0.00357587
0.00338877
0.00323406
0.00309934
0.00297297
0.002852
0.00275443
0.00268098
0.00265344
0.0026632
0.00263994
0.00252176
0.00234815
0.00162681
0.00216613
0.00383564
0.00529431
0.0065111
0.00749749
0.00838196
0.00906876
0.00941167
0.0093629
0.00894335
0.00821962
0.00741112
0.00692475
0.00675244
0.00655773
0.00619023
0.00565612
0.00503402
0.00440714
0.00385426
0.00342485
0.00311597
0.00290083
0.00275126
0.00264719
0.00257639
0.00253153
0.00250865
0.00250935
0.0025349
0.00256955
0.002609
0.0026436
0.00264397
0.00256384
0.00239051
0.00214112
0.00133423
0.00251896
0.00536659
0.00733427
0.00824815
0.00886098
0.00928222
0.00923565
0.00864901
0.00775956
0.00681149
0.00602025
0.00545054
0.00507005
0.00472541
0.00430683
0.00383253
0.00336142
0.00295107
0.00263377
0.00241008
0.00225734
0.00215723
0.00210141
0.00208103
0.002089
0.00212048
0.00217109
0.00223531
0.00231935
0.00241959
0.00253268
0.00265052
0.00275435
0.00282245
0.00279865
0.0028109
0.00277708
0.00135715
0.00215155
0.00226622
0.00235069
0.00241797
0.00218744
0.00200774
0.00192216
0.00183523
0.0017095
0.00155427
0.00137789
0.00120337
0.00104934
0.000927484
0.000839459
0.000777346
0.000732577
0.000700292
0.000678614
0.000666768
0.000663776
0.000668349
0.000679322
0.000696096
0.000717525
0.000743278
0.000773469
0.000808445
0.000848902
0.000896143
0.000949402
0.00100888
0.00107529
0.00114928
0.00123055
0.00132848
0.00135895
0.00132386
0.00123962
0.0011494
)
;

boundaryField
{
    floor
    {
        type            compressible::alphatWallFunction;
        Prt             0.85;
        value           nonuniform List<scalar> 
29
(
0.000183494
7.53081e-05
9.10316e-05
0.000103406
0.000104491
0.00010147
9.7058e-05
9.08452e-05
8.44491e-05
7.85782e-05
7.33348e-05
6.86667e-05
6.44997e-05
6.0771e-05
5.74148e-05
5.43143e-05
5.13184e-05
4.82138e-05
4.62619e-05
4.14404e-05
4.14398e-05
5.83414e-05
6.94652e-05
7.81209e-05
0.000183492
7.53071e-05
7.87984e-05
0.000150431
0.000223408
)
;
    }
    ceiling
    {
        type            compressible::alphatWallFunction;
        Prt             0.85;
        value           nonuniform List<scalar> 
43
(
0.000296677
0.000311452
0.000322288
0.000331005
0.000301478
0.000278213
0.000267058
0.000255666
0.000239075
0.0002184
0.000194622
0.000170752
0.000149354
0.000132167
0.000119587
0.000110617
0.000104098
9.93673e-05
9.61761e-05
9.44271e-05
9.39848e-05
9.4661e-05
9.6281e-05
9.87514e-05
0.000101897
0.000105662
0.000110056
0.000115121
0.000120946
0.000127708
0.00013528
0.000143679
0.000152988
0.000163281
0.000174502
0.00018791
0.000192058
0.00018728
0.00017575
0.000163303
0.000467332
0.00055055
0.000343623
)
;
    }
    sWall
    {
        type            compressible::alphatWallFunction;
        Prt             0.85;
        value           uniform 0.000295457;
    }
    nWall
    {
        type            compressible::alphatWallFunction;
        Prt             0.85;
        value           nonuniform List<scalar> 6(0.000132762 0.00013885 0.000159407 0.000188364 0.000191482 0.000162976);
    }
    sideWalls
    {
        type            empty;
    }
    glass1
    {
        type            compressible::alphatWallFunction;
        Prt             0.85;
        value           nonuniform List<scalar> 9(0.000170889 0.000230339 0.00027854 0.000324029 0.000369716 0.000417585 0.00046196 0.000471338 0.000460542);
    }
    glass2
    {
        type            compressible::alphatWallFunction;
        Prt             0.85;
        value           nonuniform List<scalar> 2(0.00024145 0.000226451);
    }
    sun
    {
        type            compressible::alphatWallFunction;
        Prt             0.85;
        value           nonuniform List<scalar> 
14
(
0.000175211
0.000190618
0.000194088
0.000202974
0.000211169
0.000218868
0.00022649
0.000233739
0.000238817
0.000240774
0.000238694
0.000231903
0.000220035
0.000203328
)
;
    }
    heatsource1
    {
        type            compressible::alphatWallFunction;
        Prt             0.85;
        value           nonuniform List<scalar> 3(9.77905e-05 0.000118431 0.000133079);
    }
    heatsource2
    {
        type            compressible::alphatWallFunction;
        Prt             0.85;
        value           nonuniform List<scalar> 4(0.00018686 0.000116933 0.000116931 0.000192338);
    }
    Table_master
    {
        type            compressible::alphatWallFunction;
        Prt             0.85;
        value           nonuniform List<scalar> 9(0.00013033 0.000115178 0.000102699 9.24401e-05 8.39557e-05 7.6883e-05 7.09493e-05 6.5981e-05 6.19125e-05);
    }
    Table_slave
    {
        type            compressible::alphatWallFunction;
        Prt             0.85;
        value           nonuniform List<scalar> 9(0.000147407 0.000135005 0.000126104 0.000119292 0.000113431 0.000107901 0.000102533 9.68211e-05 9.0104e-05);
    }
    inlet
    {
        type            fixedValue;
        value           uniform 1.94e-05;
    }
    outlet
    {
        type            zeroGradient;
    }
}


// ************************************************************************* //
