/*--------------------------------*- C++ -*----------------------------------*\
  =========                 |
  \\      /  F ield         | OpenFOAM: The Open Source CFD Toolbox
   \\    /   O peration     | Website:  https://openfoam.org
    \\  /    A nd           | Version:  6
     \\/     M anipulation  |
\*---------------------------------------------------------------------------*/
FoamFile
{
    version     2.0;
    format      ascii;
    class       volScalarField;
    location    "1700";
    object      epsilon;
}
// * * * * * * * * * * * * * * * * * * * * * * * * * * * * * * * * * * * * * //

dimensions      [0 2 -3 0 0 0 0];

internalField   nonuniform List<scalar> 
459
(
0.00042775
0.000554346
0.000586344
0.000674333
0.000763368
0.000854252
0.000951466
0.00105088
0.00112469
0.00115401
0.00112261
0.00102464
0.000868196
0.000677598
0.000492081
3.54942e-05
6.04416e-05
8.72831e-05
8.99816e-05
8.26213e-05
7.2649e-05
6.00919e-05
4.8854e-05
3.99286e-05
3.29924e-05
2.75767e-05
2.33032e-05
1.98973e-05
1.7148e-05
1.4858e-05
1.286e-05
1.09988e-05
9.93206e-06
7.61433e-06
0.00108067
0.00157941
0.000520451
0.000503617
0.000526156
0.000565682
0.000626567
0.000707455
0.000784818
0.000833015
0.000831709
0.000775206
0.000672011
0.000544497
0.000439332
0.000519458
0.000124769
4.02476e-05
9.50496e-05
0.000106097
9.95262e-05
8.68886e-05
7.42262e-05
6.80861e-05
5.50741e-05
4.3455e-05
3.42852e-05
2.72501e-05
2.18768e-05
1.77662e-05
1.46362e-05
1.23381e-05
1.0926e-05
1.03205e-05
2.6216e-05
1.7883e-05
0.00196847
0.00388282
0.000639309
0.000476851
0.000497556
0.000558048
0.000650372
0.00076785
0.000876085
0.000940645
0.000943964
0.000887246
0.000782143
0.000654358
0.000535726
0.000477532
0.000568436
0.000267119
0.0002101
0.000167526
0.000134574
0.000108917
9.34228e-05
0.000172635
0.000119429
8.53009e-05
6.29438e-05
4.78804e-05
3.7438e-05
3.00158e-05
2.46579e-05
2.08063e-05
1.58642e-05
1.32928e-05
4.93813e-05
2.84653e-05
0.00318704
0.00807828
0.0010082
0.000478846
0.000482346
0.000567195
0.000706457
0.000881983
0.00101953
0.00108593
0.00107751
0.00100537
0.000880259
0.000733687
0.000604549
0.000520762
0.000502351
0.000910942
0.000527468
0.00032486
0.000221768
0.000162574
0.000125581
0.000108354
0.000250611
0.000192033
0.000156471
0.000132602
0.000114229
9.86152e-05
8.4961e-05
7.19599e-05
5.85479e-05
3.47948e-05
2.24798e-05
8.18355e-05
3.93054e-05
0.00486428
0.0144482
0.00199316
0.000559426
0.000484694
0.000597337
0.000848306
0.0011116
0.00125801
0.00130079
0.00125967
0.00115275
0.00099442
0.000810807
0.000633646
0.000489021
0.000390769
0.00034989
0.000287952
0.000231556
0.000186032
0.000150175
0.000122309
0.000102968
9.94562e-05
9.29983e-05
8.67399e-05
8.05054e-05
7.37516e-05
6.63378e-05
5.89102e-05
5.1837e-05
4.53209e-05
3.63653e-05
2.78786e-05
5.87851e-05
4.53439e-05
7.40989e-05
0.000129932
0.00018415
0.00719983
0.0215166
0.00449891
0.00104456
0.000681456
0.000795856
0.0013012
0.00156709
0.00164463
0.0016178
0.00152158
0.0013639
0.00115211
0.000911007
0.000677143
0.000485342
0.00035431
0.000281332
0.000237363
0.000201921
0.000169282
0.000140684
0.000117508
0.000101063
9.28204e-05
8.94653e-05
8.77305e-05
8.55643e-05
8.174e-05
7.53106e-05
6.61274e-05
5.64644e-05
4.75827e-05
3.9623e-05
3.43694e-05
4.48249e-05
4.68889e-05
5.7298e-05
0.000240101
0.000210729
0.00997992
0.0257695
0.00938887
0.00345447
0.00221722
0.00219669
0.00240384
0.00237895
0.00224843
0.0020804
0.00188228
0.00163903
0.00134636
0.00102917
0.000729647
0.000491949
0.000337261
0.000254393
0.000210438
0.000178785
0.000150705
0.000127072
0.000109505
9.8907e-05
9.53728e-05
9.67126e-05
9.99506e-05
0.000103305
0.000105546
0.000104968
9.83201e-05
8.70915e-05
7.58672e-05
6.63261e-05
6.25024e-05
6.98578e-05
8.9312e-05
0.000143261
0.000328773
0.000320709
0.0106622
0.0287103
0.0156126
0.00995447
0.00707469
0.00547204
0.00433791
0.00357542
0.00305761
0.00267295
0.00232812
0.00196002
0.0015495
0.0011295
0.000748325
0.000464061
0.000295911
0.000213774
0.000174046
0.000147253
0.000125804
0.000110136
0.00010079
9.76595e-05
0.000100039
0.000106519
0.00011579
0.000127426
0.000141508
0.000157944
0.000175699
0.000187173
0.000196908
0.000218077
0.000262488
0.000396219
0.000735509
0.00138902
0.0040266
0.00119381
0.00990951
0.016868
0.0135339
0.0102232
0.00780234
0.00615264
0.00503843
0.00427784
0.00372999
0.00326582
0.00278623
0.00224472
0.00165253
0.00109624
0.000620179
0.000333357
0.000213475
0.000160277
0.000132244
0.000113479
0.000100482
9.28774e-05
9.0424e-05
9.26404e-05
9.89213e-05
0.000108769
0.000122165
0.000139815
0.000163108
0.00019409
0.00023551
0.000291402
0.000368458
0.000484371
0.000655244
0.000886909
0.00115134
0.00138134
0.00155884
0.000975805
0.0049368
0.00663947
0.00669091
0.00620008
0.00552697
0.00488416
0.00424246
0.00353711
0.00275673
0.00192292
0.00105631
0.000562476
0.000302146
0.00018152
0.000128842
0.000102887
8.80725e-05
7.89263e-05
7.35828e-05
7.15591e-05
7.25235e-05
7.61124e-05
8.21248e-05
9.06293e-05
0.000102061
0.000117279
0.000137657
0.000165265
0.000203358
0.000256914
0.000331374
0.000434
0.000568225
0.00072131
0.00085216
0.000906284
0.000850211
0.000538267
0.00341007
0.00672727
0.00665211
0.00535571
0.00452737
0.00385175
0.00299902
0.00209687
0.00133393
0.000781991
0.0004323
0.000244719
0.00015042
0.000106035
8.49703e-05
7.40869e-05
6.81567e-05
6.52013e-05
6.443e-05
6.54638e-05
6.80629e-05
7.22282e-05
7.8146e-05
8.61075e-05
9.66111e-05
0.000110468
0.000128946
0.000154001
0.000188381
0.000235729
0.000301008
0.000389206
0.000500912
0.000627674
0.000721773
0.000816909
0.000766133
0.000566432
0.00216995
0.00253393
0.00282784
0.0031329
0.00233957
0.00181701
0.00159837
0.00139362
0.00112779
0.000848364
0.000591451
0.000394148
0.000261413
0.000180542
0.000133879
0.000106315
8.89892e-05
7.77379e-05
7.07423e-05
6.71038e-05
6.6206e-05
6.75853e-05
7.09704e-05
7.636e-05
8.36326e-05
9.29661e-05
0.000104763
0.000119629
0.000138504
0.000162941
0.000193756
0.000232506
0.000281516
0.000343726
0.000421951
0.000530978
0.000568399
0.000525528
0.000431472
0.000344087
)
;

boundaryField
{
    floor
    {
        Cmu             0.09;
        kappa           0.41;
        E               9.8;
        type            epsilonWallFunction;
        value           nonuniform List<scalar> 
29
(
0.000492081
3.54942e-05
6.04416e-05
8.72831e-05
8.99816e-05
8.26213e-05
7.2649e-05
6.00919e-05
4.8854e-05
3.99286e-05
3.29924e-05
2.75767e-05
2.33032e-05
1.98973e-05
1.7148e-05
1.4858e-05
1.286e-05
1.09988e-05
9.93206e-06
7.61433e-06
7.61433e-06
1.7883e-05
2.84653e-05
3.93054e-05
0.000492081
3.54942e-05
4.02476e-05
0.000267119
0.000910942
)
;
    }
    ceiling
    {
        Cmu             0.09;
        kappa           0.41;
        E               9.8;
        type            epsilonWallFunction;
        value           nonuniform List<scalar> 
43
(
0.00216995
0.00253393
0.00282784
0.0031329
0.00233957
0.00181701
0.00159837
0.00139362
0.00112779
0.000848364
0.000591451
0.000394148
0.000261413
0.000180542
0.000133879
0.000106315
8.89892e-05
7.77379e-05
7.07423e-05
6.71038e-05
6.6206e-05
6.75853e-05
7.09704e-05
7.636e-05
8.36326e-05
9.29661e-05
0.000104763
0.000119629
0.000138504
0.000162941
0.000193756
0.000232506
0.000281516
0.000343726
0.000421951
0.000530978
0.000568399
0.000525528
0.000431472
0.000344087
0.00990951
0.016868
0.00341007
)
;
    }
    sWall
    {
        Cmu             0.09;
        kappa           0.41;
        E               9.8;
        type            epsilonWallFunction;
        value           uniform 0.00216995;
    }
    nWall
    {
        Cmu             0.09;
        kappa           0.41;
        E               9.8;
        type            epsilonWallFunction;
        value           nonuniform List<scalar> 6(0.00018415 0.000210729 0.000320709 0.000538267 0.000566432 0.000344087);
    }
    sideWalls
    {
        type            empty;
    }
    glass1
    {
        Cmu             0.09;
        kappa           0.41;
        E               9.8;
        type            epsilonWallFunction;
        value           nonuniform List<scalar> 9(0.00042775 0.00108067 0.00196847 0.00318704 0.00486428 0.00719983 0.00997992 0.0106622 0.00990951);
    }
    glass2
    {
        Cmu             0.09;
        kappa           0.41;
        E               9.8;
        type            epsilonWallFunction;
        value           nonuniform List<scalar> 2(0.00119381 0.000975805);
    }
    sun
    {
        Cmu             0.09;
        kappa           0.41;
        E               9.8;
        type            epsilonWallFunction;
        value           nonuniform List<scalar> 
14
(
0.00042775
0.000554346
0.000586344
0.000674333
0.000763368
0.000854252
0.000951466
0.00105088
0.00112469
0.00115401
0.00112261
0.00102464
0.000868196
0.000677598
)
;
    }
    heatsource1
    {
        Cmu             0.09;
        kappa           0.41;
        E               9.8;
        type            epsilonWallFunction;
        value           nonuniform List<scalar> 3(7.40989e-05 0.000129932 0.00018415);
    }
    heatsource2
    {
        Cmu             0.09;
        kappa           0.41;
        E               9.8;
        type            epsilonWallFunction;
        value           nonuniform List<scalar> 4(0.000519458 0.000124769 0.000124769 0.000568436);
    }
    Table_master
    {
        Cmu             0.09;
        kappa           0.41;
        E               9.8;
        type            epsilonWallFunction;
        value           nonuniform List<scalar> 9(0.000172635 0.000119429 8.53009e-05 6.29438e-05 4.78804e-05 3.7438e-05 3.00158e-05 2.46579e-05 2.08063e-05);
    }
    Table_slave
    {
        Cmu             0.09;
        kappa           0.41;
        E               9.8;
        type            epsilonWallFunction;
        value           nonuniform List<scalar> 9(0.000250611 0.000192033 0.000156471 0.000132602 0.000114229 9.86152e-05 8.4961e-05 7.19599e-05 5.85479e-05);
    }
    inlet
    {
        type            turbulentMixingLengthDissipationRateInlet;
        mixingLength    0.01;
        phi             phi;
        k               k;
        value           uniform 0.000101881;
    }
    outlet
    {
        type            zeroGradient;
    }
}


// ************************************************************************* //
