/*--------------------------------*- C++ -*----------------------------------*\
  =========                 |
  \\      /  F ield         | OpenFOAM: The Open Source CFD Toolbox
   \\    /   O peration     | Website:  https://openfoam.org
    \\  /    A nd           | Version:  6
     \\/     M anipulation  |
\*---------------------------------------------------------------------------*/
FoamFile
{
    version     2.0;
    format      ascii;
    class       surfaceScalarField;
    location    "1700";
    object      phi;
}
// * * * * * * * * * * * * * * * * * * * * * * * * * * * * * * * * * * * * * //

dimensions      [1 0 -1 0 0 0 0];

internalField   nonuniform List<scalar> 
852
(
-0.00295856
0.00301586
-0.00399932
0.00104076
-0.0047996
0.000800286
-0.00542267
0.000623071
-0.0058351
0.000412423
-0.00600881
0.000173715
-0.00591568
-9.31295e-05
-0.00553384
-0.00038184
-0.00487936
-0.000654481
-0.00401747
-0.000861888
-0.00304827
-0.000969202
-0.00208354
-0.000964728
-0.00122562
-0.000857924
-0.000536849
-0.000688769
-0.000535188
-0.000778048
0.000781016
-0.000524428
-0.00025362
6.95106e-05
-0.000593939
0.000571587
-0.000502077
0.000921058
-0.000349471
0.00114964
-0.000228585
0.00127735
-0.000127703
0.00133921
-6.18605e-05
0.00137359
-3.43804e-05
0.00139488
-2.12909e-05
0.00140706
-1.2182e-05
0.00141172
-4.65488e-06
0.00140761
4.10406e-06
0.00138721
2.04014e-05
0.00132941
5.78047e-05
0.0011987
0.000130709
0.00098275
0.000215947
0.000716205
0.000266545
0.000720172
-0.00211946
0.00528975
-0.00314003
0.00206133
-0.00396889
0.00162914
-0.00458818
0.00124236
-0.00499903
0.000823271
-0.00518229
0.000356977
-0.00510656
-0.00016886
-0.00475422
-0.000734175
-0.0041539
-0.00125481
-0.00338144
-0.00163435
-0.00253512
-0.00181552
-0.00170966
-0.00179019
-0.000985649
-0.00158193
-0.000436844
-0.00123757
-0.000168224
-0.000803807
0.000119533
-0.000287808
0.000119481
0.00025009
0.000539576
0.000655163
-0.000658693
0.000923573
-0.000862348
0.00114883
-0.000727329
0.0013284
-0.000529043
0.00144473
-0.000344917
0.00146561
-0.000148582
0.00147068
-6.69337e-05
0.00147682
-4.05191e-05
0.00148196
-2.64293e-05
0.00148533
-1.55591e-05
0.00148713
-6.45478e-06
0.00148677
4.46616e-06
0.00148099
2.61874e-05
0.00144224
9.65539e-05
0.00127618
0.000296763
0.00098722
0.00050491
0.000624576
0.000629189
0.00135486
-0.00148955
0.00701556
-0.00237231
0.00294409
-0.00311277
0.0023696
-0.00364842
0.00177802
-0.00401333
0.00118818
-0.0041832
0.000526842
-0.0041038
-0.000248255
-0.00374958
-0.00108839
-0.00317491
-0.00182947
-0.00247336
-0.0023359
-0.00174004
-0.00254885
-0.00104746
-0.00248276
-0.000447647
-0.00218175
2.49903e-05
-0.00171021
0.000335929
-0.00111475
0.000475094
-0.000426973
0.000594575
0.00149227
-0.000943224
0.00171223
-0.000878656
0.00167117
-0.00082128
0.00166061
-0.000716769
0.00168586
-0.000554293
0.00172911
-0.000388169
0.00158068
0.0015139
0.00147353
0.00144726
0.00143185
0.00142555
0.00143017
0.00145651
0.00155322
0.00128349
0.000566488
0.00095295
0.000835453
0.000535917
0.00104622
0.0019061
-0.0010429
0.00836441
-0.00174471
0.0036459
-0.00224247
0.00286735
-0.00260134
0.00213689
-0.00285272
0.00143956
-0.00295972
0.00063384
-0.00282573
-0.000382245
-0.00243451
-0.00147962
-0.00188751
-0.00237647
-0.0012871
-0.00293631
-0.000708895
-0.00312705
-0.000192382
-0.00299928
0.000246626
-0.00262076
0.000608915
-0.0020725
0.000931581
-0.00143741
0.0012959
-0.00079129
0.00214448
-0.000254008
0.00249906
-0.000346222
0.00214913
-0.000593295
0.00201342
-0.000742944
0.00188382
-0.000691682
0.00176738
-0.00060033
0.00169297
-0.000479879
0.00163226
-0.000327462
0.00177321
-0.000141099
0.00185908
-8.60192e-05
0.00192783
-6.89041e-05
0.0019816
-5.39252e-05
0.00200643
-2.49858e-05
0.00198073
2.555e-05
0.00187902
0.000101557
0.00166778
0.000211083
0.00129192
0.000375714
0.00113339
0.000725013
0.000823742
0.0011451
0.00035978
0.00151018
0.00228586
-0.000728604
0.00945813
-0.00126176
0.00417905
-0.00138401
0.00298961
-0.00147736
0.00223024
-0.00153942
0.00150161
-0.00149999
0.000594413
-0.00122533
-0.000656904
-0.000784494
-0.00192045
-0.000308885
-0.00285208
0.000122705
-0.0033679
0.000476009
-0.00348036
0.00074637
-0.00326964
0.000955712
-0.0028301
0.00113363
-0.00225042
0.00131423
-0.00161802
0.00154545
-0.00102251
0.00187088
-0.000579437
0.00197674
-0.000452092
0.00189444
-0.000510996
0.00171792
-0.000566423
0.00155872
-0.000532478
0.00142211
-0.000463718
0.00132164
-0.000379411
0.0012733
-0.00027912
0.00131497
-0.000182772
0.00136807
-0.00013912
0.00142574
-0.000126577
0.00148477
-0.000112946
0.00153475
-7.49677e-05
0.00155541
4.88746e-06
0.00152517
0.000131797
0.00143183
0.000304419
0.00127617
0.00053138
0.0011312
0.000869977
0.000968465
0.00130784
0.000616408
0.00186224
0.000521616
0.00238066
-0.000983306
0.00150472
-0.00144843
0.00046492
-0.00140006
-0.000630763
0.0105039
-0.000996646
0.00454494
-0.000602799
0.00259576
-0.000309469
0.00193691
-9.48508e-05
0.001287
0.000229755
0.000269808
0.000710828
-0.00113798
0.00114854
-0.00235817
0.00146101
-0.00316455
0.00163439
-0.00354128
0.00169449
-0.00354046
0.0016735
-0.00324865
0.00160417
-0.00276077
0.00152412
-0.00217036
0.00146664
-0.00156053
0.00145672
-0.00101259
0.00148748
-0.000610199
0.00145541
-0.000420018
0.00133035
-0.000385939
0.0011514
-0.000387471
0.00098684
-0.000367915
0.0008555
-0.000332378
0.000765628
-0.000289539
0.000728092
-0.000241583
0.000746669
-0.000201349
0.000796392
-0.000188844
0.000863045
-0.00019323
0.000940715
-0.000190615
0.00102347
-0.000157723
0.00109992
-7.15595e-05
0.00115164
8.0069e-05
0.00117278
0.000283287
0.00117221
0.000531942
0.00119433
0.000847864
0.0012855
0.00121667
0.0014623
0.00168544
0.00190313
0.00193982
0.00216494
0.00124292
0.00177449
0.000855368
0.000432554
-0.00071614
0.0116796
-0.000601753
0.00443055
0.000473987
0.00152002
0.00115202
0.00125888
0.0017271
0.000711917
0.00237272
-0.000375818
0.00292616
-0.00169142
0.00323146
-0.00266347
0.00328269
-0.00321577
0.00312564
-0.00338423
0.00282447
-0.00323929
0.00244329
-0.00286746
0.00203716
-0.00235465
0.00165451
-0.00178771
0.00132815
-0.00123417
0.00107825
-0.000762694
0.000901655
-0.000433603
0.000751269
-0.000269632
0.00059164
-0.00022631
0.000430574
-0.000226405
0.000291393
-0.000228735
0.000185575
-0.000226559
0.00011774
-0.000221703
9.25048e-05
-0.000216349
0.000108507
-0.000217351
0.000152076
-0.000232413
0.000212456
-0.00025361
0.000287618
-0.000265777
0.00038142
-0.000251525
0.000498764
-0.000188903
0.000628461
-4.96277e-05
0.000758776
0.000152972
0.000899116
0.000391603
0.00108741
0.000659566
0.00137025
0.000933838
0.00181391
0.00124177
0.00248412
0.00126961
0.00302877
0.000698273
0.00304539
0.000838743
0.00354035
0.00260301
0.00959011
0.00328118
0.00375238
0.00344638
0.00135482
0.0038994
0.00080587
0.00459067
2.0645e-05
0.00528251
-0.00106766
0.00556424
-0.00197315
0.00543907
-0.0025383
0.00499482
-0.00277151
0.00433618
-0.0027256
0.00356553
-0.00246864
0.00276928
-0.00207122
0.00200825
-0.00159362
0.00133746
-0.00111691
0.000783965
-0.00068068
0.000370371
-0.000349099
9.51238e-05
-0.000158356
-8.80556e-05
-8.64531e-05
-0.000228762
-8.56043e-05
-0.000347786
-0.00010738
-0.000446097
-0.000130424
-0.000521297
-0.000151359
-0.000572226
-0.000170774
-0.000598252
-0.000190323
-0.000602341
-0.000213262
-0.000593431
-0.000241323
-0.000577735
-0.000269307
-0.000554796
-0.000288716
-0.00051662
-0.000289701
-0.000444645
-0.000260878
-0.000308744
-0.000185529
-0.000122009
-3.3763e-05
9.75789e-05
0.000172015
0.000369504
0.00038764
0.000704202
0.00059914
0.00114216
0.000803813
0.00161511
0.000796662
0.00180657
0.000506813
0.00106349
0.00158183
0.00486187
0.0101537
0.0138989
0.0122283
0.00302537
0.0113295
0.00170468
0.0105955
0.000754708
0.00970368
-0.000175877
0.0085552
-0.000824664
0.00725706
-0.00124017
0.00590343
-0.00141788
0.00456337
-0.00138554
0.00330007
-0.00120533
0.00216346
-0.000934615
0.00116558
-0.000595736
0.000348269
-0.000299598
-0.000253383
-7.90288e-05
-0.000627198
2.47162e-05
-0.000829628
4.40738e-05
-0.000945141
2.90599e-05
-0.00103103
2.82026e-07
-0.00110786
-3.05503e-05
-0.00117827
-6.0016e-05
-0.00124181
-8.78158e-05
-0.00129876
-0.000113826
-0.00135055
-0.000138529
-0.00140123
-0.000162588
-0.00145813
-0.000184415
-0.00152875
-0.000198685
-0.00162044
-0.000197031
-0.00174218
-0.000167964
-0.00190541
-9.76496e-05
-0.00211751
2.65711e-05
-0.00236559
0.000214317
-0.00267426
0.000480688
-0.00312892
0.000842297
-0.00382526
0.00129548
-0.00482815
0.00180671
-0.00625208
0.00222059
-0.00796688
0.00222161
-0.00746131
0.00107625
-0.0023135
0.00509996
0.00455428
0.00409338
0.00271125
0.00449271
0.000355378
0.00453226
-0.000215418
0.00412351
-0.000415914
0.00343794
-0.0005546
0.00258931
-0.00056925
0.00167006
-0.000466294
0.000753865
-0.000289131
-0.000104469
-7.62805e-05
-0.000800261
0.000100057
-0.00125533
0.000155466
-0.00150118
0.000166827
-0.00162211
0.000145649
-0.00168931
0.000111274
-0.00173706
7.6809e-05
-0.00178181
4.50282e-05
-0.00183008
1.77163e-05
-0.00188539
-4.70353e-06
-0.00194791
-2.52921e-05
-0.00201707
-4.4671e-05
-0.00209388
-6.17148e-05
-0.00217988
-7.65882e-05
-0.00227714
-8.71589e-05
-0.00238677
-8.90521e-05
-0.0025077
-7.61053e-05
-0.00263544
-4.02181e-05
-0.00276152
2.84294e-05
-0.00287405
0.000139099
-0.00297065
0.000310922
-0.00305953
0.000569566
-0.00314743
0.0009302
-0.00323199
0.00138004
-0.00326696
0.00184168
-0.00319372
0.00214735
-0.00283209
0.00185998
-0.00156105
-0.000194788
-0.00379976
-0.000438467
0.00504935
0.000855544
0.00141724
0.000817657
0.000393265
0.000542665
5.95738e-05
0.000162489
-3.57381e-05
-0.000361086
-3.10251e-05
-0.000949182
1.88467e-05
-0.00149697
8.1495e-05
-0.00192498
0.000138879
-0.00218374
0.000182477
-0.00228571
0.000202032
-0.00231908
0.000188829
-0.00231545
0.0001632
-0.00230409
0.000134294
-0.00230089
0.000108064
-0.00230985
8.57702e-05
-0.00233077
6.59552e-05
-0.00236093
4.78737e-05
-0.00239712
3.1489e-05
-0.00243938
1.69683e-05
-0.00248733
3.27253e-06
-0.00254045
-8.5882e-06
-0.0025987
-1.83431e-05
-0.00266076
-2.51015e-05
-0.00272296
-2.68453e-05
-0.00277866
-2.04106e-05
-0.00281722
-1.65258e-06
-0.00282693
3.81346e-05
-0.00279522
0.000107388
-0.00269889
0.00021459
-0.00250512
0.000375804
-0.00218659
0.000611664
-0.00172796
0.00092141
-0.00110548
0.0012192
-0.000139827
0.0011817
0.00115859
0.000561565
0.00156993
-0.000606127
-0.00214778
-0.00793429
-0.0107876
-0.00569415
-0.00425405
-0.00384672
-0.00377796
-0.0038076
-0.00383482
-0.00381388
-0.00373159
-0.00359301
-0.00341176
-0.00321178
-0.00302569
-0.0028658
-0.00273527
-0.00263132
-0.00254995
-0.0024886
-0.00244549
-0.00241884
-0.00240676
-0.00240836
-0.00242179
-0.0024449
-0.00247468
-0.0025061
-0.00253097
-0.00253695
-0.00250299
-0.00239962
-0.00218889
-0.0018168
-0.00120871
-0.000290774
0.000924992
0.00210317
0.00266103
0.00205093
)
;

boundaryField
{
    floor
    {
        type            calculated;
        value           nonuniform List<scalar> 
29
(
0
0
0
0
0
0
0
0
0
0
0
0
0
0
0
0
0
0
0
0
-3.96669e-06
-1.01132e-05
-1.5322e-05
-1.99852e-05
-1.6614e-06
-2.96824e-06
-8.65009e-06
-9.47262e-06
-8.35729e-06
)
;
    }
    ceiling
    {
        type            calculated;
        value           nonuniform List<scalar> 
43
(
-4.66482e-05
-4.53745e-05
-4.41055e-05
-2.28616e-05
-1.40638e-05
-9.19138e-06
-6.09405e-06
-3.80745e-06
-2.09455e-06
-7.90745e-07
2.95932e-07
1.23282e-06
2.04782e-06
2.74198e-06
3.3079e-06
3.75848e-06
4.11665e-06
4.39889e-06
4.61152e-06
4.7582e-06
4.84526e-06
4.88258e-06
4.87779e-06
4.83586e-06
4.76775e-06
4.68049e-06
4.5769e-06
4.45763e-06
4.32377e-06
4.17368e-06
4.01811e-06
3.86238e-06
3.71254e-06
3.57736e-06
3.47294e-06
3.43029e-06
3.51929e-06
3.7069e-06
3.96878e-06
5.02443e-06
1.02721e-05
7.2277e-06
-5.6603e-05
)
;
    }
    sWall
    {
        type            calculated;
        value           uniform -0.000271713;
    }
    nWall
    {
        type            calculated;
        value           nonuniform List<scalar> 6(-4.85791e-05 -5.81203e-05 -6.24067e-05 -7.4783e-05 -8.20512e-05 -0.000101874);
    }
    sideWalls
    {
        type            empty;
        value           nonuniform 0();
    }
    glass1
    {
        type            calculated;
        value           nonuniform List<scalar> 9(-5.73081e-05 -0.000154424 -0.000236265 -0.000305948 -0.000365114 -0.000414987 -0.000459579 -0.000513524 -0.000573897);
    }
    glass2
    {
        type            calculated;
        value           nonuniform List<scalar> 2(-0.000258032 -0.000285937);
    }
    sun
    {
        type            calculated;
        value           uniform 0;
    }
    heatsource1
    {
        type            calculated;
        value           nonuniform List<scalar> 3(2.04188e-07 2.04131e-07 2.04148e-07);
    }
    heatsource2
    {
        type            calculated;
        value           nonuniform List<scalar> 4(5.11924e-08 5.12765e-08 0 0);
    }
    Table_master
    {
        type            calculated;
        value           nonuniform List<scalar> 9(-1.53138e-07 -1.53229e-07 -1.53262e-07 -1.53284e-07 -1.53299e-07 -1.5331e-07 -1.53315e-07 -1.5331e-07 -1.5328e-07);
    }
    Table_slave
    {
        type            calculated;
        value           nonuniform List<scalar> 9(1.53015e-07 1.53035e-07 1.53013e-07 1.52996e-07 1.52989e-07 1.52992e-07 1.53007e-07 1.53049e-07 1.5313e-07);
    }
    inlet
    {
        type            calculated;
        value           uniform -0.00662887;
    }
    outlet
    {
        type            calculated;
        value           nonuniform List<scalar> 2(0.00825265 0.00289869);
    }
}


// ************************************************************************* //
