// -*- C++ -*-
// File generated by PyFoam - sorry for the ugliness

FoamFile
{
 version 2.0;
 format ascii;
 class volVectorField;
 location "1100";
 object U;
}

dimensions [ 0 1 -1 0 0 0 0 ];

internalField nonuniform List<vector> 459
(
  (0.0346936 0.0858482 0)
  (-0.166996 0.0253654 0)
  (-0.191552 0.0178257 0)
  (-0.222539 0.0121734 0)
  (-0.245022 0.00592474 0)
  (-0.257902 -0.000729969 0)
  (-0.259495 -0.00785906 0)
  (-0.248497 -0.0154871 0)
  (-0.225484 -0.0229328 0)
  (-0.192321 -0.0288692 0)
  (-0.15271 -0.0321974 0)
  (-0.111025 -0.0323778 0)
  (-0.0714895 -0.0295902 0)
  (-0.0393048 -0.0250199 0)
  (-0.0285192 -0.0205324 0)
  (-0.00590499 0.00890193 0)
  (-0.0292533 -0.0167474 0)
  (-0.00759364 -0.0265437 0)
  (0.0160099 -0.0204376 0)
  (0.0314666 -0.0140205 0)
  (0.0441676 -0.00909168 0)
  (0.0521797 -0.00528516 0)
  (0.0563412 -0.00328892 0)
  (0.0582083 -0.00249119 0)
  (0.0591236 -0.00214958 0)
  (0.0596857 -0.00193852 0)
  (0.0599948 -0.00176807 0)
  (0.0599941 -0.00156028 0)
  (0.0595002 -0.00115088 0)
  (0.057994 -0.000176519 0)
  (0.0543593 0.001863 0)
  (0.0473865 0.00398969 0)
  (0.041372 0.00559689 0)
  (-0.0142112 0.0202305 0)
  (0.209678 0.175958 0)
  (-0.15644 0.067186 0)
  (-0.154645 0.0529687 0)
  (-0.18683 0.0412289 0)
  (-0.209183 0.0278849 0)
  (-0.222372 0.0128193 0)
  (-0.22467 -0.00429328 0)
  (-0.214607 -0.0228802 0)
  (-0.193361 -0.0403556 0)
  (-0.163216 -0.0536166 0)
  (-0.128009 -0.0605379 0)
  (-0.0918147 -0.0604625 0)
  (-0.0581958 -0.0540107 0)
  (-0.0306223 -0.0428241 0)
  (-0.0130952 -0.0293339 0)
  (0.000720119 -0.0113329 0)
  (-0.000266003 0.0154706 0)
  (0.0625476 0.0364033 0)
  (0.0245781 -0.0178111 0)
  (0.0330927 -0.0312279 0)
  (0.0442395 -0.0278512 0)
  (0.0531678 -0.0200729 0)
  (0.059742 -0.012581 0)
  (0.0626031 -0.00534615 0)
  (0.0631601 -0.00118922 0)
  (0.0631141 0.000545974 0)
  (0.0632246 0.00131308 0)
  (0.0634309 0.00178372 0)
  (0.0635823 0.00217157 0)
  (0.0636357 0.00263873 0)
  (0.0635494 0.00349665 0)
  (0.0628206 0.00560383 0)
  (0.0591433 0.0114841 0)
  (0.0498013 0.0163034 0)
  (0.0458268 0.0193255 0)
  (-0.0510474 0.043993 0)
  (0.37023 0.263398 0)
  (-0.173638 0.107166 0)
  (-0.116223 0.0858142 0)
  (-0.147704 0.0648195 0)
  (-0.167679 0.0428154 0)
  (-0.180039 0.0183228 0)
  (-0.182066 -0.00952982 0)
  (-0.171355 -0.0393174 0)
  (-0.15035 -0.0664273 0)
  (-0.122259 -0.0857903 0)
  (-0.0911183 -0.0947135 0)
  (-0.0604627 -0.0930531 0)
  (-0.0325839 -0.0822618 0)
  (-0.00962053 -0.0646068 0)
  (0.00758084 -0.0412324 0)
  (0.0188465 -0.0148811 0)
  (0.023342 0.0220414 0)
  (0.111019 -0.0268705 0)
  (0.0743631 -0.037503 0)
  (0.0687431 -0.0381063 0)
  (0.0702589 -0.0327377 0)
  (0.0716407 -0.0248469 0)
  (0.0729853 -0.0179078 0)
  (0.0717546 -0.0143387 0)
  (0.0671576 -0.0101417 0)
  (0.0638164 -0.00784624 0)
  (0.0623147 -0.00652966 0)
  (0.061684 -0.00568245 0)
  (0.0613724 -0.00509465 0)
  (0.0613667 -0.00457555 0)
  (0.0621001 -0.00376302 0)
  (0.0646726 -0.000716363 0)
  (0.062628 0.016063 0)
  (0.0495059 0.0275896 0)
  (0.0524115 0.0350881 0)
  (-0.0834806 0.0686398 0)
  (0.515105 0.333779 0)
  (-0.208695 0.142693 0)
  (-0.0753327 0.113843 0)
  (-0.105609 0.0849849 0)
  (-0.120173 0.0567713 0)
  (-0.1294 0.0246401 0)
  (-0.128565 -0.0137962 0)
  (-0.114812 -0.0553927 0)
  (-0.093384 -0.0914177 0)
  (-0.0683019 -0.115239 0)
  (-0.0430057 -0.124649 0)
  (-0.0199796 -0.120803 0)
  (0.000520155 -0.105933 0)
  (0.0174606 -0.0833593 0)
  (0.0317704 -0.0566984 0)
  (0.0470159 -0.0277785 0)
  (0.0685887 0.00380466 0)
  (0.099102 0.0162361 0)
  (0.104342 -0.0228005 0)
  (0.090758 -0.0333602 0)
  (0.0819658 -0.0325707 0)
  (0.0770885 -0.0284822 0)
  (0.0734597 -0.0224791 0)
  (0.0710719 -0.0148214 0)
  (0.0724624 -0.00904868 0)
  (0.0775238 -0.00683843 0)
  (0.0818644 -0.00560976 0)
  (0.0848065 -0.00472525 0)
  (0.0866534 -0.00371662 0)
  (0.0869437 -0.00229284 0)
  (0.0845151 -0.00019555 0)
  (0.0781084 0.00287656 0)
  (0.0652263 0.00745563 0)
  (0.0527619 0.0267248 0)
  (0.0403527 0.0428679 0)
  (0.0566063 0.0553818 0)
  (-0.118074 0.0906296 0)
  (0.640493 0.388339 0)
  (-0.251463 0.17177 0)
  (-0.0345443 0.130087 0)
  (-0.0614721 0.0965959 0)
  (-0.0680101 0.0649445 0)
  (-0.0713123 0.0277876 0)
  (-0.0619016 -0.020249 0)
  (-0.0428831 -0.0728087 0)
  (-0.0223731 -0.114214 0)
  (-0.0031187 -0.13871 0)
  (0.013312 -0.145627 0)
  (0.0258311 -0.138131 0)
  (0.0356698 -0.120523 0)
  (0.0435858 -0.0963279 0)
  (0.0508752 -0.0690478 0)
  (0.0595013 -0.0424636 0)
  (0.0721779 -0.0227885 0)
  (0.0828182 -0.0215454 0)
  (0.0840148 -0.0291508 0)
  (0.0777595 -0.0298658 0)
  (0.0696931 -0.0268983 0)
  (0.0630864 -0.0230249 0)
  (0.0581275 -0.0184744 0)
  (0.0551717 -0.0131398 0)
  (0.0550907 -0.00746785 0)
  (0.0575549 -0.00472356 0)
  (0.0604003 -0.00373437 0)
  (0.0631247 -0.00294293 0)
  (0.065618 -0.00131576 0)
  (0.0675237 0.00176199 0)
  (0.0675696 0.00637972 0)
  (0.0651441 0.0126761 0)
  (0.0596666 0.0212719 0)
  (0.0526617 0.0364612 0)
  (0.0422447 0.054343 0)
  (0.0648349 0.0741926 0)
  (-0.0233109 0.102814 0)
  (0.0461034 0.0309304 0)
  (-0.0625683 -0.0346531 0)
  (-0.273233 -0.0573869 0)
  (0.731651 0.43387 0)
  (-0.293146 0.191414 0)
  (-0.00327437 0.12675 0)
  (-0.0163994 0.0979804 0)
  (-0.012406 0.0674832 0)
  (-0.00727633 0.0252562 0)
  (0.0208947 -0.0370253 0)
  (0.0427296 -0.0930901 0)
  (0.0583183 -0.131672 0)
  (0.0678613 -0.151429 0)
  (0.0719764 -0.154293 0)
  (0.0720173 -0.143795 0)
  (0.0694876 -0.12398 0)
  (0.0658628 -0.0988341 0)
  (0.0626257 -0.0720357 0)
  (0.0611829 -0.0472393 0)
  (0.0623987 -0.0286903 0)
  (0.0632219 -0.0211736 0)
  (0.0600053 -0.0206567 0)
  (0.0530945 -0.0206832 0)
  (0.0452695 -0.0192191 0)
  (0.0387379 -0.0169626 0)
  (0.0340328 -0.014264 0)
  (0.0314456 -0.0111816 0)
  (0.0312291 -0.00833077 0)
  (0.0330134 -0.00725935 0)
  (0.0357533 -0.00715726 0)
  (0.0389956 -0.00677753 0)
  (0.0425486 -0.00510045 0)
  (0.0461257 -0.00122676 0)
  (0.0493973 0.0051762 0)
  (0.051082 0.0136993 0)
  (0.0514698 0.0244572 0)
  (0.051945 0.0389192 0)
  (0.0505877 0.0565676 0)
  (0.0733547 0.0791812 0)
  (0.0521623 0.0966373 0)
  (0.0934123 0.0673701 0)
  (0.116465 0.0444121 0)
  (-0.129667 -0.00736328 0)
  (0.783375 0.475258 0)
  (-0.314137 0.176956 0)
  (0.0234572 0.0773838 0)
  (0.0421013 0.0745904 0)
  (0.0569215 0.0534217 0)
  (0.0823233 0.00298016 0)
  (0.116886 -0.0613939 0)
  (0.136391 -0.11064 0)
  (0.143001 -0.140595 0)
  (0.139459 -0.152623 0)
  (0.12847 -0.149669 0)
  (0.112925 -0.135464 0)
  (0.0953795 -0.113861 0)
  (0.0780531 -0.0887829 0)
  (0.0626332 -0.0634712 0)
  (0.0503659 -0.0410198 0)
  (0.0417065 -0.0245368 0)
  (0.0351711 -0.0161393 0)
  (0.0286153 -0.0136957 0)
  (0.0215324 -0.0132866 0)
  (0.0148469 -0.0127283 0)
  (0.00948826 -0.0119019 0)
  (0.00576867 -0.0109523 0)
  (0.00385764 -0.00994676 0)
  (0.00382462 -0.00928916 0)
  (0.00529596 -0.00957206 0)
  (0.00763078 -0.0102712 0)
  (0.0105578 -0.0105167 0)
  (0.0141114 -0.00942206 0)
  (0.0184149 -0.00595678 0)
  (0.0244072 0.000916798 0)
  (0.0305275 0.0103143 0)
  (0.036236 0.0212465 0)
  (0.0434217 0.0341719 0)
  (0.0511659 0.048761 0)
  (0.0734152 0.0670648 0)
  (0.0864883 0.0743422 0)
  (0.118969 0.0514702 0)
  (0.158725 0.0436371 0)
  (-0.0346915 0.0940668 0)
  (0.888039 0.478134 0)
  (-0.0713622 0.15669 0)
  (0.10582 0.00433139 0)
  (0.168604 -0.0152517 0)
  (0.181066 -0.0333766 0)
  (0.216087 -0.0677809 0)
  (0.238211 -0.100943 0)
  (0.241078 -0.124794 0)
  (0.227422 -0.136763 0)
  (0.202198 -0.137029 0)
  (0.170237 -0.127334 0)
  (0.135759 -0.11032 0)
  (0.101784 -0.0886262 0)
  (0.0707844 -0.065549 0)
  (0.0442363 -0.0435557 0)
  (0.0234883 -0.0251941 0)
  (0.00901522 -0.0130057 0)
  (-0.000484186 -0.00750091 0)
  (-0.0072081 -0.00649796 0)
  (-0.0128232 -0.00700288 0)
  (-0.0176105 -0.00761569 0)
  (-0.0214016 -0.00815033 0)
  (-0.0241266 -0.00866198 0)
  (-0.0257471 -0.00923752 0)
  (-0.0263206 -0.0100672 0)
  (-0.026156 -0.0112748 0)
  (-0.0256288 -0.0125796 0)
  (-0.0248623 -0.0135302 0)
  (-0.0237053 -0.0136229 0)
  (-0.0217658 -0.0122642 0)
  (-0.0180655 -0.0087007 0)
  (-0.00913622 -0.00217765 0)
  (-8.81947e-05 0.00639139 0)
  (0.0106743 0.01483 0)
  (0.022438 0.0219009 0)
  (0.042279 0.0291585 0)
  (0.0606539 0.0219323 0)
  (0.0798237 -0.00562255 0)
  (0.138836 0.0406121 0)
  (-0.416766 0.207963 0)
  (1.03303 0.430442 0)
  (0.497553 0.28539 0)
  (0.503606 0.192259 0)
  (0.51133 0.121181 0)
  (0.485685 0.0697709 0)
  (0.443525 0.0165834 0)
  (0.393893 -0.0319326 0)
  (0.340691 -0.0666121 0)
  (0.283711 -0.0847299 0)
  (0.22534 -0.0882013 0)
  (0.168811 -0.0810346 0)
  (0.116928 -0.0672918 0)
  (0.0706593 -0.0496512 0)
  (0.0319121 -0.0315964 0)
  (0.000289581 -0.015347 0)
  (-0.0208225 -0.00505817 0)
  (-0.0321417 -0.00115394 0)
  (-0.0384482 -0.000575008 0)
  (-0.042568 -0.00151011 0)
  (-0.046156 -0.00284864 0)
  (-0.0494202 -0.00418537 0)
  (-0.0523769 -0.00546024 0)
  (-0.0550161 -0.0067027 0)
  (-0.0573721 -0.00795757 0)
  (-0.0595743 -0.0092748 0)
  (-0.0618961 -0.010617 0)
  (-0.064668 -0.0117567 0)
  (-0.0681895 -0.0123127 0)
  (-0.0727877 -0.0117532 0)
  (-0.078923 -0.00937834 0)
  (-0.0871911 -0.00436381 0)
  (-0.0976717 0.00391385 0)
  (-0.108296 0.0149264 0)
  (-0.123735 0.0288106 0)
  (-0.148141 0.0455794 0)
  (-0.184024 0.0639806 0)
  (-0.234649 0.0798785 0)
  (-0.292024 0.0906292 0)
  (-0.360578 0.0962952 0)
  (-0.622581 0.0976678 0)
  (-0.148643 0.0842911 0)
  (0.13576 0.0642024 0)
  (0.219243 0.00874968 0)
  (0.202743 -0.0270042 0)
  (0.187155 -0.0421975 0)
  (0.164839 -0.047591 0)
  (0.132558 -0.04645 0)
  (0.0941091 -0.0403601 0)
  (0.0541961 -0.0308121 0)
  (0.0163448 -0.0187688 0)
  (-0.0213897 -0.00471919 0)
  (-0.0455432 0.00318216 0)
  (-0.0603905 0.00672149 0)
  (-0.0676829 0.00720221 0)
  (-0.0711734 0.00637588 0)
  (-0.0734616 0.00530251 0)
  (-0.0754169 0.00420098 0)
  (-0.0773656 0.00312985 0)
  (-0.0796291 0.00204673 0)
  (-0.0822404 0.000865247 0)
  (-0.0851272 -0.000351681 0)
  (-0.0883193 -0.00152952 0)
  (-0.0918874 -0.00258039 0)
  (-0.0959269 -0.00334952 0)
  (-0.100517 -0.00359439 0)
  (-0.105658 -0.00299815 0)
  (-0.111247 -0.00119547 0)
  (-0.117047 0.0021901 0)
  (-0.12246 0.00758062 0)
  (-0.126658 0.0156808 0)
  (-0.130117 0.0276138 0)
  (-0.133111 0.0437408 0)
  (-0.136491 0.0631123 0)
  (-0.14078 0.0819725 0)
  (-0.142736 0.0903626 0)
  (-0.125144 0.0674704 0)
  (-0.0796964 -0.026487 0)
  (-0.279866 -0.205191 0)
  (-0.0253137 0.232497 0)
  (0.0632309 0.101661 0)
  (0.0381209 0.0208363 0)
  (0.026074 -0.00294916 0)
  (0.0177773 -0.00888948 0)
  (-0.000144669 -0.0108616 0)
  (-0.0250122 -0.0084824 0)
  (-0.0510143 -0.00371256 0)
  (-0.0732824 0.00105008 0)
  (-0.0888165 0.00436799 0)
  (-0.0965393 0.00494633 0)
  (-0.0992707 0.00290873 0)
  (-0.0997705 0.000112274 0)
  (-0.0992448 -0.00304302 0)
  (-0.098796 -0.00622126 0)
  (-0.0988408 -0.00915511 0)
  (-0.099405 -0.0117387 0)
  (-0.100401 -0.0138086 0)
  (-0.101708 -0.0152625 0)
  (-0.103266 -0.0161222 0)
  (-0.105133 -0.0164895 0)
  (-0.107295 -0.0164215 0)
  (-0.109756 -0.0161338 0)
  (-0.112483 -0.0155985 0)
  (-0.11536 -0.0146899 0)
  (-0.118154 -0.0131716 0)
  (-0.120496 -0.010675 0)
  (-0.121864 -0.00665212 0)
  (-0.121679 -0.000788008 0)
  (-0.118943 0.00747991 0)
  (-0.112198 0.0190418 0)
  (-0.10018 0.03466 0)
  (-0.0826742 0.0538617 0)
  (-0.0606048 0.0723946 0)
  (-0.036928 0.0830965 0)
  (0.00363877 0.0670019 0)
  (0.143263 -0.00423025 0)
  (-0.207691 -0.115851 0)
  (-0.107459 -0.35046 0)
  (-0.44094 -0.120233 0)
  (-0.311919 0.0970538 0)
  (-0.225891 -0.0204832 0)
  (-0.178565 -0.0434122 0)
  (-0.163385 -0.0321356 0)
  (-0.160777 -0.0195094 0)
  (-0.162154 -0.00933329 0)
  (-0.163023 -0.000798889 0)
  (-0.160918 0.00651392 0)
  (-0.156396 0.0131023 0)
  (-0.149512 0.0190107 0)
  (-0.141179 0.0239916 0)
  (-0.132833 0.0280224 0)
  (-0.125368 0.0317007 0)
  (-0.119122 0.0352144 0)
  (-0.114119 0.0386213 0)
  (-0.110199 0.0417423 0)
  (-0.107219 0.0442569 0)
  (-0.105087 0.0458975 0)
  (-0.103724 0.0465385 0)
  (-0.103055 0.0462096 0)
  (-0.103017 0.0450471 0)
  (-0.103543 0.0432321 0)
  (-0.10455 0.0411776 0)
  (-0.105932 0.0390097 0)
  (-0.107516 0.0368323 0)
  (-0.109022 0.0347357 0)
  (-0.110015 0.0327967 0)
  (-0.109812 0.0310988 0)
  (-0.107162 0.03035 0)
  (-0.100148 0.031222 0)
  (-0.0862786 0.0344633 0)
  (-0.0637221 0.0409656 0)
  (-0.0332469 0.0512141 0)
  (0.016163 0.0649598 0)
  (0.0608121 0.0659748 0)
  (0.103675 0.0507928 0)
  (0.164607 0.021049 0)
  (-0.215508 -0.0348047 0)
)
;

boundaryField
{
  floor
  {
    type noSlip;
  }
  ceiling
  {
    type noSlip;
  }
  sWall
  {
    type noSlip;
  }
  nWall
  {
    type noSlip;
  }
  sideWalls
  {
    type empty;
  }
  glass1
  {
    type noSlip;
  }
  glass2
  {
    type noSlip;
  }
  sun
  {
    type noSlip;
  }
  heatsource1
  {
    type noSlip;
  }
  heatsource2
  {
    type noSlip;
  }
  Table_master
  {
    type noSlip;
  }
  Table_slave
  {
    type noSlip;
  }
  inlet
  {
    type fixedValue;
    value uniform (0.3 0 0);
  }
  outlet
  {
    type zeroGradient;
  }
} 	// ************************************************************************* //

