/*--------------------------------*- C++ -*----------------------------------*\
  =========                 |
  \\      /  F ield         | OpenFOAM: The Open Source CFD Toolbox
   \\    /   O peration     | Website:  https://openfoam.org
    \\  /    A nd           | Version:  6
     \\/     M anipulation  |
\*---------------------------------------------------------------------------*/
FoamFile
{
    version     2.0;
    format      ascii;
    class       volScalarField;
    location    "300";
    object      alphat;
}
// * * * * * * * * * * * * * * * * * * * * * * * * * * * * * * * * * * * * * //

dimensions      [1 -1 -1 0 0 0 0];

internalField   nonuniform List<scalar> 
459
(
0.000867831
0.000883578
0.000739702
0.000757597
0.000786621
0.000816236
0.000845562
0.000874904
0.00090531
0.000934693
0.000959089
0.000976667
0.00098593
0.000985735
0.000970664
0.000513714
0.000644867
0.00043939
0.000290749
0.000223872
0.000208364
0.000208017
0.000209912
0.000221126
0.000243546
0.00026811
0.000293776
0.000323186
0.000361139
0.000416128
0.00048068
0.000518701
0.000533908
0.000488421
0.00157354
0.00300743
0.00187808
0.00278718
0.00308738
0.00331077
0.00354227
0.0037617
0.00393724
0.00405927
0.00411067
0.00404683
0.00379423
0.00323387
0.00224537
0.00105313
0.000713966
0.00062375
0.00225779
0.0014827
0.00109184
0.000730271
0.000410775
0.000318665
0.000273769
0.000287404
0.00034225
0.000436019
0.000593543
0.000862608
0.00120579
0.00152585
0.00194486
0.00181275
0.00171479
0.000615687
0.00217649
0.0052376
0.00213032
0.00357889
0.00461835
0.00495749
0.00520336
0.00541192
0.00556853
0.00566838
0.00568769
0.0055736
0.00524226
0.004582
0.00352672
0.00225152
0.00114166
0.000937021
0.00292986
0.00240262
0.00203125
0.00165565
0.00123611
0.000393525
0.000235624
0.00030199
0.00038834
0.000461321
0.000528064
0.000597508
0.000678261
0.000781398
0.00195027
0.00166958
0.00130861
0.000721398
0.00272324
0.00782148
0.00289515
0.00342783
0.00524227
0.00578301
0.0060529
0.00627375
0.00645848
0.00660509
0.00671969
0.00675247
0.00660903
0.00614432
0.00519541
0.00374877
0.00222187
0.00133994
0.00318596
0.0035301
0.00343581
0.00288854
0.00222018
0.0014797
0.000897418
0.000877938
0.000863365
0.000851486
0.000844448
0.000846599
0.000864663
0.000909737
0.00100696
0.00300431
0.00326046
0.00306487
0.00111653
0.00321117
0.0104019
0.00433907
0.00324071
0.00509467
0.00589339
0.00623674
0.00649474
0.00672527
0.00695073
0.00724339
0.00757564
0.00788692
0.00809343
0.0080984
0.00782657
0.00729569
0.00667955
0.00648691
0.00637228
0.00624156
0.00595607
0.00562957
0.00527216
0.00491233
0.00464285
0.00435478
0.00406551
0.00381757
0.00365846
0.00361393
0.00367578
0.00381809
0.00403431
0.00412827
0.00410404
0.00360073
0.00160051
0.0014154
0.00123297
0.00365573
0.0125803
0.0067512
0.00392321
0.00436634
0.00518915
0.00571634
0.00606536
0.00629949
0.00656914
0.00698551
0.00752989
0.0081517
0.00877334
0.00929779
0.00962572
0.00968298
0.00947951
0.0091326
0.00874085
0.00838032
0.00807941
0.00781112
0.00752293
0.00716993
0.00673775
0.00622457
0.00565933
0.00510878
0.00466442
0.00439011
0.00427751
0.00426403
0.00428286
0.00427785
0.00419018
0.00386696
0.00318659
0.00238612
0.00127822
0.00404199
0.0139889
0.01012
0.00640987
0.00463444
0.00447718
0.00496436
0.00542768
0.0056137
0.00584349
0.0062156
0.00676511
0.00748707
0.00831656
0.00913603
0.00980616
0.0101959
0.0102752
0.0101129
0.00983428
0.00955324
0.00932093
0.00912247
0.0089137
0.00864555
0.00828397
0.00780468
0.00719434
0.00647967
0.00575655
0.00515715
0.00474821
0.00447687
0.00429389
0.00411171
0.00384113
0.00341141
0.0028483
0.00226773
0.00125923
0.00407845
0.0131104
0.0112204
0.00958629
0.0074259
0.00599887
0.00550529
0.00551349
0.00549045
0.00548671
0.0055905
0.00585629
0.00633713
0.00705396
0.0079404
0.00884338
0.00951262
0.00988247
0.00999171
0.00993664
0.00982368
0.00971759
0.00963146
0.00954921
0.0094452
0.00929633
0.00907391
0.00873353
0.00823213
0.00758043
0.00687539
0.00619647
0.00562887
0.00511999
0.00462729
0.00414106
0.00365911
0.00319555
0.00283551
0.00163863
0.00390213
0.00453318
0.00848215
0.00909902
0.00825915
0.00721343
0.00640186
0.00587131
0.00551466
0.00530438
0.00521949
0.00524772
0.00540984
0.00575585
0.00632466
0.00706933
0.00782308
0.00842951
0.00882506
0.00903734
0.00913701
0.0091869
0.00922163
0.0092539
0.0092874
0.00932667
0.00937201
0.0094003
0.00935102
0.00913073
0.00867586
0.00809867
0.00757839
0.00728643
0.00728772
0.00725863
0.00632047
0.00495771
0.00519217
0.00181552
0.0172992
0.0171718
0.0104728
0.00832342
0.007171
0.0064222
0.00590328
0.00553088
0.00525604
0.00506368
0.00495471
0.00494685
0.00507357
0.00536575
0.00580961
0.00632944
0.00682484
0.00722809
0.00752436
0.0077324
0.00788022
0.00799375
0.00809577
0.00820972
0.00835965
0.0085596
0.00878903
0.00895046
0.00893593
0.00871212
0.00834458
0.00797725
0.0077033
0.00743244
0.00672532
0.00556872
0.00498554
0.00174821
0.00691487
0.0145449
0.0102917
0.00823431
0.00704361
0.00623644
0.00565482
0.00522097
0.00487206
0.00459658
0.00439301
0.004263
0.00421324
0.00425589
0.00440209
0.00464833
0.00496572
0.00530554
0.00561918
0.00587521
0.00606408
0.00619338
0.00628073
0.00634885
0.00642259
0.00652566
0.00667243
0.00683169
0.00696854
0.00702222
0.00695081
0.00676511
0.00649655
0.00605983
0.00533298
0.00434737
0.00414595
0.00153729
0.00243942
0.00370596
0.00520892
0.00476724
0.00393246
0.0033249
0.00288322
0.00254815
0.00228381
0.00206898
0.00189425
0.00174968
0.00162854
0.00152668
0.00144156
0.00137169
0.00131632
0.00127501
0.00124692
0.00123029
0.00122237
0.00121993
0.00122009
0.00122073
0.00122069
0.00121965
0.00121797
0.00121649
0.00121648
0.00122403
0.00124096
0.00126479
0.00128886
0.00130271
0.00129535
0.00126684
0.00123018
0.00118346
0.00119519
0.00113895
)
;

boundaryField
{
    floor
    {
        type            compressible::alphatWallFunction;
        Prt             0.85;
        value           nonuniform List<scalar> 
29
(
0.000138125
7.12487e-05
9.09602e-05
5.97754e-05
3.60869e-05
2.49374e-05
2.22948e-05
2.22379e-05
2.25652e-05
2.44754e-05
2.82683e-05
3.23752e-05
3.66123e-05
4.14045e-05
4.75073e-05
5.62132e-05
6.62543e-05
7.20901e-05
7.43961e-05
6.74374e-05
6.74366e-05
8.66833e-05
0.00010235
0.000158628
0.000138124
7.12478e-05
8.78343e-05
0.000133287
0.000189279
)
;
    }
    ceiling
    {
        type            compressible::alphatWallFunction;
        Prt             0.85;
        value           nonuniform List<scalar> 
43
(
0.000334257
0.00049228
0.000672077
0.000619704
0.000519365
0.000444998
0.000390062
0.000347802
0.000314048
0.000286307
0.000263515
0.000244483
0.000228401
0.000214777
0.000203312
0.000193843
0.000186301
0.000180648
0.000176792
0.000174502
0.000173408
0.000173069
0.000173087
0.000173172
0.000173164
0.000173019
0.000172787
0.000172582
0.00017258
0.000173619
0.000175945
0.000179213
0.000182508
0.000184401
0.000183393
0.000179491
0.000174458
0.000168018
0.000169636
0.000161855
0.000515662
0.000591712
0.0008705
)
;
    }
    sWall
    {
        type            compressible::alphatWallFunction;
        Prt             0.85;
        value           uniform 0.000333228;
    }
    nWall
    {
        type            compressible::alphatWallFunction;
        Prt             0.85;
        value           nonuniform List<scalar> 6(0.000174494 0.0001807 0.000178104 0.000243877 0.000215795 0.000161527);
    }
    sideWalls
    {
        type            empty;
    }
    glass1
    {
        type            compressible::alphatWallFunction;
        Prt             0.85;
        value           nonuniform List<scalar> 9(0.000119967 0.000215729 0.000293965 0.000363067 0.000423616 0.000478022 0.000524792 0.000529341 0.000508333);
    }
    glass2
    {
        type            compressible::alphatWallFunction;
        Prt             0.85;
        value           nonuniform List<scalar> 2(0.00022804 0.000251345);
    }
    sun
    {
        type            compressible::alphatWallFunction;
        Prt             0.85;
        value           nonuniform List<scalar> 
14
(
0.000123519
0.000125751
0.000104981
0.00010759
0.000111805
0.000116087
0.00012031
0.000124517
0.000128858
0.000133038
0.000136496
0.000138981
0.000140287
0.000140257
)
;
    }
    heatsource1
    {
        type            compressible::alphatWallFunction;
        Prt             0.85;
        value           nonuniform List<scalar> 3(0.000224609 0.00019972 0.000174835);
    }
    heatsource2
    {
        type            compressible::alphatWallFunction;
        Prt             0.85;
        value           nonuniform List<scalar> 4(0.000149875 0.000101369 0.000101368 0.000162201);
    }
    Table_master
    {
        type            compressible::alphatWallFunction;
        Prt             0.85;
        value           nonuniform List<scalar> 9(5.26931e-05 2.7029e-05 3.80679e-05 5.19555e-05 6.33837e-05 7.36328e-05 8.4123e-05 9.61323e-05 0.00011122);
    }
    Table_slave
    {
        type            compressible::alphatWallFunction;
        Prt             0.85;
        value           nonuniform List<scalar> 9(0.000127893 0.000125112 0.000123027 0.000121323 0.000120313 0.000120623 0.000123217 0.000129661 0.000143431);
    }
    inlet
    {
        type            fixedValue;
        value           uniform 1.94e-05;
    }
    outlet
    {
        type            zeroGradient;
    }
}


// ************************************************************************* //
