/*--------------------------------*- C++ -*----------------------------------*\
  =========                 |
  \\      /  F ield         | OpenFOAM: The Open Source CFD Toolbox
   \\    /   O peration     | Website:  https://openfoam.org
    \\  /    A nd           | Version:  6
     \\/     M anipulation  |
\*---------------------------------------------------------------------------*/
FoamFile
{
    version     2.0;
    format      ascii;
    class       surfaceScalarField;
    location    "1200";
    object      phi;
}
// * * * * * * * * * * * * * * * * * * * * * * * * * * * * * * * * * * * * * //

dimensions      [1 0 -1 0 0 0 0];

internalField   nonuniform List<scalar> 
852
(
-0.00297678
0.00303405
-0.00404224
0.00106546
-0.00484873
0.000806496
-0.00546301
0.000614281
-0.00584957
0.000386569
-0.00597805
0.000128482
-0.00581949
-0.000158558
-0.00535842
-0.000461065
-0.00462608
-0.000732334
-0.00370365
-0.000922433
-0.00270318
-0.00100047
-0.00174259
-0.000960581
-0.000932894
-0.000809695
-0.000350977
-0.000581914
-0.000349235
-0.000810391
0.000813381
-0.000591702
-0.000218688
-1.47907e-05
-0.000576911
0.000496192
-0.000510983
0.000861521
-0.000365329
0.00110617
-0.000244645
0.00124466
-0.000138492
0.00131145
-6.67925e-05
0.0013485
-3.70523e-05
0.00137172
-2.32177e-05
0.00138543
-1.37129e-05
0.00139141
-5.98342e-06
0.00138861
2.80329e-06
0.00136997
1.86349e-05
0.00131524
5.47289e-05
0.00119011
0.000125135
0.000982807
0.0002073
0.000722793
0.000260012
0.000726777
-0.00213483
0.00532325
-0.00317362
0.00210426
-0.0040081
0.00164097
-0.00462112
0.0012273
-0.00500952
0.000774976
-0.00515031
0.000269279
-0.00501184
-0.000297031
-0.0045861
-0.000886795
-0.00391945
-0.00139898
-0.00310141
-0.00174046
-0.00223767
-0.00186421
-0.00142173
-0.00177651
-0.000731977
-0.00149945
-0.000225421
-0.00108847
5.5494e-05
-0.000630147
0.000206637
-0.000151192
0.000206588
0.000176654
0.000645516
0.000567299
-0.000609332
0.000849674
-0.000859285
0.00108258
-0.000743883
0.00127108
-0.000553838
0.00139682
-0.000370383
0.00142116
-0.000162834
0.00142684
-7.24735e-05
0.00143363
-4.38378e-05
0.0014393
-2.8889e-05
0.00144303
-1.74419e-05
0.00144511
-8.06364e-06
0.00144503
2.87952e-06
0.00143981
2.38571e-05
0.00140286
9.16762e-05
0.00124277
0.00028522
0.000964669
0.000485399
0.00061779
0.00060689
0.00135477
-0.00150036
0.00705997
-0.00239552
0.00299942
-0.00314224
0.00238769
-0.00367537
0.00176044
-0.00402186
0.00112147
-0.00415061
0.000398038
-0.0040049
-0.000442742
-0.00357917
-0.00131252
-0.0029502
-0.00202794
-0.00221975
-0.00247091
-0.00148458
-0.00259937
-0.000808239
-0.00245285
-0.000238084
-0.0020696
0.000209051
-0.0015356
0.000496324
-0.000917418
0.000583837
-0.000238703
0.000790427
0.00147332
-0.000817952
0.00169091
-0.000826922
0.00164095
-0.000809331
0.00162446
-0.000727391
0.00164799
-0.000577362
0.00170024
-0.000422643
0.00153756
0.00146524
0.00142156
0.00139282
0.00137553
0.00136762
0.00137065
0.00139466
0.00148649
0.00122381
0.000547894
0.000905526
0.00080368
0.000514311
0.000998103
0.00188452
-0.00104847
0.00841476
-0.00175557
0.00370652
-0.00226012
0.00289224
-0.00261976
0.00212008
-0.00285712
0.00135884
-0.00291818
0.000459097
-0.00270745
-0.000653467
-0.00225155
-0.00176842
-0.00167056
-0.00260892
-0.00106264
-0.00307881
-0.00049854
-0.00316347
-5.05422e-06
-0.00294633
0.000408551
-0.0024832
0.000755471
-0.00188252
0.00106233
-0.00122428
0.00140722
-0.000583586
0.00227305
-7.5402e-05
0.00251968
-0.000238133
0.00219996
-0.00049823
0.00205272
-0.000679679
0.00190532
-0.000661927
0.00177069
-0.000592761
0.00167781
-0.000484487
0.0015911
-0.000335928
0.00172962
-0.000138682
0.00180625
-7.67826e-05
0.00186443
-5.83368e-05
0.00190859
-4.43197e-05
0.0019262
-1.77658e-05
0.00189684
2.92043e-05
0.00179525
0.000101431
0.00158761
0.000207488
0.00121913
0.000368319
0.00106339
0.000703629
0.0007622
0.00110487
0.000311679
0.00144862
0.00221633
-0.000729839
0.00951046
-0.00126117
0.00423786
-0.00138729
0.00301837
-0.00148089
0.00221369
-0.00153577
0.00141371
-0.00142697
0.000350301
-0.00106856
-0.00101187
-0.000587119
-0.00224986
-0.000106987
-0.00308905
0.000305294
-0.00349108
0.000629699
-0.00348786
0.000870167
-0.00318679
0.00106201
-0.00267503
0.00122977
-0.00205028
0.00140459
-0.00139909
0.0016328
-0.000811802
0.00195721
-0.000399812
0.00203744
-0.000318358
0.00195206
-0.000412847
0.0017683
-0.000495917
0.00159417
-0.000487797
0.00143866
-0.000437261
0.00131664
-0.00036247
0.00124478
-0.000264063
0.00126781
-0.000161715
0.00130417
-0.00011315
0.00134618
-0.000100356
0.00139248
-9.06235e-05
0.00143442
-5.9714e-05
0.00145302
1.06016e-05
0.00142655
0.000127894
0.00134095
0.000293088
0.00119669
0.000512565
0.0010623
0.00083802
0.000910997
0.00125616
0.00056457
0.00179505
0.000474041
0.00230686
-0.000979665
0.0014535
-0.00143967
0.000459793
-0.00139142
-0.000628521
0.0105551
-0.000984569
0.00459391
-0.000584704
0.0026185
-0.000275767
0.00190475
-3.27654e-05
0.00117071
0.000382027
-6.44952e-05
0.000917656
-0.0015475
0.00134763
-0.00267982
0.00162485
-0.00336625
0.0017558
-0.00362202
0.00178009
-0.00351215
0.00172712
-0.00313381
0.00163806
-0.00258597
0.00155018
-0.0019624
0.00149317
-0.00134208
0.00148921
-0.000807846
0.00152714
-0.000437738
0.00149665
-0.000287864
0.0013713
-0.000287504
0.00118935
-0.000313963
0.00101495
-0.000313404
0.00086746
-0.000289771
0.000756802
-0.000251816
0.000696094
-0.00020336
0.000693365
-0.00015899
0.000724653
-0.000144445
0.000775852
-0.00015156
0.000841946
-0.000156724
0.000918528
-0.000136304
0.000995728
-6.66055e-05
0.00105525
6.83679e-05
0.0010879
0.00026043
0.00110208
0.00049838
0.00114029
0.000799802
0.00124854
0.0011479
0.00144041
0.00160318
0.00189314
0.00185412
0.00215645
0.00119018
0.00177665
0.000839593
0.000443127
-0.000700886
0.0117172
-0.000569696
0.00446272
0.000535774
0.00151304
0.00126568
0.00117484
0.00195379
0.000482606
0.00267038
-0.00078109
0.003174
-0.0020511
0.00340982
-0.00291564
0.00338999
-0.00334641
0.00316881
-0.00340083
0.0028174
-0.00316074
0.00239972
-0.00271612
0.00197474
-0.00216098
0.00159022
-0.00157788
0.00127267
-0.00102453
0.00104169
-0.000576876
0.000887835
-0.00028388
0.000755938
-0.00015597
0.000607585
-0.000139154
0.00045002
-0.000156401
0.000305559
-0.000168947
0.000186894
-0.00017111
0.00010146
-0.000166387
5.71491e-05
-0.000159056
5.61097e-05
-0.000157958
8.57458e-05
-0.000174088
0.000135195
-0.000201017
0.000202137
-0.000223674
0.000290609
-0.000224783
0.000407221
-0.000183226
0.00054611
-7.05284e-05
0.000691896
0.000114636
0.000850455
0.000339813
0.0010595
0.000590748
0.00136606
0.000841329
0.00183509
0.00113415
0.00251374
0.00117547
0.00304041
0.000663512
0.00305908
0.000820918
0.00356451
0.00264252
0.00959023
0.00334519
0.00376006
0.00356564
0.00129259
0.00416205
0.000578429
0.00496973
-0.000325073
0.00558748
-0.00139884
0.00575788
-0.00222149
0.00552184
-0.00267958
0.00498133
-0.00280587
0.00424796
-0.00266744
0.00342639
-0.00233917
0.00259712
-0.00188685
0.00182776
-0.00139163
0.00117039
-0.000920516
0.00064125
-0.000495388
0.000269279
-0.000204909
3.72181e-05
-5.18239e-05
-0.000113498
-5.25816e-06
-0.000235306
-1.73506e-05
-0.000346745
-4.49669e-05
-0.000446057
-6.9641e-05
-0.000528203
-8.89703e-05
-0.000588809
-0.000105788
-0.000624259
-0.000123613
-0.000635547
-0.000146677
-0.000631571
-0.000178073
-0.000619348
-0.000213248
-0.00059934
-0.000243691
-0.000564624
-0.000259508
-0.000498294
-0.000249564
-0.00036937
-0.000199461
-0.000171809
-8.29339e-05
7.30346e-05
9.49616e-05
0.000370098
0.000293677
0.000733115
0.000478304
0.00120394
0.000663316
0.00169153
0.000687869
0.00181487
0.000540161
0.000884129
0.00175166
0.00470858
0.0101565
0.0139096
0.012297
0.00290526
0.0114311
0.00144433
0.0106605
0.000445452
0.00967765
-0.00041592
0.00844241
-0.000986217
0.00706789
-0.00130503
0.00565259
-0.00139056
0.0042718
-0.00128664
0.00299306
-0.00106043
0.00184718
-0.000740969
0.000870437
-0.000414884
9.14709e-05
-0.000141556
-0.000447989
4.4064e-05
-0.000752638
9.97327e-05
-0.000906778
0.00010231
-0.000992505
8.04628e-05
-0.00105812
4.82575e-05
-0.0011208
1.77053e-05
-0.00118326
-7.19016e-06
-0.00124335
-2.88862e-05
-0.00129848
-5.06672e-05
-0.00134767
-7.44312e-05
-0.00139425
-0.000100099
-0.00144627
-0.000126068
-0.00151202
-0.000147505
-0.00159888
-0.00015684
-0.0017151
-0.000143295
-0.00187083
-9.38389e-05
-0.00207479
4.49013e-06
-0.0023193
0.000161571
-0.00261477
0.000390424
-0.00302875
0.00070764
-0.00366424
0.00111379
-0.00459197
0.00159104
-0.00593748
0.00203337
-0.00763549
0.00223817
-0.00743766
0.00155382
-0.00244146
0.00507268
0.00447959
0.00397278
0.0025443
0.00428281
0.000135513
0.00427375
-0.000406811
0.00380144
-0.000513882
0.00305521
-0.000558807
0.00216931
-0.000504668
0.00123576
-0.000353097
0.000317365
-0.00014205
-0.000492529
6.89058e-05
-0.00108452
0.000177099
-0.00143526
0.000209168
-0.00159996
0.000208763
-0.00168103
0.000180792
-0.00172672
0.000147995
-0.00176155
0.00011528
-0.00179816
8.48637e-05
-0.00183931
5.88449e-05
-0.00188395
3.74412e-05
-0.00193208
1.92378e-05
-0.00198553
2.77177e-06
-0.00204568
-1.42876e-05
-0.00211423
-3.15558e-05
-0.00219407
-4.62439e-05
-0.00228713
-5.44444e-05
-0.00239267
-5.13176e-05
-0.00250727
-2.87027e-05
-0.00262386
2.27446e-05
-0.00273127
0.000111892
-0.00282417
0.000254471
-0.00290704
0.000473285
-0.00298099
0.000781582
-0.00304019
0.00117298
-0.00304223
0.00159308
-0.00291886
0.00190999
-0.0022015
0.0015208
-0.000531834
-0.000115852
-0.00289566
-0.000420783
0.00495875
0.000804579
0.00131898
0.000627782
0.000312333
0.000220106
8.54047e-07
-0.000272122
-2.16969e-05
-0.000845416
1.44568e-05
-0.00141603
6.59228e-05
-0.00189499
0.000125844
-0.00221801
0.000180958
-0.0023664
0.000217283
-0.00241038
0.000221077
-0.00240321
0.000201982
-0.00236966
0.000175209
-0.00233693
0.000148057
-0.00231482
0.000125873
-0.00230698
0.000107435
-0.0023131
9.09711e-05
-0.00232987
7.56027e-05
-0.00235339
6.09544e-05
-0.00238101
4.68513e-05
-0.00241134
3.30854e-05
-0.00244589
2.02569e-05
-0.00248536
7.90643e-06
-0.0025288
-2.81201e-06
-0.00257388
-9.37033e-06
-0.00261602
-9.18697e-06
-0.00264636
1.62569e-06
-0.00265453
3.0906e-05
-0.00262917
8.65214e-05
-0.0025501
0.000175393
-0.0023874
0.000310578
-0.00211371
0.000507891
-0.00170903
0.000768294
-0.00112618
0.00101022
-5.38603e-05
0.000837666
0.00180114
-0.000334205
0.00336676
-0.00168147
0.000555985
-0.007906
-0.010788
-0.00578502
-0.00444386
-0.00411865
-0.00410978
-0.00412632
-0.00410882
-0.00404141
-0.00391534
-0.00373521
-0.00351967
-0.00330114
-0.00310239
-0.00293097
-0.00278717
-0.00266596
-0.00256351
-0.0024778
-0.00240767
-0.00235233
-0.00231117
-0.0022838
-0.00226922
-0.00226694
-0.00227527
-0.00229003
-0.00230446
-0.0023079
-0.00228186
-0.00220001
-0.00202908
-0.00172277
-0.00121896
-0.000454594
0.000551795
0.00138551
0.00104681
-0.000640582
)
;

boundaryField
{
    floor
    {
        type            calculated;
        value           nonuniform List<scalar> 
29
(
0
0
0
0
0
0
0
0
0
0
0
0
0
0
0
0
0
0
0
0
-3.98613e-06
-1.02044e-05
-1.54447e-05
-2.0132e-05
-1.74142e-06
-2.98954e-06
-8.789e-06
-9.84816e-06
-8.49754e-06
)
;
    }
    ceiling
    {
        type            calculated;
        value           nonuniform List<scalar> 
43
(
-4.67958e-05
-4.55319e-05
-4.42744e-05
-2.2197e-05
-1.29039e-05
-8.04025e-06
-5.16958e-06
-3.06135e-06
-1.49533e-06
-2.40185e-07
8.15826e-07
1.73444e-06
2.53698e-06
3.22058e-06
3.78463e-06
4.25139e-06
4.64488e-06
4.9788e-06
5.25367e-06
5.46318e-06
5.60397e-06
5.68027e-06
5.70115e-06
5.67569e-06
5.61117e-06
5.51155e-06
5.38201e-06
5.22975e-06
5.05651e-06
4.8629e-06
4.66022e-06
4.45645e-06
4.25856e-06
4.07534e-06
3.92136e-06
3.82366e-06
3.94596e-06
4.48264e-06
5.91294e-06
6.82345e-06
9.94731e-06
6.96107e-06
-5.83503e-05
)
;
    }
    sWall
    {
        type            calculated;
        value           uniform -0.000272912;
    }
    nWall
    {
        type            calculated;
        value           nonuniform List<scalar> 6(-4.84555e-05 -5.79052e-05 -6.23086e-05 -7.7635e-05 -8.48998e-05 -9.14285e-05);
    }
    sideWalls
    {
        type            empty;
        value           nonuniform 0();
    }
    glass1
    {
        type            calculated;
        value           nonuniform List<scalar> 9(-5.72593e-05 -0.000154373 -0.00023635 -0.000306315 -0.000365856 -0.000416124 -0.000461203 -0.000515537 -0.000576241);
    }
    glass2
    {
        type            calculated;
        value           nonuniform List<scalar> 2(-0.000259949 -0.000287635);
    }
    sun
    {
        type            calculated;
        value           uniform 0;
    }
    heatsource1
    {
        type            calculated;
        value           nonuniform List<scalar> 3(2.04219e-07 2.04142e-07 2.0416e-07);
    }
    heatsource2
    {
        type            calculated;
        value           nonuniform List<scalar> 4(5.12137e-08 5.12816e-08 0 0);
    }
    Table_master
    {
        type            calculated;
        value           nonuniform List<scalar> 9(-1.53169e-07 -1.53269e-07 -1.53304e-07 -1.53327e-07 -1.53344e-07 -1.53355e-07 -1.53361e-07 -1.53357e-07 -1.53328e-07);
    }
    Table_slave
    {
        type            calculated;
        value           nonuniform List<scalar> 9(1.53041e-07 1.53066e-07 1.53048e-07 1.53032e-07 1.53025e-07 1.53027e-07 1.53041e-07 1.53082e-07 1.53161e-07);
    }
    inlet
    {
        type            calculated;
        value           uniform -0.00664698;
    }
    outlet
    {
        type            calculated;
        value           nonuniform List<scalar> 2(0.00822571 0.00292757);
    }
}


// ************************************************************************* //
