/*--------------------------------*- C++ -*----------------------------------*\
  =========                 |
  \\      /  F ield         | OpenFOAM: The Open Source CFD Toolbox
   \\    /   O peration     | Website:  https://openfoam.org
    \\  /    A nd           | Version:  6
     \\/     M anipulation  |
\*---------------------------------------------------------------------------*/
FoamFile
{
    version     2.0;
    format      ascii;
    class       volScalarField;
    location    "300";
    object      nut;
}
// * * * * * * * * * * * * * * * * * * * * * * * * * * * * * * * * * * * * * //

dimensions      [0 2 -1 0 0 0 0];

internalField   nonuniform List<scalar> 
459
(
0.000746222
0.000758887
0.000635306
0.000650702
0.000675656
0.000701115
0.000726326
0.000751549
0.000777686
0.00080294
0.000823902
0.000838997
0.000846938
0.000846746
0.000833771
0.000440445
0.000552857
0.000376682
0.000249237
0.000191893
0.000178586
0.000178275
0.000179884
0.000189489
0.000208708
0.000229773
0.000251788
0.00027702
0.000309588
0.000356789
0.000412231
0.000444918
0.000457983
0.000418963
0.00135423
0.00258396
0.00161344
0.00239456
0.00265264
0.00284474
0.00304381
0.00323252
0.0033835
0.00348846
0.00353264
0.00347769
0.00326042
0.00277862
0.00192899
0.000904578
0.000612935
0.00053483
0.00193599
0.00127139
0.000936232
0.000626123
0.000352073
0.000273039
0.000234552
0.000246248
0.000293288
0.000373715
0.00050883
0.000739646
0.00103422
0.00130922
0.00166933
0.00155595
0.00147146
0.00052819
0.00187465
0.00450191
0.00183066
0.00307564
0.00396931
0.00426118
0.00447291
0.00465255
0.00478747
0.00487352
0.00489015
0.00479189
0.00450661
0.00393841
0.00303069
0.00193434
0.00098059
0.000803766
0.00251389
0.00206187
0.00174348
0.00142122
0.00106098
0.00033729
0.000201876
0.000258797
0.000332939
0.000395678
0.000453093
0.000512841
0.000582311
0.000671034
0.00167514
0.00143368
0.00112348
0.000619212
0.00234729
0.00672574
0.00248867
0.00294669
0.00450705
0.00497262
0.00520536
0.00539591
0.00555532
0.00568182
0.00578053
0.00580851
0.00568453
0.00528387
0.00446669
0.00322188
0.00190885
0.00115078
0.00273555
0.00303188
0.00295168
0.00248198
0.00190793
0.00127169
0.000771315
0.000754592
0.000742092
0.000731914
0.000725905
0.000727808
0.000743408
0.000782253
0.000865939
0.00258351
0.00280372
0.00263551
0.000960302
0.00276972
0.0089487
0.00373115
0.00278669
0.00438159
0.00506942
0.00536572
0.00558862
0.00578782
0.00598248
0.00623468
0.00652054
0.00678787
0.00696451
0.00696727
0.00673169
0.00627342
0.00574235
0.00557596
0.0054776
0.00536589
0.00512092
0.00484049
0.00453338
0.00422411
0.00399253
0.003745
0.00349648
0.00328354
0.00314704
0.00310912
0.00316274
0.00328561
0.00347204
0.00355333
0.00353296
0.00310014
0.00137813
0.00121868
0.00106159
0.00315502
0.0108283
0.00580805
0.0033748
0.00375648
0.00446528
0.00492002
0.00522156
0.00542422
0.00565724
0.0060163
0.0064852
0.00702028
0.00755463
0.00800469
0.00828512
0.00833247
0.00815577
0.00785626
0.00751887
0.00720874
0.00694998
0.00671926
0.00647139
0.00616776
0.00579609
0.00535483
0.00486889
0.00439567
0.00401385
0.00377836
0.00368201
0.00367094
0.00368765
0.00368379
0.00360868
0.0033306
0.00274471
0.0020549
0.00110065
0.00349017
0.0120492
0.00871343
0.00551772
0.00398921
0.00385437
0.0042747
0.00467477
0.0048362
0.00503508
0.0053563
0.00583006
0.00645201
0.00716611
0.00787095
0.00844654
0.00878036
0.00884688
0.00870576
0.00846496
0.0082225
0.00802219
0.00785108
0.00767112
0.0074401
0.00712875
0.00671625
0.00619115
0.0055765
0.00495472
0.00443947
0.00408811
0.00385507
0.00369798
0.00354145
0.00330868
0.00293872
0.0024537
0.00195346
0.00108436
0.0035244
0.0113084
0.0096762
0.00826434
0.00639969
0.00516917
0.00474404
0.00475173
0.00473276
0.00473026
0.00482024
0.00504969
0.00546431
0.00608209
0.00684562
0.00762278
0.00819803
0.00851509
0.0086077
0.00855902
0.00846076
0.0083686
0.00829373
0.00822225
0.00813206
0.00800329
0.00781128
0.00751788
0.00708614
0.00652536
0.00591897
0.00533519
0.00484719
0.0044096
0.00398573
0.00356725
0.00315238
0.0027533
0.00244333
0.0014122
0.00337562
0.00391862
0.00733382
0.00786316
0.00713245
0.00622649
0.00552454
0.00506607
0.00475796
0.00457636
0.00450313
0.00452755
0.00466742
0.0049658
0.00545614
0.00609785
0.00674698
0.00726873
0.00760848
0.00779022
0.00787499
0.00791694
0.00794589
0.00797276
0.00800069
0.00803358
0.00807169
0.00809514
0.0080519
0.00786168
0.00746982
0.00697302
0.00652543
0.00627446
0.00627583
0.0062509
0.00544331
0.00427015
0.00447288
0.00156467
0.0150494
0.0148601
0.00905193
0.00719049
0.00619326
0.00554574
0.00509722
0.0047754
0.00453792
0.00437171
0.0042775
0.00427052
0.00437965
0.00463146
0.005014
0.00546188
0.00588847
0.0062354
0.00648995
0.00666836
0.00679483
0.00689171
0.00697865
0.00707585
0.00720399
0.00737519
0.00757173
0.00770972
0.00769628
0.00750288
0.00718605
0.00686962
0.00663368
0.00640045
0.0057917
0.00479596
0.00429414
0.00150606
0.00600724
0.0125965
0.00890387
0.00711996
0.00608854
0.00538986
0.00488664
0.00451138
0.00420961
0.00397134
0.00379521
0.00368264
0.00363936
0.00367587
0.00380175
0.00401393
0.00428742
0.00458016
0.00485017
0.00507037
0.00523254
0.00534326
0.00541777
0.00547567
0.00553837
0.00562631
0.00575187
0.00588813
0.00600504
0.00605034
0.00598805
0.00582756
0.0055959
0.00521961
0.00459357
0.00374473
0.00357142
0.0013245
0.00211918
0.00321868
0.0045242
0.00413429
0.0034069
0.00287872
0.00249533
0.00220476
0.00197566
0.00178954
0.00163819
0.00151296
0.00140804
0.00131982
0.00124608
0.00118555
0.00113757
0.00110173
0.00107733
0.00106283
0.00105584
0.0010536
0.00105359
0.00105399
0.0010538
0.00105275
0.00105114
0.0010497
0.00104953
0.00105587
0.00107028
0.00109063
0.00111119
0.00112295
0.00111647
0.0010918
0.00106013
0.00101979
0.00102983
0.000981427
)
;

boundaryField
{
    floor
    {
        type            nutkWallFunction;
        Cmu             0.09;
        kappa           0.41;
        E               9.8;
        value           nonuniform List<scalar> 
29
(
0.000100962
5.20338e-05
6.64061e-05
4.36609e-05
2.63743e-05
1.82329e-05
1.63021e-05
1.62597e-05
1.64978e-05
1.78923e-05
2.06619e-05
2.36607e-05
2.67545e-05
3.02535e-05
3.47095e-05
4.10666e-05
4.84009e-05
5.26661e-05
5.43508e-05
4.92728e-05
4.92727e-05
6.33227e-05
7.47875e-05
0.00011607
0.000100962
5.20337e-05
6.41353e-05
9.73137e-05
0.000138299
)
;
    }
    ceiling
    {
        type            nutkWallFunction;
        Cmu             0.09;
        kappa           0.41;
        E               9.8;
        value           nonuniform List<scalar> 
43
(
0.000246687
0.000363286
0.000496036
0.000456701
0.000382368
0.000327407
0.000286873
0.000255721
0.000230856
0.000210429
0.000193648
0.000179637
0.000167798
0.000157769
0.000149329
0.000142358
0.000136803
0.000132637
0.00012979
0.000128095
0.000127276
0.000127012
0.000127009
0.000127056
0.000127033
0.00012691
0.000126723
0.000126556
0.000126536
0.000127279
0.000128964
0.000131338
0.000133731
0.000135099
0.000134347
0.000131477
0.000127781
0.000123056
0.000124234
0.000118542
0.000379101
0.000434711
0.000642656
)
;
    }
    sWall
    {
        type            nutkWallFunction;
        Cmu             0.09;
        kappa           0.41;
        E               9.8;
        value           uniform 0.000246743;
    }
    nWall
    {
        type            nutkWallFunction;
        Cmu             0.09;
        kappa           0.41;
        E               9.8;
        value           nonuniform List<scalar> 6(0.00012796 0.000132515 0.000130621 0.00017885 0.000158295 0.000118548);
    }
    sideWalls
    {
        type            empty;
    }
    glass1
    {
        type            nutkWallFunction;
        Cmu             0.09;
        kappa           0.41;
        E               9.8;
        value           nonuniform List<scalar> 9(9.03567e-05 0.000161848 0.000220047 0.000271365 0.0003163 0.000356662 0.000391359 0.000394898 0.000379576);
    }
    glass2
    {
        type            nutkWallFunction;
        Cmu             0.09;
        kappa           0.41;
        E               9.8;
        value           nonuniform List<scalar> 2(0.000168339 0.000185499);
    }
    sun
    {
        type            nutkWallFunction;
        Cmu             0.09;
        kappa           0.41;
        E               9.8;
        value           nonuniform List<scalar> 
14
(
9.03752e-05
9.19157e-05
7.67459e-05
7.86541e-05
8.17355e-05
8.48653e-05
8.79511e-05
9.10258e-05
9.4199e-05
9.72531e-05
9.97795e-05
0.000101594
0.000102546
0.000102522
)
;
    }
    heatsource1
    {
        type            nutkWallFunction;
        Cmu             0.09;
        kappa           0.41;
        E               9.8;
        value           nonuniform List<scalar> 3(0.00016439 0.000146166 0.000127952);
    }
    heatsource2
    {
        type            nutkWallFunction;
        Cmu             0.09;
        kappa           0.41;
        E               9.8;
        value           nonuniform List<scalar> 4(0.000109423 7.39699e-05 7.39699e-05 0.000118419);
    }
    Table_master
    {
        type            nutkWallFunction;
        Cmu             0.09;
        kappa           0.41;
        E               9.8;
        value           nonuniform List<scalar> 9(3.83891e-05 1.96843e-05 2.773e-05 3.78624e-05 4.62105e-05 5.37027e-05 6.1373e-05 7.01538e-05 8.11859e-05);
    }
    Table_slave
    {
        type            nutkWallFunction;
        Cmu             0.09;
        kappa           0.41;
        E               9.8;
        value           nonuniform List<scalar> 9(9.34325e-05 9.14034e-05 8.98829e-05 8.86423e-05 8.79091e-05 8.81422e-05 9.00463e-05 9.47665e-05 0.000104842);
    }
    inlet
    {
        type            calculated;
        value           uniform 0.0150494;
    }
    outlet
    {
        type            calculated;
        value           nonuniform List<scalar> 2(0.00211918 0.00321868);
    }
}


// ************************************************************************* //
