/*--------------------------------*- C++ -*----------------------------------*\
  =========                 |
  \\      /  F ield         | OpenFOAM: The Open Source CFD Toolbox
   \\    /   O peration     | Website:  https://openfoam.org
    \\  /    A nd           | Version:  6
     \\/     M anipulation  |
\*---------------------------------------------------------------------------*/
FoamFile
{
    version     2.0;
    format      ascii;
    class       surfaceScalarField;
    location    "400";
    object      phi;
}
// * * * * * * * * * * * * * * * * * * * * * * * * * * * * * * * * * * * * * //

dimensions      [1 0 -1 0 0 0 0];

internalField   nonuniform List<scalar> 
852
(
-0.00285166
0.00291354
-0.00364376
0.000792086
-0.00436959
0.000725814
-0.0050077
0.000638093
-0.00552081
0.000513101
-0.00588733
0.000366504
-0.00608453
0.000197188
-0.00608599
1.44052e-06
-0.0058614
-0.000224603
-0.00539095
-0.000470464
-0.00468241
-0.000708547
-0.00377436
-0.000908064
-0.00271829
-0.00105608
-0.00151213
-0.00120617
-0.00151
-0.000515086
0.000519621
-0.000186546
-0.000328451
0.000205935
-0.0003924
0.000372129
-0.000166103
0.000397363
-2.51323e-05
0.000357002
4.04773e-05
0.000262691
9.4441e-05
0.000153643
0.000109181
8.49895e-05
6.87699e-05
5.57603e-05
2.93225e-05
4.86396e-05
7.20326e-06
5.21742e-05
-3.45584e-06
6.33068e-05
-1.1054e-05
8.18579e-05
-1.84716e-05
0.00010556
-2.36223e-05
0.000143728
-3.80888e-05
0.000262562
-0.000118753
0.000515965
-0.000253322
0.000520671
-0.00206279
0.00514211
-0.00296419
0.00169347
-0.00377689
0.0015385
-0.00443484
0.00129603
-0.00495535
0.00103359
-0.00533255
0.000743692
-0.00554758
0.000412202
-0.00557357
2.74248e-05
-0.0053862
-0.000411985
-0.00497421
-0.000882466
-0.00435459
-0.00132817
-0.00357136
-0.0016913
-0.0026948
-0.00193265
-0.00188345
-0.00201752
-0.00156909
-0.00182437
-0.000436812
-0.00113234
-0.000436873
0.000968244
-0.000438402
0.00104915
-0.000409291
0.000925442
-0.000268634
0.000907152
-0.000147751
0.000952019
-6.99358e-05
0.00100075
-8.1855e-06
0.00100871
8.65503e-05
0.00101384
0.000104133
0.00100531
7.73716e-05
0.000984881
4.98352e-05
0.000958011
3.41537e-05
0.000928655
2.59827e-05
0.00089709
2.0595e-05
0.000861334
1.737e-05
0.000799428
3.83721e-05
0.000643646
0.000117783
0.000413374
0.000111607
0.000205608
-4.5479e-05
0.000738157
-0.00148475
0.00687872
-0.0023413
0.00255
-0.00310761
0.0023048
-0.00370277
0.00189118
-0.00418498
0.00151578
-0.00454999
0.00110868
-0.00477423
0.00063643
-0.00482517
7.83508e-05
-0.00467025
-0.000566917
-0.00430271
-0.00125001
-0.00375152
-0.00187936
-0.00306853
-0.00237428
-0.00232769
-0.00267348
-0.00164841
-0.0026968
-0.00110242
-0.00237037
-0.000483929
-0.00175084
-0.000920812
0.000560536
-0.000986125
0.00070861
-0.000557352
0.000717247
-0.00027725
0.00077165
-0.000202127
0.00088101
-0.000179266
0.00106247
-0.000189618
0.00114922
0.00125355
0.00133112
0.00138117
0.00141553
0.00144173
0.00146254
0.00148014
0.00151873
0.00122602
0.000410566
0.000835661
0.000502023
0.000378672
0.000411574
0.00113382
-0.00107796
0.00828025
-0.0018364
0.00330842
-0.00239616
0.00286455
-0.00284545
0.00234045
-0.00323464
0.00190495
-0.00354986
0.00142389
-0.00376113
0.000847686
-0.00382561
0.000142809
-0.00369358
-0.000698948
-0.00336751
-0.00157609
-0.00289879
-0.00234807
-0.00234378
-0.00292928
-0.00175558
-0.00326166
-0.00120442
-0.00324796
-0.000726792
-0.002848
-0.000287629
-0.00219001
0.000207994
-0.00141644
0.000813472
-0.000592345
0.000423506
-0.000596158
0.000421985
-0.000555823
0.000502453
-0.000357703
0.000573803
-0.00027346
0.000642821
-0.000248263
0.000677134
-0.000223911
0.000856033
-0.000179033
0.00105036
-0.000194462
0.00127275
-0.000222522
0.00151867
-0.000246061
0.00177033
-0.000251793
0.00199179
-0.000221594
0.00212206
-0.000130405
0.00207846
4.34616e-05
0.00177543
0.00030289
0.00149958
0.000686437
0.000912153
0.00108948
-8.31189e-05
0.0014069
0.00107319
-0.000774158
0.00943784
-0.00142429
0.00395854
-0.00164427
0.00308451
-0.00189106
0.00258721
-0.00213995
0.00215383
-0.00235771
0.00164162
-0.00251325
0.00100321
-0.0025605
0.000190036
-0.00242425
-0.000835216
-0.0021363
-0.00186403
-0.00177318
-0.00271117
-0.00138247
-0.00331996
-0.000986541
-0.00365755
-0.000622116
-0.00361237
-0.000322269
-0.00314785
-8.38244e-05
-0.00242846
0.000123078
-0.00162335
0.000405729
-0.000874996
0.000423509
-0.000613933
0.000351565
-0.000483868
0.000360438
-0.000366561
0.000398845
-0.00031185
0.000449096
-0.000298497
0.000524133
-0.000298931
0.000657912
-0.000312795
0.000818138
-0.000354671
0.0010047
-0.000409064
0.00121594
-0.000457287
0.00144265
-0.000478482
0.00166385
-0.000442775
0.00184219
-0.000308726
0.00192085
-3.51807e-05
0.00186536
0.0003584
0.00172958
0.00082223
0.00153795
0.00128114
0.00123785
0.00170703
0.000703049
0.00160804
-0.000594257
0.00129715
-0.00119576
0.000601339
-0.00114387
-0.000666958
0.0105384
-0.00117379
0.00446535
-0.000887947
0.00279865
-0.000866843
0.00256609
-0.000961629
0.0022486
-0.00105543
0.0017354
-0.0011065
0.00105426
-0.00106585
0.000149361
-0.00088054
-0.00102055
-0.000643257
-0.00210132
-0.000419242
-0.00293516
-0.000228367
-0.00351079
-6.21748e-05
-0.00382369
7.20221e-05
-0.00374654
0.00015681
-0.00323264
0.000194613
-0.00246628
0.000210617
-0.00163936
0.000260228
-0.000924604
0.000213523
-0.000567218
0.000151297
-0.000421627
0.000148655
-0.000363902
0.000176259
-0.000339439
0.000214739
-0.000336962
0.000273184
-0.000357361
0.000360744
-0.000400338
0.000472854
-0.000466763
0.000609199
-0.00054539
0.000771107
-0.000619176
0.000958661
-0.000666015
0.00116819
-0.00065228
0.00138773
-0.000528251
0.00158609
-0.000233517
0.0017126
0.00023191
0.00179908
0.000735772
0.00190867
0.00117157
0.00209508
0.00152065
0.00226305
0.0014401
0.00243294
0.0011273
0.00202417
0.00101014
0.000941051
-0.000890448
0.0119055
-0.000856545
0.00443144
6.82445e-05
0.00187384
0.00034018
0.00229413
0.000353737
0.00223502
0.000375387
0.00171373
0.000479142
0.000950483
0.0006925
-6.40325e-05
0.000922292
-0.00125036
0.00105488
-0.00223391
0.00108225
-0.00296249
0.00102902
-0.0034575
0.000934493
-0.00372911
0.000810127
-0.00362215
0.000647608
-0.00307013
0.000456113
-0.00227479
0.000259951
-0.00144321
9.47609e-05
-0.000759408
-3.7146e-05
-0.000435296
-9.468e-05
-0.000364073
-8.81012e-05
-0.000370462
-7.37029e-05
-0.000353822
-6.5509e-05
-0.000345142
-5.01658e-05
-0.000372689
-1.89057e-05
-0.000431579
2.77557e-05
-0.000513404
8.94265e-05
-0.000607039
0.000169385
-0.000699112
0.000274508
-0.000771115
0.000416287
-0.000794036
0.00061281
-0.000724751
0.000882261
-0.000502946
0.00117219
-5.79978e-05
0.00145041
0.000457566
0.00177385
0.000848152
0.00221197
0.00108254
0.00269174
0.000960354
0.00314748
0.000671588
0.00301468
0.00114298
0.00401761
0.00240086
0.0100347
0.00293268
0.0038996
0.00274038
0.00206612
0.00260945
0.00242505
0.00247132
0.00237313
0.00246681
0.00171821
0.00265602
0.000761238
0.00293254
-0.000340584
0.00301663
-0.00133448
0.00289313
-0.00211039
0.00260837
-0.0026777
0.00224054
-0.00308959
0.00186741
-0.00335592
0.00148405
-0.00323877
0.00105388
-0.00263995
0.000609787
-0.00183072
0.000185172
-0.0010186
-0.000144416
-0.000429812
-0.000317641
-0.000262051
-0.00035582
-0.000325872
-0.000329717
-0.000396548
-0.000337867
-0.00034566
-0.0003741
-0.000308895
-0.000413653
-0.000333118
-0.000447829
-0.000397381
-0.000481342
-0.000479866
-0.000518975
-0.000569381
-0.000560124
-0.000657938
-0.00059909
-0.000732124
-0.000622137
-0.000770966
-0.000600348
-0.000746516
-0.000478174
-0.000625098
-0.000160903
-0.000375247
0.000241231
5.54529e-05
0.000620126
0.000469279
0.000989795
0.000712898
0.0012529
0.000697273
0.00140091
0.000523602
0.000813464
0.00173046
0.00511933
0.0106159
0.0145095
0.0119008
0.00467483
0.00999503
0.00433076
0.00853161
0.00383653
0.0076081
0.0026417
0.00697498
0.00139434
0.00632202
0.000312352
0.00555671
-0.00056916
0.00472132
-0.00127496
0.00387582
-0.00183213
0.00309665
-0.00231032
0.00246676
-0.00272596
0.00187883
-0.00265082
0.001202
-0.00196314
0.000519614
-0.00114835
-8.86425e-05
-0.000410352
-0.000472493
-4.5948e-05
-0.000644056
-9.04657e-05
-0.00063635
-0.000333555
-0.000554305
-0.000478579
-0.000590387
-0.000309569
-0.000685492
-0.000213774
-0.000786336
-0.000232253
-0.000883574
-0.000300119
-0.000996289
-0.000367125
-0.00114099
-0.000424654
-0.00132592
-0.000472975
-0.00155811
-0.000499911
-0.00184636
-0.000482691
-0.0021993
-0.000393553
-0.00262157
-0.000202799
-0.00311347
0.000116669
-0.003639
0.000581013
-0.00432336
0.00115366
-0.00535356
0.00174313
-0.00685032
0.00219406
-0.00858308
0.00225639
-0.00797253
0.00111994
-0.0025319
0.00548594
0.00566547
0.00494885
0.00486789
0.00572205
0.00306337
0.00606379
0.0023
0.00599789
0.00146029
0.00570775
0.000602544
0.00521559
-7.69334e-05
0.00452794
-0.000587236
0.00371861
-0.00102272
0.00292895
-0.00152056
0.00232978
-0.00212677
0.00170145
-0.00202251
0.000884504
-0.00114623
1.19504e-05
-0.000275829
-0.000558218
0.000159817
-0.000849677
0.00024553
-0.00100998
6.98657e-05
-0.000906907
-0.000436608
-0.000735653
-0.000649823
-0.000808979
-0.000236236
-0.000975854
-4.68808e-05
-0.00111706
-9.10244e-05
-0.00122792
-0.000189228
-0.00136388
-0.000231137
-0.00154664
-0.000241871
-0.0017744
-0.000245184
-0.00203996
-0.000234323
-0.00233078
-0.000191851
-0.00262304
-0.00010126
-0.00288425
5.84405e-05
-0.0031046
0.000337036
-0.003286
0.000762443
-0.00343928
0.00130696
-0.00354297
0.00184685
-0.00353398
0.0021851
-0.00321535
0.00193779
-0.00185081
-0.000244576
-0.0042994
-0.000447803
0.0061571
0.00170475
0.00271538
0.0027672
0.00200096
0.00346389
0.00160336
0.00391
0.00101422
0.00401417
0.00049843
0.00382091
0.000116388
0.00342181
-0.000188078
0.00285396
-0.000454806
0.00219059
-0.000857134
0.00155451
-0.00149079
0.000691319
-0.0011594
-0.00015164
-0.00030333
-0.00073081
0.000303333
-0.000889829
0.000318849
-0.000964408
0.000320133
-0.00106954
0.00017503
-0.00103608
-0.000470036
-0.00104283
-0.000643071
-0.00113147
-0.00014759
-0.00124591
6.75802e-05
-0.00132812
-8.78527e-06
-0.00140457
-0.000112756
-0.00150413
-0.000131543
-0.00162874
-0.000117228
-0.00177108
-0.000102818
-0.00192064
-8.47393e-05
-0.00206272
-4.97398e-05
-0.00217847
1.45243e-05
-0.00223578
0.000115775
-0.00217912
0.0002804
-0.0019667
0.000550058
-0.00159338
0.000933671
-0.00105812
0.00131162
-0.000120286
0.00124729
0.00119136
0.000626176
0.00156701
-0.000620193
-0.00264091
-0.00889552
-0.0113658
-0.00516992
-0.00243188
-0.000413066
0.00120514
0.00223355
0.00274644
0.00287806
0.0027061
0.00226832
0.00142922
-4.37885e-05
-0.00118991
-0.00148089
-0.00116584
-0.000835441
-0.000503681
-0.000316836
-0.000774846
-0.00140629
-0.0015426
-0.00146397
-0.0014617
-0.00156348
-0.00168422
-0.00179091
-0.00188355
-0.00195849
-0.00199887
-0.00197545
-0.00185128
-0.00156299
-0.00100553
-6.49022e-05
0.0012531
0.00250658
0.00313901
0.0025254
)
;

boundaryField
{
    floor
    {
        type            calculated;
        value           nonuniform List<scalar> 
29
(
0
0
0
0
0
0
0
0
0
0
0
0
0
0
0
0
0
0
0
0
-4.62536e-06
-1.17998e-05
-1.69117e-05
-2.24225e-05
-2.14748e-06
-4.43916e-06
-1.01477e-05
-1.28074e-05
-1.31359e-05
)
;
    }
    ceiling
    {
        type            calculated;
        value           nonuniform List<scalar> 
43
(
-4.11622e-05
-3.99986e-05
-3.87461e-05
-2.26433e-05
-1.78298e-05
-1.47946e-05
-1.41606e-05
-1.44102e-05
-1.5185e-05
-1.60702e-05
-1.69867e-05
-1.80058e-05
-1.80992e-05
-1.33132e-05
-1.23554e-05
-1.17271e-05
-1.15428e-05
-1.16094e-05
-1.17833e-05
-1.19849e-05
-1.16117e-05
-1.12657e-05
-1.10267e-05
-1.10238e-05
-1.09527e-05
-1.07764e-05
-1.05028e-05
-1.01593e-05
-9.766e-06
-9.3347e-06
-8.8673e-06
-8.36145e-06
-7.86082e-06
-7.37759e-06
-6.92565e-06
-6.35042e-06
-6.16133e-06
-6.22858e-06
-6.55259e-06
-6.30674e-06
9.13921e-06
6.00201e-06
-4.38037e-05
)
;
    }
    sWall
    {
        type            calculated;
        value           uniform -0.000248349;
    }
    nWall
    {
        type            calculated;
        value           nonuniform List<scalar> 6(-5.2066e-05 -6.07134e-05 -6.18481e-05 -8.32781e-05 -9.14542e-05 -0.000109175);
    }
    sideWalls
    {
        type            empty;
        value           nonuniform 0();
    }
    glass1
    {
        type            calculated;
        value           nonuniform List<scalar> 9(-6.18968e-05 -0.000165795 -0.000251879 -0.000323572 -0.000383438 -0.000433592 -0.000476656 -0.000530067 -0.000590333);
    }
    glass2
    {
        type            calculated;
        value           nonuniform List<scalar> 2(-0.000288218 -0.00032127);
    }
    sun
    {
        type            calculated;
        value           uniform 0;
    }
    heatsource1
    {
        type            calculated;
        value           nonuniform List<scalar> 3(2.05215e-07 2.05124e-07 2.05133e-07);
    }
    heatsource2
    {
        type            calculated;
        value           nonuniform List<scalar> 4(5.11996e-08 5.13557e-08 0 0);
    }
    Table_master
    {
        type            calculated;
        value           nonuniform List<scalar> 9(-1.53862e-07 -1.53877e-07 -1.5388e-07 -1.5389e-07 -1.53902e-07 -1.53917e-07 -1.53934e-07 -1.53952e-07 -1.53964e-07);
    }
    Table_slave
    {
        type            calculated;
        value           nonuniform List<scalar> 9(1.53851e-07 1.53809e-07 1.53728e-07 1.53637e-07 1.53546e-07 1.53468e-07 1.53425e-07 1.5343e-07 1.53455e-07);
    }
    inlet
    {
        type            calculated;
        value           uniform -0.00647653;
    }
    outlet
    {
        type            calculated;
        value           nonuniform List<scalar> 2(0.00918505 0.00251029);
    }
}


// ************************************************************************* //
