/*--------------------------------*- C++ -*----------------------------------*\
  =========                 |
  \\      /  F ield         | OpenFOAM: The Open Source CFD Toolbox
   \\    /   O peration     | Website:  https://openfoam.org
    \\  /    A nd           | Version:  6
     \\/     M anipulation  |
\*---------------------------------------------------------------------------*/
FoamFile
{
    version     2.0;
    format      ascii;
    class       surfaceScalarField;
    location    "200";
    object      phi;
}
// * * * * * * * * * * * * * * * * * * * * * * * * * * * * * * * * * * * * * //

dimensions      [1 0 -1 0 0 0 0];

internalField   nonuniform List<scalar> 
852
(
-0.00264088
0.00271037
-0.00294464
0.00030382
-0.0033783
0.000433723
-0.00383117
0.000452936
-0.00424314
0.00041203
-0.00458549
0.000342414
-0.0048359
0.00025047
-0.00497167
0.000135829
-0.00496798
-3.62316e-06
-0.00479588
-0.000172042
-0.00442983
-0.000365989
-0.00385324
-0.000576532
-0.00302999
-0.000823185
-0.00181715
-0.00121278
-0.00181397
-0.000633796
0.000638465
-0.000433673
-0.000200058
1.83158e-05
-0.00045192
0.000557013
-0.000538629
0.00107133
-0.000514245
0.00149153
-0.000420135
0.00166478
-0.00017318
0.00168476
-1.9909e-05
0.00165545
2.93855e-05
0.00160803
4.74933e-05
0.00155126
5.68376e-05
0.00149112
6.02139e-05
0.00142977
6.14229e-05
0.00136274
6.71009e-05
0.00127379
8.90265e-05
0.00113801
0.000135848
0.000965551
0.000172535
0.000823359
0.000142262
0.000830395
-0.00193583
0.00482824
-0.00259472
0.000962768
-0.00319452
0.00103358
-0.00369875
0.000957224
-0.00413448
0.000847825
-0.00449491
0.000702905
-0.00476477
0.000520393
-0.00492506
0.000296184
-0.00495495
2.63299e-05
-0.004836
-0.000290936
-0.00454982
-0.000652108
-0.00408077
-0.00104552
-0.00343048
-0.00147342
-0.00270217
-0.00194102
-0.00217581
-0.00234027
0.000115801
-0.00229161
0.00011581
0.000221011
0.000430169
6.06688e-05
-3.96511e-05
0.00010142
-0.000492604
0.000432972
-0.000870114
0.000842244
-0.000923449
0.00120805
-0.000785877
0.00129023
-0.000255288
0.00128884
-1.84452e-05
0.00128153
3.67682e-05
0.00127307
5.60208e-05
0.0012649
6.50782e-05
0.00125858
6.66147e-05
0.00125406
6.60091e-05
0.0012492
7.20381e-05
0.00121855
0.00011975
0.00108429
0.000270178
0.000861845
0.000395055
0.000622943
0.000381235
0.00147052
-0.00144697
0.00654673
-0.00224656
0.00176241
-0.00288232
0.00166941
-0.00338436
0.00145933
-0.00382107
0.00128459
-0.00419232
0.00107422
-0.0044855
0.000813633
-0.0046832
0.000493943
-0.00476693
0.000110121
-0.00472191
-0.000335892
-0.00454239
-0.00083157
-0.00423763
-0.00135021
-0.00384757
-0.00186341
-0.00345613
-0.00233241
-0.003139
-0.00265734
-0.00271785
-0.0027127
-0.00260197
-0.000391876
0.000837996
-0.000421889
-9.57545e-06
-0.000219087
-0.000695341
0.000125346
-0.00121448
0.000471531
-0.00126957
0.000993768
-0.00130805
0.000738704
0.000720485
0.000757481
0.00081373
0.000879037
0.00094588
0.00101212
0.00108438
0.00120436
0.00100604
0.000468569
0.000754704
0.000646464
0.000499306
0.000636703
0.00199472
-0.00109249
0.00798319
-0.00192248
0.00259247
-0.00245711
0.00220411
-0.00289166
0.00189394
-0.00328302
0.00167602
-0.00362797
0.00141923
-0.00391585
0.00110157
-0.00413112
0.000709274
-0.00425433
0.000233386
-0.00426885
-0.000321312
-0.00418032
-0.000920037
-0.0040252
-0.00150527
-0.00386491
-0.00202364
-0.00376842
-0.00242884
-0.00376113
-0.00266457
-0.00381992
-0.00265385
-0.00431071
-0.00211112
-0.00311907
-0.00117669
-0.00183093
-0.000450081
-0.00118831
-0.000652134
-0.000647807
-0.00123578
-0.000202156
-0.00166007
2.56974e-05
-0.00149736
-7.68774e-05
-0.0012054
0.000550783
-0.000627747
0.00100903
-0.000458331
0.00140295
-0.000394013
0.00175259
-0.000349723
0.00204599
-0.000293482
0.00224725
-0.000201349
0.00230087
-5.37001e-05
0.00215284
0.000147947
0.00174532
0.000407435
0.00142535
0.000788604
0.000909437
0.00116245
0.000124983
0.00142123
0.00215173
-0.000811593
0.00919915
-0.00161519
0.00339613
-0.00193458
0.00252355
-0.00225055
0.00220997
-0.00254742
0.00197295
-0.00281186
0.00168373
-0.00303747
0.00132724
-0.00321495
0.000886811
-0.00332774
0.000346239
-0.00335098
-0.000298011
-0.00329078
-0.000980177
-0.0031998
-0.00159619
-0.00313453
-0.00208885
-0.00313173
-0.00243158
-0.00319652
-0.00259972
-0.00331506
-0.00253526
-0.00328973
-0.00213638
-0.00286975
-0.00159662
-0.0020746
-0.00124516
-0.00136244
-0.00136424
-0.000806676
-0.00179148
-0.000346033
-0.00212065
-0.000117732
-0.00172559
2.61225e-05
-0.00134919
0.000384307
-0.000985864
0.000729625
-0.000803582
0.00104895
-0.000713269
0.00134848
-0.000649183
0.00162076
-0.000565692
0.0018398
-0.000420321
0.00196086
-0.000174696
0.00193984
0.000169036
0.00178391
0.000563437
0.00156088
0.0010117
0.00124263
0.00148077
0.000611799
0.00205212
0.000279035
0.00248456
-0.00116469
0.00144358
-0.00165097
0.000486144
-0.00158837
-0.00071636
0.0103717
-0.00143169
0.00411152
-0.00135502
0.00244694
-0.00149497
0.00234999
-0.00167812
0.00215616
-0.00182708
0.00183274
-0.00193954
0.00143977
-0.00202109
0.000968426
-0.00206737
0.000392574
-0.00204872
-0.000316601
-0.00197993
-0.00104891
-0.00192287
-0.00165319
-0.00191814
-0.00209353
-0.00198002
-0.00236964
-0.00209803
-0.00248166
-0.00222304
-0.00241019
-0.00220836
-0.00215101
-0.00197757
-0.00182736
-0.00157037
-0.00165231
-0.00116007
-0.00177449
-0.000772942
-0.00217855
-0.000375375
-0.00251816
-0.000191116
-0.00190979
-6.93014e-05
-0.00147094
0.000132746
-0.00118785
0.000358211
-0.00102898
0.000587551
-0.000942542
0.000820984
-0.000882549
0.0010589
-0.000803541
0.00129222
-0.000653576
0.00149546
-0.000377861
0.00161278
5.17803e-05
0.0016374
0.000538889
0.00163077
0.0010184
0.00165886
0.00145276
0.00176134
0.00194972
0.00218768
0.00205828
0.00245143
0.0011799
0.00204614
0.000891504
0.000531815
-0.00100017
0.0118734
-0.00118257
0.00429398
-0.000524411
0.00178885
-0.000486035
0.00231168
-0.000622446
0.00229264
-0.000689401
0.00189976
-0.000671884
0.00142231
-0.000606959
0.000903562
-0.000503012
0.000288688
-0.000391919
-0.000427633
-0.000314693
-0.00112607
-0.000312266
-0.00165555
-0.00039472
-0.00201102
-0.000551307
-0.002213
-0.000753196
-0.00227972
-0.000943487
-0.00221984
-0.00104123
-0.00205321
-0.00101385
-0.00185469
-0.000907714
-0.00175839
-0.000792702
-0.00188945
-0.000624355
-0.00234684
-0.000335834
-0.00280662
-0.000252171
-0.00199339
-0.000228198
-0.00149485
-0.000171174
-0.0012448
-8.89974e-05
-0.00111109
1.14335e-05
-0.00104291
0.000132437
-0.00100348
0.000281427
-0.000952464
0.000469736
-0.000841817
0.000704358
-0.000612415
0.00095606
-0.000199854
0.00118747
0.000307546
0.00140603
0.000799912
0.00170803
0.00115083
0.00219361
0.00146421
0.00292382
0.00132814
0.00354067
0.000563109
0.00357542
0.000856824
0.0041843
0.0020737
0.0103573
0.00247903
0.00388871
0.00210882
0.00215913
0.00172183
0.00269873
0.00134021
0.00267432
0.00114845
0.00209158
0.00115978
0.00141104
0.00128601
0.000777387
0.00150039
7.43675e-05
0.00168225
-0.000609428
0.00169657
-0.00114033
0.00156684
-0.00152576
0.00133373
-0.00177785
0.00103216
-0.00191137
0.000696463
-0.00194397
0.000371179
-0.00189451
0.000105502
-0.00178748
-8.03957e-05
-0.00166874
-0.000221564
-0.00161717
-0.000363949
-0.00174701
-0.000416456
-0.00229428
-0.000242389
-0.00298063
-0.000289417
-0.0019463
-0.000405483
-0.00137872
-0.00050587
-0.00114435
-0.000585997
-0.0010309
-0.000653218
-0.000975619
-0.000706364
-0.000950272
-0.000736082
-0.000922679
-0.000720701
-0.000857131
-0.000615666
-0.000717382
-0.000348114
-0.000467339
1.48586e-05
-5.53583e-05
0.000383722
0.000431118
0.000762818
0.000771803
0.00120588
0.00102122
0.00158504
0.000949045
0.00160588
0.000542343
0.000711254
0.00175151
0.00524648
0.0109757
0.0148631
0.0117135
0.00530882
0.00945855
0.0049537
0.00766663
0.00446629
0.00645307
0.0033052
0.0057016
0.00216257
0.00526556
0.00121348
0.00489944
0.000440547
0.00448378
-0.000193705
0.00403503
-0.000691523
0.00355985
-0.00105053
0.00306335
-0.00128129
0.00255625
-0.00140422
0.0020552
-0.00144287
0.00158145
-0.0014207
0.00115585
-0.00136183
0.000781628
-0.00129448
0.000422665
-0.00125816
4.50865e-05
-0.00136938
-0.000199011
-0.00205014
-9.41914e-05
-0.0030854
-0.00028518
-0.00175525
-0.0005858
-0.00107803
-0.000848655
-0.00088143
-0.00108654
-0.000792947
-0.00133227
-0.000729824
-0.00160035
-0.000682124
-0.00189783
-0.000625129
-0.00223071
-0.000524187
-0.00260313
-0.0003449
-0.00302411
-4.62948e-05
-0.00346544
0.000386045
-0.00399564
0.000961375
-0.00485061
0.00162685
-0.00610713
0.0022778
-0.00785893
0.00270091
-0.00988281
0.00256628
-0.00910144
0.000970201
-0.0034627
0.00567801
0.00612372
0.00502068
0.00561106
0.00562554
0.00386147
0.00594842
0.00298237
0.00602094
0.0020901
0.00599246
0.00124202
0.00587023
0.000562834
0.00561265
6.39256e-05
0.00521225
-0.000291076
0.00471355
-0.000551774
0.00415949
-0.000727176
0.00358589
-0.000830579
0.00302018
-0.000877102
0.00248119
-0.000881669
0.00197863
-0.000859214
0.00150674
-0.000822536
0.00101808
-0.00076946
0.000434
-0.00078525
4.84236e-05
-0.00166451
1.42825e-05
-0.0030512
-0.000345194
-0.00139572
-0.000835727
-0.000587436
-0.0011763
-0.000540796
-0.00146397
-0.000505206
-0.00176975
-0.000423981
-0.00210745
-0.000344356
-0.0024679
-0.000264617
-0.00282477
-0.000167245
-0.00312793
-4.16833e-05
-0.00335042
0.000176262
-0.00351208
0.000547772
-0.00364099
0.00109035
-0.00376823
0.00175414
-0.0038524
0.00236204
-0.00376748
0.00261605
-0.00327951
0.00207837
-0.00183027
-0.000478981
-0.00519394
-0.000597955
0.00676501
0.00174186
0.00327127
0.00305862
0.00254475
0.0040358
0.00200523
0.00478928
0.00133667
0.00522966
0.00080168
0.00538675
0.000405787
0.00531944
0.000131289
0.0051004
-7.19925e-05
0.00477089
-0.000222217
0.00436694
-0.000323181
0.00392113
-0.000384713
0.00345852
-0.000414449
0.00299735
-0.000420449
0.00254941
-0.000411228
0.00211834
-0.000391419
0.00168725
-0.00033832
0.00119051
-0.000288462
0.000558372
-0.00103232
-0.000319421
-0.00217335
-0.000935889
-0.000779187
-0.00135179
-0.000171472
-0.00163462
-0.0002579
-0.00185678
-0.000282981
-0.00204926
-0.00023144
-0.002223
-0.000170547
-0.00238178
-0.00010577
-0.00252381
-2.51524e-05
-0.0026335
6.80702e-05
-0.00264877
0.000191591
-0.00250851
0.000407586
-0.00217124
0.000753141
-0.00165742
0.00124038
-0.000982722
0.00168741
0.000111612
0.00152178
0.00143766
0.000752387
0.00164006
-0.00068132
-0.00344532
-0.00983622
-0.0124184
-0.00561301
-0.00231504
0.000252621
0.00227881
0.0036364
0.00445944
0.00488733
0.00504164
0.00499363
0.00479634
0.00449904
0.00414118
0.00375461
0.00336308
0.0029818
0.00262127
0.00231461
0.00205834
0.00105891
-0.00108134
-0.00182917
-0.00197011
-0.00219764
-0.00245034
-0.00265163
-0.00279224
-0.00286841
-0.0028645
-0.00276816
-0.00254926
-0.00211547
-0.00133731
-7.30988e-05
0.00163655
0.00318002
0.00395438
0.00329624
)
;

boundaryField
{
    floor
    {
        type            calculated;
        value           nonuniform List<scalar> 
29
(
0
0
0
0
0
0
0
0
0
0
0
0
0
0
0
0
0
0
0
0
-6.96915e-06
-1.71135e-05
-2.48322e-05
-3.19539e-05
-3.12187e-06
-4.60484e-06
-1.26525e-05
-1.58895e-05
-1.48988e-05
)
;
    }
    ceiling
    {
        type            calculated;
        value           nonuniform List<scalar> 
43
(
-4.27082e-05
-4.15567e-05
-4.03363e-05
-2.66706e-05
-2.28726e-05
-2.0924e-05
-2.08708e-05
-2.13211e-05
-2.20572e-05
-2.29709e-05
-2.39423e-05
-2.48807e-05
-2.58309e-05
-2.68128e-05
-2.78307e-05
-2.88716e-05
-2.98997e-05
-3.08463e-05
-3.16067e-05
-3.21505e-05
-3.28417e-05
-3.30407e-05
-3.12941e-05
-3.04719e-05
-3.0304e-05
-3.02169e-05
-3.00825e-05
-2.98745e-05
-2.95358e-05
-2.90033e-05
-2.82101e-05
-2.72425e-05
-2.61393e-05
-2.49586e-05
-2.37629e-05
-2.21778e-05
-2.16295e-05
-2.19168e-05
-2.31098e-05
-2.39891e-05
3.74072e-06
1.35918e-06
-4.33274e-05
)
;
    }
    sWall
    {
        type            calculated;
        value           uniform -0.000242826;
    }
    nWall
    {
        type            calculated;
        value           nonuniform List<scalar> 6(-6.27441e-05 -7.39818e-05 -7.69999e-05 -9.89709e-05 -0.000108503 -0.000125028);
    }
    sideWalls
    {
        type            empty;
        value           nonuniform 0();
    }
    glass1
    {
        type            calculated;
        value           nonuniform List<scalar> 9(-6.94256e-05 -0.000181976 -0.000271461 -0.000343915 -0.00040432 -0.0004561 -0.000501469 -0.0005576 -0.00062208);
    }
    glass2
    {
        type            calculated;
        value           nonuniform List<scalar> 2(-0.000350862 -0.000392191);
    }
    sun
    {
        type            calculated;
        value           uniform 0;
    }
    heatsource1
    {
        type            calculated;
        value           nonuniform List<scalar> 3(2.06566e-07 2.06405e-07 2.06415e-07);
    }
    heatsource2
    {
        type            calculated;
        value           nonuniform List<scalar> 4(5.14738e-08 5.17566e-08 0 0);
    }
    Table_master
    {
        type            calculated;
        value           nonuniform List<scalar> 9(-1.5496e-07 -1.55124e-07 -1.55158e-07 -1.55173e-07 -1.55179e-07 -1.55182e-07 -1.55182e-07 -1.55178e-07 -1.55153e-07);
    }
    Table_slave
    {
        type            calculated;
        value           nonuniform List<scalar> 9(1.55048e-07 1.54971e-07 1.54848e-07 1.54739e-07 1.54648e-07 1.54591e-07 1.54586e-07 1.54603e-07 1.54673e-07);
    }
    inlet
    {
        type            calculated;
        value           uniform -0.0064929;
    }
    outlet
    {
        type            calculated;
        value           nonuniform List<scalar> 2(0.0101218 0.00262373);
    }
}


// ************************************************************************* //
