/*--------------------------------*- C++ -*----------------------------------*\
  =========                 |
  \\      /  F ield         | OpenFOAM: The Open Source CFD Toolbox
   \\    /   O peration     | Website:  https://openfoam.org
    \\  /    A nd           | Version:  6
     \\/     M anipulation  |
\*---------------------------------------------------------------------------*/
FoamFile
{
    version     2.0;
    format      ascii;
    class       volScalarField;
    location    "1200";
    object      epsilon;
}
// * * * * * * * * * * * * * * * * * * * * * * * * * * * * * * * * * * * * * //

dimensions      [0 2 -3 0 0 0 0];

internalField   nonuniform List<scalar> 
459
(
0.000422803
0.000547036
0.000578049
0.000664385
0.000751587
0.000840377
0.000935021
0.00103252
0.00110527
0.00113485
0.00110519
0.00101019
0.000857915
0.000672539
0.000492393
3.48195e-05
5.91912e-05
8.50112e-05
8.70474e-05
7.96766e-05
6.99267e-05
5.78647e-05
4.70958e-05
3.85351e-05
3.18736e-05
2.66655e-05
2.25504e-05
1.92702e-05
1.66191e-05
1.44094e-05
1.24799e-05
1.06817e-05
9.69699e-06
7.48126e-06
0.00107066
0.00157152
0.000514149
0.000497293
0.000519174
0.000557509
0.000616537
0.000695635
0.000771902
0.000820222
0.000820234
0.000765638
0.000664574
0.000539096
0.000436002
0.000517695
0.000119107
3.97252e-05
9.35864e-05
0.0001039
9.71887e-05
8.4672e-05
7.21889e-05
6.59687e-05
5.34108e-05
4.22163e-05
3.337e-05
2.65704e-05
2.1367e-05
1.73817e-05
1.43429e-05
1.21125e-05
1.07394e-05
1.01466e-05
2.64931e-05
1.78714e-05
0.00195362
0.00387586
0.000632614
0.000471228
0.000491158
0.000549919
0.000639689
0.000754687
0.000861853
0.000926923
0.00093194
0.000877166
0.000774321
0.000648416
0.000530578
0.000472522
0.000557715
0.000265763
0.000207396
0.000164441
0.000131585
0.000106251
9.08599e-05
0.000166195
0.000115457
8.27728e-05
6.12797e-05
4.67493e-05
3.66463e-05
2.94464e-05
2.4234e-05
2.04721e-05
1.56564e-05
1.31607e-05
5.03414e-05
2.86757e-05
0.00316819
0.00807633
0.000999336
0.000473001
0.000475757
0.000557959
0.000692844
0.00086531
0.00100273
0.00107053
0.00106435
0.0009943
0.000872164
0.000726665
0.00059813
0.000514185
0.000494854
0.000896001
0.000517931
0.000317863
0.000216373
0.000158304
0.000122143
0.000105151
0.000240925
0.000185424
0.000151679
0.000129002
0.000111491
9.649e-05
8.33491e-05
7.07958e-05
5.77859e-05
3.45399e-05
2.24364e-05
8.40196e-05
3.97558e-05
0.00484241
0.0144569
0.00197875
0.000551386
0.00047647
0.000584541
0.000825922
0.00108855
0.00123758
0.00128324
0.00124485
0.00114069
0.000985194
0.000803762
0.00062791
0.0004836
0.000384795
0.000342996
0.000281234
0.000225377
0.000180576
0.000145574
0.000118589
9.99616e-05
9.65271e-05
9.05081e-05
8.4707e-05
7.88908e-05
7.24944e-05
6.5346e-05
5.81522e-05
5.12876e-05
4.49585e-05
3.6202e-05
2.78602e-05
6.00209e-05
4.61823e-05
7.51934e-05
0.000131392
0.000185973
0.00717593
0.0215358
0.00447372
0.00102723
0.000665167
0.000768632
0.0012621
0.00153638
0.00162007
0.00159722
0.00150407
0.00134992
0.00114189
0.000904005
0.000672139
0.000480864
0.000349289
0.000275408
0.000230997
0.000195717
0.000163707
0.00013601
0.000113815
9.82615e-05
9.06651e-05
8.78106e-05
8.64917e-05
8.46911e-05
8.11687e-05
7.49507e-05
6.58475e-05
5.62392e-05
4.74113e-05
3.95159e-05
3.43304e-05
4.53791e-05
4.75802e-05
5.80415e-05
0.000242764
0.000212673
0.00996281
0.025793
0.00935947
0.00341048
0.00216533
0.00211512
0.00235072
0.00234231
0.00222008
0.00205633
0.00186158
0.00162256
0.00133468
0.00102177
0.000724995
0.00048788
0.000332382
0.00024841
0.000203999
0.000172649
0.000145339
0.000122688
0.000106135
9.64513e-05
9.36369e-05
9.55206e-05
9.92127e-05
0.000102985
0.000105593
0.000105278
9.86984e-05
8.73681e-05
7.60581e-05
6.64754e-05
6.26239e-05
7.00892e-05
8.94148e-05
0.000143081
0.000329022
0.000319474
0.0106514
0.028798
0.0156327
0.00993928
0.00701748
0.00542863
0.00430376
0.00354573
0.00302939
0.00264558
0.00230325
0.00194037
0.00153607
0.00112177
0.000744499
0.000460424
0.000290965
0.000207625
0.00016772
0.000141531
0.000120972
0.000106286
9.7883e-05
9.55668e-05
9.86012e-05
0.000105628
0.000115416
0.000127581
0.000142199
0.000159156
0.000177383
0.000189079
0.000198924
0.00022036
0.00026492
0.00039871
0.000737608
0.00139301
0.00405016
0.00119403
0.00990448
0.0168786
0.0135476
0.0102304
0.00779967
0.0061402
0.00501797
0.00424964
0.00369546
0.00322948
0.00275422
0.00222275
0.00163978
0.0010912
0.000621253
0.000329282
0.000207653
0.00015413
0.000126376
0.000108277
9.61189e-05
8.93901e-05
8.77575e-05
9.06903e-05
9.75961e-05
0.000108033
0.000122037
0.000140336
0.000164329
0.000196073
0.000238327
0.000295042
0.00037276
0.000489231
0.000660459
0.000892176
0.00115624
0.00138547
0.00156196
0.00097578
0.00497206
0.00668097
0.00668729
0.00618631
0.00549906
0.00484099
0.00419464
0.00349782
0.00273463
0.00193002
0.00106147
0.000561325
0.00029726
0.000174482
0.000121945
9.65044e-05
8.23641e-05
7.39558e-05
6.93799e-05
6.81236e-05
6.98263e-05
7.41254e-05
8.08334e-05
9.0034e-05
0.000102165
0.00011808
0.000139145
0.00016743
0.000206191
0.000260473
0.000335652
0.000438885
0.000573436
0.00072635
0.000856387
0.000909064
0.000850616
0.000537918
0.00344358
0.00674569
0.00663871
0.00533142
0.00449654
0.00382971
0.00298805
0.00209099
0.0013276
0.00077434
0.000420645
0.000233382
0.000139621
9.57741e-05
7.53161e-05
6.50037e-05
5.9685e-05
5.74199e-05
5.74171e-05
5.92513e-05
6.26749e-05
6.7689e-05
7.44492e-05
8.32434e-05
9.4586e-05
0.000109305
0.000128687
0.000154707
0.00019012
0.000238547
0.000304937
0.000394215
0.000506848
0.000634326
0.000728524
0.000823821
0.000764855
0.000564821
0.00218954
0.00255599
0.00285296
0.00315746
0.00234518
0.00180077
0.00156423
0.00135892
0.00109471
0.000822087
0.000568046
0.000372862
0.000242223
0.000163639
0.000119183
9.36894e-05
7.83321e-05
6.8958e-05
6.3691e-05
6.15639e-05
6.19407e-05
6.43848e-05
6.86958e-05
7.48564e-05
8.27605e-05
9.26734e-05
0.000105007
0.00012037
0.000139699
0.000164535
0.000195742
0.000234808
0.000284028
0.000346316
0.000424534
0.000534031
0.000571258
0.000528541
0.000434223
0.000346681
)
;

boundaryField
{
    floor
    {
        Cmu             0.09;
        kappa           0.41;
        E               9.8;
        type            epsilonWallFunction;
        value           nonuniform List<scalar> 
29
(
0.000492393
3.48195e-05
5.91912e-05
8.50112e-05
8.70474e-05
7.96766e-05
6.99267e-05
5.78647e-05
4.70958e-05
3.85351e-05
3.18736e-05
2.66655e-05
2.25504e-05
1.92702e-05
1.66191e-05
1.44094e-05
1.24799e-05
1.06817e-05
9.69699e-06
7.48126e-06
7.48126e-06
1.78714e-05
2.86757e-05
3.97558e-05
0.000492393
3.48195e-05
3.97252e-05
0.000265763
0.000896001
)
;
    }
    ceiling
    {
        Cmu             0.09;
        kappa           0.41;
        E               9.8;
        type            epsilonWallFunction;
        value           nonuniform List<scalar> 
43
(
0.00218954
0.00255599
0.00285296
0.00315746
0.00234518
0.00180077
0.00156423
0.00135892
0.00109471
0.000822087
0.000568046
0.000372862
0.000242223
0.000163639
0.000119183
9.36894e-05
7.83321e-05
6.8958e-05
6.3691e-05
6.15639e-05
6.19407e-05
6.43848e-05
6.86958e-05
7.48564e-05
8.27605e-05
9.26734e-05
0.000105007
0.00012037
0.000139699
0.000164535
0.000195742
0.000234808
0.000284028
0.000346316
0.000424534
0.000534031
0.000571258
0.000528541
0.000434223
0.000346681
0.00990448
0.0168786
0.00344358
)
;
    }
    sWall
    {
        Cmu             0.09;
        kappa           0.41;
        E               9.8;
        type            epsilonWallFunction;
        value           uniform 0.00218954;
    }
    nWall
    {
        Cmu             0.09;
        kappa           0.41;
        E               9.8;
        type            epsilonWallFunction;
        value           nonuniform List<scalar> 6(0.000185973 0.000212673 0.000319474 0.000537918 0.000564821 0.000346681);
    }
    sideWalls
    {
        type            empty;
    }
    glass1
    {
        Cmu             0.09;
        kappa           0.41;
        E               9.8;
        type            epsilonWallFunction;
        value           nonuniform List<scalar> 9(0.000422803 0.00107066 0.00195362 0.00316819 0.00484241 0.00717593 0.00996281 0.0106514 0.00990448);
    }
    glass2
    {
        Cmu             0.09;
        kappa           0.41;
        E               9.8;
        type            epsilonWallFunction;
        value           nonuniform List<scalar> 2(0.00119403 0.00097578);
    }
    sun
    {
        Cmu             0.09;
        kappa           0.41;
        E               9.8;
        type            epsilonWallFunction;
        value           nonuniform List<scalar> 
14
(
0.000422803
0.000547036
0.000578049
0.000664385
0.000751587
0.000840377
0.000935021
0.00103252
0.00110527
0.00113485
0.00110519
0.00101019
0.000857915
0.000672539
)
;
    }
    heatsource1
    {
        Cmu             0.09;
        kappa           0.41;
        E               9.8;
        type            epsilonWallFunction;
        value           nonuniform List<scalar> 3(7.51934e-05 0.000131392 0.000185973);
    }
    heatsource2
    {
        Cmu             0.09;
        kappa           0.41;
        E               9.8;
        type            epsilonWallFunction;
        value           nonuniform List<scalar> 4(0.000517695 0.000119107 0.000119107 0.000557715);
    }
    Table_master
    {
        Cmu             0.09;
        kappa           0.41;
        E               9.8;
        type            epsilonWallFunction;
        value           nonuniform List<scalar> 9(0.000166195 0.000115457 8.27728e-05 6.12797e-05 4.67493e-05 3.66463e-05 2.94464e-05 2.4234e-05 2.04721e-05);
    }
    Table_slave
    {
        Cmu             0.09;
        kappa           0.41;
        E               9.8;
        type            epsilonWallFunction;
        value           nonuniform List<scalar> 9(0.000240925 0.000185424 0.000151679 0.000129002 0.000111491 9.649e-05 8.33491e-05 7.07958e-05 5.77859e-05);
    }
    inlet
    {
        type            turbulentMixingLengthDissipationRateInlet;
        mixingLength    0.01;
        phi             phi;
        k               k;
        value           uniform 0.000101881;
    }
    outlet
    {
        type            zeroGradient;
    }
}


// ************************************************************************* //
