/*--------------------------------*- C++ -*----------------------------------*\
  =========                 |
  \\      /  F ield         | OpenFOAM: The Open Source CFD Toolbox
   \\    /   O peration     | Website:  https://openfoam.org
    \\  /    A nd           | Version:  6
     \\/     M anipulation  |
\*---------------------------------------------------------------------------*/
FoamFile
{
    version     2.0;
    format      ascii;
    class       surfaceScalarField;
    location    "1000";
    object      phi;
}
// * * * * * * * * * * * * * * * * * * * * * * * * * * * * * * * * * * * * * //

dimensions      [1 0 -1 0 0 0 0];

internalField   nonuniform List<scalar> 
852
(
-0.00296764
0.00302513
-0.00401641
0.00104878
-0.00481694
0.000800531
-0.00543371
0.000616785
-0.00583173
0.000398023
-0.00598141
0.000149691
-0.00585399
-0.000127414
-0.00543065
-0.00042333
-0.00473537
-0.000695275
-0.00384203
-0.000893336
-0.00285736
-0.000984664
-0.0018967
-0.000960645
-0.00106693
-0.000829765
-0.000437367
-0.000629558
-0.000435629
-0.000795781
0.000798829
-0.000554274
-0.000241503
3.71249e-05
-0.000591395
0.000545875
-0.000508746
0.000904006
-0.000358128
0.00114033
-0.000236319
0.00127249
-0.000132159
0.00133573
-6.32358e-05
0.0013703
-3.45646e-05
0.0013914
-2.10956e-05
0.00140322
-1.18153e-05
0.00140742
-4.19987e-06
0.00140281
4.6085e-06
0.00138202
2.08007e-05
0.00132412
5.78999e-05
0.00119399
0.000130131
0.000980683
0.000213311
0.000719883
0.000260802
0.000723947
-0.00212776
0.00530778
-0.00315644
0.00207747
-0.00398712
0.00163122
-0.00460241
0.00123208
-0.00500129
0.000796907
-0.00516248
0.000310894
-0.00505418
-0.000235703
-0.00466345
-0.000814061
-0.00402812
-0.00133059
-0.00323157
-0.00168988
-0.0023762
-0.00184003
-0.00155614
-0.0017807
-0.000850653
-0.00153524
-0.000325184
-0.00115502
-4.99211e-05
-0.000710886
0.000162262
-0.000212228
0.000162217
0.000220264
0.000587478
0.000617714
-0.000638948
0.000891985
-0.000865661
0.00112211
-0.000738866
0.00130723
-0.000543249
0.001429
-0.00035808
0.00145158
-0.000154734
0.00145689
-6.85416e-05
0.00146331
-4.09833e-05
0.0014687
-2.64839e-05
0.00147224
-1.53559e-05
0.00147414
-6.09202e-06
0.00147381
4.94188e-06
0.00146812
2.64899e-05
0.00142957
9.64561e-05
0.00126342
0.000296277
0.00097675
0.000499986
0.000621542
0.000616013
0.00135584
-0.00149621
0.00704102
-0.00238634
0.00296761
-0.00313058
0.00237548
-0.00366531
0.00176682
-0.0040213
0.0011529
-0.00417088
0.000460478
-0.00405783
-0.000348746
-0.00366632
-0.00120556
-0.00306272
-0.00193418
-0.00234544
-0.00240714
-0.00161073
-0.00257473
-0.000926429
-0.00246499
-0.000341599
-0.00212007
0.000117998
-0.00161461
0.000415585
-0.00100847
0.000530591
-0.000327228
0.000692813
0.00148477
-0.000887431
0.00170264
-0.000856813
0.00165551
-0.000818527
0.00164236
-0.000725711
0.00166837
-0.000569262
0.00171785
-0.000407551
0.00156327
0.00149488
0.00145406
0.00142773
0.00141253
0.00140659
0.00141169
0.00143834
0.00153495
0.00126144
0.000569786
0.000931604
0.000829826
0.000525014
0.0010226
0.00189651
-0.00104725
0.0083953
-0.00175421
0.00367457
-0.00225733
0.0028786
-0.00261809
0.00212758
-0.00286367
0.00139849
-0.0029501
0.00054692
-0.00277822
-0.00052062
-0.00235326
-0.00163052
-0.0017877
-0.00249972
-0.00118236
-0.00301247
-0.000610632
-0.00314645
-0.000105374
-0.00297023
0.000321119
-0.00254655
0.000676112
-0.0019696
0.000990525
-0.00132288
0.00134473
-0.000681423
0.00219954
-0.000161991
0.00249991
-0.000291751
0.00215963
-0.000547152
0.00201881
-0.000715988
0.00188277
-0.000682479
0.00176044
-0.000603378
0.00168091
-0.000489728
0.00161268
-0.000339324
0.00176011
-0.000147583
0.00184963
-8.96679e-05
0.00192132
-7.18439e-05
0.0019775
-5.63313e-05
0.00200367
-2.63302e-05
0.00197747
2.60487e-05
0.00187275
0.000104567
0.00165555
0.000217041
0.00127033
0.000385067
0.00110689
0.000733221
0.000792573
0.00114415
0.00032604
0.00148914
0.00224295
-0.000730635
0.00949247
-0.00126593
0.00420987
-0.00139289
0.00300558
-0.001489
0.00222369
-0.00154842
0.00145791
-0.0014803
0.000478808
-0.00116473
-0.00083618
-0.000702548
-0.00209269
-0.000223734
-0.00297852
0.000199046
-0.00343524
0.00053869
-0.00348608
0.000794733
-0.00322627
0.000995679
-0.00274749
0.00116913
-0.00214305
0.00134698
-0.00150072
0.00157607
-0.000910505
0.00189952
-0.000485435
0.00199127
-0.000383493
0.00190758
-0.000463459
0.00172773
-0.000536137
0.00156293
-0.000517673
0.00141992
-0.000460367
0.00131298
-0.000382787
0.00125861
-0.000284951
0.0012982
-0.000187175
0.00135081
-0.000142285
0.0014086
-0.000129636
0.00146836
-0.000116095
0.00151937
-7.73393e-05
0.00154051
4.90849e-06
0.00150941
0.000135661
0.00141372
0.00031273
0.00125536
0.00054342
0.0011071
0.000881484
0.000941019
0.00131023
0.000579906
0.00185025
0.00047334
0.00234951
-0.000993716
0.00146685
-0.00145277
0.00045885
-0.00140412
-0.000630943
0.0105402
-0.000994761
0.0045737
-0.00060061
0.00261143
-0.000304855
0.00192794
-8.57524e-05
0.00123882
0.00028099
0.00011207
0.000793646
-0.00134883
0.00122822
-0.00252726
0.00152323
-0.00327352
0.00167563
-0.00358763
0.00171826
-0.0035287
0.00168187
-0.00318987
0.00160336
-0.00266896
0.00152018
-0.00205987
0.00146353
-0.00144406
0.00145676
-0.000903726
0.00149083
-0.000519508
0.00145962
-0.000352279
0.0013349
-0.000338733
0.00115523
-0.000356464
0.000987442
-0.000349885
0.000850673
-0.000323598
0.000754158
-0.000286273
0.000710063
-0.000240857
0.000724064
-0.000201178
0.000771274
-0.000189498
0.000837052
-0.000195417
0.00091529
-0.000194337
0.000999781
-0.000161835
0.00107864
-7.39542e-05
0.00113259
8.17026e-05
0.00115538
0.000289943
0.00115631
0.000542486
0.00117948
0.00085831
0.00127131
0.00121839
0.0014475
0.00167406
0.00189224
0.00190478
0.00215937
0.00119972
0.00177788
0.00084034
0.000432127
-0.000710514
0.0117124
-0.000589128
0.00445232
0.00049951
0.0015228
0.00120029
0.00122717
0.00183057
0.000608541
0.00251105
-0.000568407
0.00303358
-0.00187135
0.00330168
-0.00279534
0.00331636
-0.00328818
0.00312688
-0.00339814
0.00280072
-0.00320253
0.00240183
-0.00279097
0.00198714
-0.00225427
0.00160452
-0.00167724
0.00128348
-0.00112303
0.0010438
-0.000664041
0.000879245
-0.000354955
0.000738927
-0.00021196
0.000585742
-0.000185547
0.000427217
-0.000197939
0.000286377
-0.000209045
0.000175595
-0.000212818
0.000101195
-0.000211875
6.95624e-05
-0.000209227
8.08757e-05
-0.000212495
0.000121749
-0.000230375
0.000181207
-0.000254879
0.000256964
-0.000270098
0.000352845
-0.000257721
0.000473889
-0.000195003
0.000608747
-5.31606e-05
0.000744696
0.000153989
0.000890885
0.000396293
0.00108476
0.000664431
0.00137249
0.000930659
0.0018211
0.00122545
0.00249544
0.00123044
0.00304469
0.000650473
0.00306493
0.000820092
0.00355935
0.00262419
0.00960418
0.00331405
0.00376247
0.00350175
0.00133511
0.00401673
0.000712185
0.0047608
-0.000135527
0.00541847
-0.00122607
0.00564554
-0.00209842
0.00546459
-0.00261437
0.00497152
-0.00279509
0.00427513
-0.00270173
0.00347907
-0.00240645
0.002667
-0.00197889
0.00190281
-0.00149007
0.00123976
-0.00101419
0.000699368
-0.000582633
0.000307532
-0.000272207
5.50924e-05
-0.000102516
-0.000110681
-4.61878e-05
-0.000241489
-5.4741e-05
-0.00035696
-8.24691e-05
-0.000456347
-0.000109661
-0.000535424
-0.000133744
-0.000591154
-0.000156149
-0.000621565
-0.00017882
-0.00062887
-0.000205195
-0.000622024
-0.000237226
-0.000607509
-0.000269398
-0.000585061
-0.000292552
-0.000546523
-0.000296264
-0.000472925
-0.000268607
-0.000333254
-0.000192837
-0.000139577
-3.96938e-05
8.86777e-05
0.000168033
0.000368126
0.000384978
0.000705506
0.000593275
0.00113791
0.000793043
0.00159046
0.000777886
0.00175771
0.000483214
0.00101461
0.0015632
0.00483399
0.010171
0.0139266
0.0122706
0.00299116
0.0113835
0.00159932
0.0106289
0.000619074
0.00968899
-0.000286169
0.00849505
-0.00090444
0.00715629
-0.00127559
0.0057701
-0.00140887
0.00440906
-0.00134068
0.00313784
-0.00113522
0.00199748
-0.000838539
0.00101073
-0.000503313
0.000214107
-0.000217576
-0.00035658
-1.19501e-05
-0.000695338
6.65475e-05
-0.00087195
7.40941e-05
-0.000971649
5.35079e-05
-0.00104774
2.1342e-05
-0.0011193
-1.09097e-05
-0.00118838
-4.0582e-05
-0.00125276
-6.93701e-05
-0.00131116
-9.7754e-05
-0.00136436
-0.000125627
-0.00141635
-0.000153205
-0.00147476
-0.000178823
-0.00154746
-0.000196704
-0.00164207
-0.000197948
-0.00176761
-0.000170728
-0.00193531
-0.000100904
-0.00215261
2.44541e-05
-0.00240727
0.000214957
-0.00272469
0.000485457
-0.00319113
0.000851412
-0.00390387
0.00130601
-0.00492356
0.00181273
-0.00636118
0.0022155
-0.00807989
0.00220193
-0.00753591
0.00101921
-0.00241367
0.00509595
0.00453199
0.00404395
0.00265137
0.0043974
0.000265693
0.0044088
-0.000297528
0.00396897
-0.000464583
0.00325021
-0.000556824
0.00238092
-0.000539583
0.00145425
-0.000414021
0.000539004
-0.00021998
-0.000298788
-7.60175e-07
-0.000948704
0.000146595
-0.00135267
0.000186381
-0.0015541
0.000189476
-0.00164996
0.000162403
-0.00170443
0.000128563
-0.00174523
9.43038e-05
-0.00178613
6.22338e-05
-0.00183132
3.42809e-05
-0.00188244
1.05362e-05
-0.00194097
-1.08528e-05
-0.0020068
-3.1928e-05
-0.00208054
-5.18937e-05
-0.0021641
-6.96508e-05
-0.00225967
-8.32554e-05
-0.0023685
-8.78769e-05
-0.00248945
-7.70059e-05
-0.00261779
-4.23894e-05
-0.00274462
2.59213e-05
-0.00285805
0.000137883
-0.00295552
0.000312423
-0.00304522
0.000575148
-0.00313434
0.000940533
-0.00322044
0.00139211
-0.00325257
0.00184486
-0.00316389
0.00212682
-0.00275992
0.00179795
-0.00149245
-0.000248264
-0.00383102
-0.000447097
0.0050363
0.00081633
0.00138798
0.000721501
0.000360547
0.000389531
3.44452e-05
-4.53331e-05
-2.97412e-05
-0.000600096
-2.07836e-06
-0.00118544
4.57452e-05
-0.0017043
0.000104827
-0.00208473
0.000160442
-0.00228564
0.000200146
-0.0023506
0.000211549
-0.00236037
0.000196142
-0.00234017
0.000169272
-0.00231807
0.000140299
-0.00230527
0.00011576
-0.00230563
9.46571e-05
-0.00231864
7.52419e-05
-0.00234123
5.68589e-05
-0.00237
3.93077e-05
-0.00240387
2.30064e-05
-0.00244373
7.93084e-06
-0.00248993
-5.70452e-06
-0.0025426
-1.69873e-05
-0.00260079
-2.50669e-05
-0.00266087
-2.78033e-05
-0.00271597
-2.19054e-05
-0.00275527
-3.09801e-06
-0.00276631
3.69629e-05
-0.00273544
0.000107011
-0.00263874
0.000215714
-0.00244299
0.000379395
-0.00212179
0.00061933
-0.00166292
0.000933231
-0.0010424
0.00122434
-7.83208e-05
0.00116274
0.0011851
0.000534533
0.00155413
-0.000617298
-0.00219445
-0.00796676
-0.0108399
-0.00575939
-0.00434863
-0.00397426
-0.00393082
-0.00395453
-0.00395276
-0.00390475
-0.00379888
-0.00363841
-0.0034391
-0.00322911
-0.00303516
-0.00286859
-0.0027314
-0.0026191
-0.00252816
-0.00245683
-0.00240402
-0.00236883
-0.00234995
-0.00234612
-0.00235586
-0.00237681
-0.00240574
-0.0024373
-0.00246284
-0.00246944
-0.00243584
-0.00233205
-0.00211941
-0.00174296
-0.00112646
-0.000195977
0.00102563
0.00218554
0.00271706
0.00209651
)
;

boundaryField
{
    floor
    {
        type            calculated;
        value           nonuniform List<scalar> 
29
(
0
0
0
0
0
0
0
0
0
0
0
0
0
0
0
0
0
0
0
0
-4.06117e-06
-1.03487e-05
-1.5649e-05
-2.03988e-05
-1.73309e-06
-3.04271e-06
-8.90878e-06
-9.85643e-06
-8.61254e-06
)
;
    }
    ceiling
    {
        type            calculated;
        value           nonuniform List<scalar> 
43
(
-4.67595e-05
-4.54871e-05
-4.42238e-05
-2.27988e-05
-1.38369e-05
-9.01051e-06
-6.0431e-06
-3.85593e-06
-2.27805e-06
-1.04536e-06
-3.38033e-08
8.2406e-07
1.55775e-06
2.1828e-06
2.69527e-06
3.10976e-06
3.44552e-06
3.71283e-06
3.91193e-06
4.04176e-06
4.10773e-06
4.12112e-06
4.09425e-06
4.03613e-06
3.95538e-06
3.85928e-06
3.75044e-06
3.63048e-06
3.49995e-06
3.35769e-06
3.21317e-06
3.07295e-06
2.94229e-06
2.82847e-06
2.74511e-06
2.72956e-06
2.8291e-06
3.00997e-06
3.24544e-06
4.26176e-06
9.8762e-06
6.88948e-06
-5.71859e-05
)
;
    }
    sWall
    {
        type            calculated;
        value           uniform -0.000271801;
    }
    nWall
    {
        type            calculated;
        value           nonuniform List<scalar> 6(-4.8855e-05 -5.83671e-05 -6.22878e-05 -7.51038e-05 -8.24494e-05 -0.000102204);
    }
    sideWalls
    {
        type            empty;
        value           nonuniform 0();
    }
    glass1
    {
        type            calculated;
        value           nonuniform List<scalar> 9(-5.74842e-05 -0.000154892 -0.00023702 -0.000307018 -0.000366523 -0.000416733 -0.000461697 -0.000515995 -0.000576722);
    }
    glass2
    {
        type            calculated;
        value           nonuniform List<scalar> 2(-0.000260042 -0.000288245);
    }
    sun
    {
        type            calculated;
        value           uniform 0;
    }
    heatsource1
    {
        type            calculated;
        value           nonuniform List<scalar> 3(2.04273e-07 2.04196e-07 2.04214e-07);
    }
    heatsource2
    {
        type            calculated;
        value           nonuniform List<scalar> 4(5.12212e-08 5.12949e-08 0 0);
    }
    Table_master
    {
        type            calculated;
        value           nonuniform List<scalar> 9(-1.53194e-07 -1.5329e-07 -1.53324e-07 -1.53347e-07 -1.53363e-07 -1.53374e-07 -1.5338e-07 -1.53376e-07 -1.53346e-07);
    }
    Table_slave
    {
        type            calculated;
        value           nonuniform List<scalar> 9(1.53064e-07 1.53083e-07 1.5306e-07 1.5304e-07 1.53032e-07 1.53034e-07 1.53048e-07 1.53091e-07 1.53173e-07);
    }
    inlet
    {
        type            calculated;
        value           uniform -0.00663676;
    }
    outlet
    {
        type            calculated;
        value           nonuniform List<scalar> 2(0.00828532 0.00291864);
    }
}


// ************************************************************************* //
