// -*- C++ -*-
// File generated by PyFoam - sorry for the ugliness

FoamFile
{
 version 2.0;
 format ascii;
 class volVectorField;
 location "1000";
 object U;
}

dimensions [ 0 1 -1 0 0 0 0 ];

internalField nonuniform List<vector> 459
(
  (0.0337566 0.0861582 0)
  (-0.167715 0.02562 0)
  (-0.192705 0.0177178 0)
  (-0.223592 0.0118258 0)
  (-0.245577 0.00531857 0)
  (-0.257453 -0.00161781 0)
  (-0.257421 -0.00903024 0)
  (-0.244469 -0.0169107 0)
  (-0.219369 -0.0243835 0)
  (-0.184418 -0.0300635 0)
  (-0.14368 -0.0328583 0)
  (-0.101775 -0.0322557 0)
  (-0.0630485 -0.0283179 0)
  (-0.0325642 -0.0220523 0)
  (-0.0247928 -0.0154426 0)
  (-0.00699147 0.00923648 0)
  (-0.0305265 -0.0165371 0)
  (-0.00924892 -0.026668 0)
  (0.0151753 -0.0209347 0)
  (0.0307277 -0.0145226 0)
  (0.0438678 -0.00950013 0)
  (0.0522815 -0.00550406 0)
  (0.0566991 -0.00339084 0)
  (0.0586747 -0.00254883 0)
  (0.0596251 -0.00219051 0)
  (0.0602043 -0.00196846 0)
  (0.0605275 -0.00178902 0)
  (0.0605374 -0.00157454 0)
  (0.0600495 -0.00115979 0)
  (0.0585448 -0.000181758 0)
  (0.0549013 0.00186153 0)
  (0.0479084 0.00399976 0)
  (0.0417164 0.005709 0)
  (-0.0134799 0.0204493 0)
  (0.20803 0.176575 0)
  (-0.156678 0.0680138 0)
  (-0.155599 0.0531136 0)
  (-0.187717 0.0408497 0)
  (-0.209673 0.0268689 0)
  (-0.221963 0.0110468 0)
  (-0.222707 -0.00685834 0)
  (-0.210825 -0.0259651 0)
  (-0.18773 -0.043382 0)
  (-0.156131 -0.0559782 0)
  (-0.12014 -0.0617707 0)
  (-0.0838791 -0.0603522 0)
  (-0.0508388 -0.0523377 0)
  (-0.0240838 -0.0394405 0)
  (-0.00757901 -0.0249764 0)
  (0.00579316 -0.00753988 0)
  (0.00382457 0.0158503 0)
  (0.0614338 0.0373374 0)
  (0.0224703 -0.0179623 0)
  (0.0318351 -0.0318125 0)
  (0.0431775 -0.0286615 0)
  (0.0523362 -0.0209231 0)
  (0.0592394 -0.0133498 0)
  (0.0623206 -0.00573694 0)
  (0.0629571 -0.00132789 0)
  (0.0629183 0.000496298 0)
  (0.0630308 0.00128816 0)
  (0.0632444 0.00176738 0)
  (0.0634012 0.00215715 0)
  (0.0634567 0.00262376 0)
  (0.06337 0.00348065 0)
  (0.0626412 0.00558601 0)
  (0.0589621 0.0114559 0)
  (0.0496369 0.0162621 0)
  (0.0456334 0.0193807 0)
  (-0.0507423 0.0442701 0)
  (0.367928 0.264277 0)
  (-0.17315 0.108337 0)
  (-0.117057 0.0860139 0)
  (-0.148451 0.0642164 0)
  (-0.16819 0.0411853 0)
  (-0.179755 0.0154571 0)
  (-0.180113 -0.0136366 0)
  (-0.167574 -0.0441618 0)
  (-0.144949 -0.0709386 0)
  (-0.115796 -0.0890393 0)
  (-0.084332 -0.096101 0)
  (-0.0538904 -0.0925046 0)
  (-0.0266059 -0.0796894 0)
  (-0.00410597 -0.0600569 0)
  (0.0120732 -0.0361883 0)
  (0.0225719 -0.0103306 0)
  (0.0261961 0.0260483 0)
  (0.111125 -0.0238221 0)
  (0.0742356 -0.0363328 0)
  (0.0684209 -0.0381514 0)
  (0.0697822 -0.0334032 0)
  (0.0711281 -0.0257724 0)
  (0.0726037 -0.0189626 0)
  (0.0715174 -0.0150757 0)
  (0.0666715 -0.0105448 0)
  (0.0631198 -0.00807272 0)
  (0.0615392 -0.00666105 0)
  (0.0608887 -0.00575475 0)
  (0.0605667 -0.00512872 0)
  (0.0605498 -0.00458537 0)
  (0.061276 -0.00375363 0)
  (0.0638464 -0.000681416 0)
  (0.0617704 0.0161092 0)
  (0.0486303 0.0275169 0)
  (0.0518311 0.0349025 0)
  (-0.0839947 0.0687367 0)
  (0.512391 0.33486 0)
  (-0.20745 0.144099 0)
  (-0.0760714 0.114182 0)
  (-0.106138 0.084314 0)
  (-0.120667 0.0546756 0)
  (-0.129137 0.0206847 0)
  (-0.12617 -0.0196438 0)
  (-0.110636 -0.0621054 0)
  (-0.0880723 -0.0972386 0)
  (-0.0624678 -0.119084 0)
  (-0.0374328 -0.125934 0)
  (-0.0148854 -0.119775 0)
  (0.00515261 -0.102482 0)
  (0.021448 -0.0785259 0)
  (0.0354876 -0.051155 0)
  (0.050568 -0.022268 0)
  (0.071473 0.00976043 0)
  (0.10176 0.020677 0)
  (0.105916 -0.0199764 0)
  (0.0920441 -0.0321472 0)
  (0.08292 -0.0324648 0)
  (0.0775705 -0.0289799 0)
  (0.0734666 -0.0232624 0)
  (0.0706083 -0.0157419 0)
  (0.0717149 -0.00954879 0)
  (0.0768648 -0.00710149 0)
  (0.0812623 -0.00575095 0)
  (0.0841635 -0.00480398 0)
  (0.0859401 -0.00375708 0)
  (0.0861501 -0.00230026 0)
  (0.0836349 -0.000167449 0)
  (0.0771156 0.00295021 0)
  (0.0640341 0.00760402 0)
  (0.0514609 0.0268757 0)
  (0.0390081 0.0427597 0)
  (0.0559066 0.0548672 0)
  (-0.120199 0.0901739 0)
  (0.637676 0.389517 0)
  (-0.249668 0.173242 0)
  (-0.0351919 0.130592 0)
  (-0.061649 0.0959606 0)
  (-0.0683856 0.0625483 0)
  (-0.0708206 0.0226856 0)
  (-0.0581384 -0.0283175 0)
  (-0.0380452 -0.0811948 0)
  (-0.0172934 -0.120702 0)
  (0.00185024 -0.142473 0)
  (0.0173497 -0.146217 0)
  (0.0292299 -0.136352 0)
  (0.0384889 -0.116763 0)
  (0.0460826 -0.0911909 0)
  (0.0532549 -0.0632854 0)
  (0.0618929 -0.0368416 0)
  (0.0746401 -0.0181526 0)
  (0.0849593 -0.0187324 0)
  (0.085682 -0.027181 0)
  (0.079167 -0.0286612 0)
  (0.0707944 -0.0263991 0)
  (0.0637463 -0.0230265 0)
  (0.058295 -0.0187446 0)
  (0.0548458 -0.0134493 0)
  (0.0543813 -0.00750765 0)
  (0.0566272 -0.00461188 0)
  (0.0593137 -0.00358556 0)
  (0.061902 -0.00280398 0)
  (0.064299 -0.00119039 0)
  (0.0661502 0.00188135 0)
  (0.0661821 0.00651194 0)
  (0.0637657 0.0128425 0)
  (0.0582995 0.0214725 0)
  (0.0513172 0.0365901 0)
  (0.0408651 0.054155 0)
  (0.0640593 0.0734892 0)
  (-0.0252029 0.101752 0)
  (0.0462044 0.0298698 0)
  (-0.0621208 -0.0341553 0)
  (-0.273034 -0.0569715 0)
  (0.729123 0.435008 0)
  (-0.291142 0.192748 0)
  (-0.00367188 0.127341 0)
  (-0.0159155 0.0974496 0)
  (-0.0121932 0.065118 0)
  (-0.0051916 0.0180717 0)
  (0.0266951 -0.0476179 0)
  (0.047954 -0.101886 0)
  (0.0627449 -0.137569 0)
  (0.0712658 -0.15423 0)
  (0.0743384 -0.15418 0)
  (0.0735134 -0.141306 0)
  (0.0703269 -0.119727 0)
  (0.066381 -0.0934927 0)
  (0.0631143 -0.0662489 0)
  (0.0618538 -0.0416874 0)
  (0.06334 -0.0239962 0)
  (0.0642443 -0.0177692 0)
  (0.0609671 -0.018252 0)
  (0.053973 -0.0191009 0)
  (0.0459835 -0.0183227 0)
  (0.0391487 -0.0165382 0)
  (0.034038 -0.0140842 0)
  (0.0310035 -0.011048 0)
  (0.0303885 -0.00807963 0)
  (0.0318911 -0.00693613 0)
  (0.0344377 -0.00684985 0)
  (0.0375537 -0.00653357 0)
  (0.0410432 -0.00492562 0)
  (0.0446288 -0.00110138 0)
  (0.0479439 0.00528 0)
  (0.0497231 0.0138181 0)
  (0.0502355 0.0245943 0)
  (0.050847 0.0389626 0)
  (0.0495516 0.0562711 0)
  (0.0727002 0.0783881 0)
  (0.0512356 0.0952618 0)
  (0.0932651 0.0661903 0)
  (0.116278 0.0439598 0)
  (-0.128985 -0.00692212 0)
  (0.782197 0.476332 0)
  (-0.312084 0.17804 0)
  (0.0239419 0.0775648 0)
  (0.0438741 0.0729106 0)
  (0.0598089 0.0486704 0)
  (0.0921166 -0.00794044 0)
  (0.124256 -0.0716337 0)
  (0.141686 -0.118277 0)
  (0.14639 -0.145095 0)
  (0.14107 -0.154056 0)
  (0.128589 -0.148398 0)
  (0.111912 -0.132051 0)
  (0.0936438 -0.109063 0)
  (0.0760647 -0.0832837 0)
  (0.0607702 -0.0577837 0)
  (0.0489183 -0.0357575 0)
  (0.0408431 -0.0201965 0)
  (0.0348453 -0.0129428 0)
  (0.0286793 -0.0114497 0)
  (0.0218036 -0.0117444 0)
  (0.0151278 -0.0116993 0)
  (0.00958249 -0.0111954 0)
  (0.00554181 -0.0103981 0)
  (0.00326337 -0.00941844 0)
  (0.00290909 -0.00872111 0)
  (0.0041601 -0.00901967 0)
  (0.00635957 -0.00981376 0)
  (0.00921366 -0.0101956 0)
  (0.0127453 -0.00923935 0)
  (0.0170791 -0.00588866 0)
  (0.0231503 0.000907364 0)
  (0.0294219 0.0102908 0)
  (0.0353253 0.021212 0)
  (0.042722 0.0340267 0)
  (0.0506224 0.0482807 0)
  (0.0730727 0.0661048 0)
  (0.086268 0.0727414 0)
  (0.119042 0.049814 0)
  (0.158671 0.0428424 0)
  (-0.033307 0.093727 0)
  (0.88739 0.478569 0)
  (-0.0688279 0.15745 0)
  (0.107489 0.00346667 0)
  (0.171562 -0.0202879 0)
  (0.190245 -0.0417182 0)
  (0.225268 -0.0759331 0)
  (0.244475 -0.107708 0)
  (0.244333 -0.12934 0)
  (0.228018 -0.138729 0)
  (0.200579 -0.136493 0)
  (0.166996 -0.124669 0)
  (0.131414 -0.105964 0)
  (0.0968846 -0.0833714 0)
  (0.0659251 -0.0600386 0)
  (0.0398279 -0.0381553 0)
  (0.0199856 -0.0205679 0)
  (0.00667717 -0.00953757 0)
  (-0.00174394 -0.00508213 0)
  (-0.00773221 -0.00475743 0)
  (-0.0129979 -0.00567539 0)
  (-0.0176975 -0.00654877 0)
  (-0.0215856 -0.00722715 0)
  (-0.0245062 -0.00780556 0)
  (-0.0263346 -0.00841009 0)
  (-0.0270674 -0.00927986 0)
  (-0.0269977 -0.0105891 0)
  (-0.0265233 -0.0120505 0)
  (-0.0257892 -0.0131805 0)
  (-0.0246516 -0.0134469 0)
  (-0.0227106 -0.0122385 0)
  (-0.0189754 -0.00880372 0)
  (-0.0101204 -0.00242172 0)
  (-0.000852654 0.00599791 0)
  (0.0101272 0.0143787 0)
  (0.02193 0.0211809 0)
  (0.0416046 0.0280985 0)
  (0.0595075 0.0205566 0)
  (0.0780013 -0.00641658 0)
  (0.136411 0.0412042 0)
  (-0.418502 0.208523 0)
  (1.03334 0.43004 0)
  (0.497531 0.284902 0)
  (0.503975 0.190412 0)
  (0.514048 0.117155 0)
  (0.48936 0.0635144 0)
  (0.44416 0.0089762 0)
  (0.392259 -0.038542 0)
  (0.33701 -0.0706749 0)
  (0.278142 -0.0858681 0)
  (0.218291 -0.0867868 0)
  (0.160961 -0.0777234 0)
  (0.108638 -0.0625202 0)
  (0.0625641 -0.04436 0)
  (0.0245402 -0.0263793 0)
  (-0.0061735 -0.0106057 0)
  (-0.0250124 -0.00204803 0)
  (-0.0347948 0.000842594 0)
  (-0.0400655 0.000906143 0)
  (-0.0435439 -0.000304978 0)
  (-0.0466553 -0.0017864 0)
  (-0.0497284 -0.00316809 0)
  (-0.0526225 -0.00446917 0)
  (-0.0552675 -0.00574555 0)
  (-0.0576339 -0.00705377 0)
  (-0.0598286 -0.00845688 0)
  (-0.0621357 -0.00992733 0)
  (-0.064906 -0.0112214 0)
  (-0.0684553 -0.011937 0)
  (-0.0731171 -0.0115267 0)
  (-0.0793459 -0.00928111 0)
  (-0.0877181 -0.00437199 0)
  (-0.0983073 0.00382645 0)
  (-0.109206 0.0148041 0)
  (-0.124846 0.0286388 0)
  (-0.149558 0.0452596 0)
  (-0.185817 0.0633588 0)
  (-0.236771 0.0787789 0)
  (-0.294083 0.088824 0)
  (-0.361938 0.09368 0)
  (-0.621994 0.0943959 0)
  (-0.143004 0.0811411 0)
  (0.133003 0.0567189 0)
  (0.213563 -0.00124306 0)
  (0.196779 -0.0340912 0)
  (0.179836 -0.046026 0)
  (0.155808 -0.0483227 0)
  (0.122056 -0.0448516 0)
  (0.0828672 -0.0370961 0)
  (0.0431592 -0.0263236 0)
  (0.00463352 -0.0129454 0)
  (-0.0304194 -0.00044023 0)
  (-0.0519348 0.00596862 0)
  (-0.0642951 0.00846839 0)
  (-0.0696395 0.00819623 0)
  (-0.0724569 0.00715858 0)
  (-0.0743101 0.00599752 0)
  (-0.0760166 0.00488871 0)
  (-0.0778606 0.00391417 0)
  (-0.0798961 0.00297857 0)
  (-0.0822679 0.00193166 0)
  (-0.084956 0.000734882 0)
  (-0.0879399 -0.000512177 0)
  (-0.0912987 -0.00169176 0)
  (-0.0951447 -0.00262957 0)
  (-0.0995617 -0.0030552 0)
  (-0.104556 -0.00263326 0)
  (-0.110029 -0.000987566 0)
  (-0.115747 0.00226559 0)
  (-0.121111 0.00756058 0)
  (-0.125332 0.0156032 0)
  (-0.128831 0.0275046 0)
  (-0.131875 0.0436028 0)
  (-0.135331 0.0628654 0)
  (-0.1397 0.08147 0)
  (-0.141669 0.0895895 0)
  (-0.123405 0.0667543 0)
  (-0.0742383 -0.0269145 0)
  (-0.279522 -0.205907 0)
  (-0.01851 0.230041 0)
  (0.0615342 0.0964762 0)
  (0.0330568 0.0158623 0)
  (0.0208884 -0.00657716 0)
  (0.00848144 -0.010059 0)
  (-0.0127317 -0.00916751 0)
  (-0.0383558 -0.00587617 0)
  (-0.0632107 -0.00116159 0)
  (-0.0831155 0.0033786 0)
  (-0.0957661 0.00615505 0)
  (-0.100539 0.00592059 0)
  (-0.102016 0.00368446 0)
  (-0.101504 0.000865124 0)
  (-0.100331 -0.00228361 0)
  (-0.0994759 -0.00538603 0)
  (-0.0991846 -0.00835818 0)
  (-0.0994968 -0.0111087 0)
  (-0.1003 -0.0134498 0)
  (-0.101434 -0.0152144 0)
  (-0.10278 -0.0163329 0)
  (-0.104351 -0.0168657 0)
  (-0.1062 -0.0168919 0)
  (-0.10834 -0.0165461 0)
  (-0.110772 -0.0159478 0)
  (-0.113399 -0.0149836 0)
  (-0.115997 -0.0134174 0)
  (-0.118195 -0.0108753 0)
  (-0.119464 -0.0068008 0)
  (-0.11922 -0.000896057 0)
  (-0.116436 0.00740227 0)
  (-0.109657 0.0189855 0)
  (-0.0976635 0.0346081 0)
  (-0.0803027 0.0537068 0)
  (-0.0584655 0.0717678 0)
  (-0.0353397 0.0817905 0)
  (0.00619939 0.0647227 0)
  (0.142392 -0.00566858 0)
  (-0.207236 -0.116021 0)
  (-0.106028 -0.350013 0)
  (-0.441054 -0.121144 0)
  (-0.312092 0.0945399 0)
  (-0.23072 -0.0205104 0)
  (-0.185045 -0.0402965 0)
  (-0.171984 -0.0280112 0)
  (-0.169783 -0.0155381 0)
  (-0.170461 -0.00598863 0)
  (-0.169521 0.00167067 0)
  (-0.166327 0.0085539 0)
  (-0.160545 0.0148278 0)
  (-0.152603 0.0203353 0)
  (-0.143561 0.0248467 0)
  (-0.134805 0.0286284 0)
  (-0.127 0.0321826 0)
  (-0.120449 0.0357355 0)
  (-0.115084 0.0393691 0)
  (-0.110716 0.0428776 0)
  (-0.107229 0.04591 0)
  (-0.104561 0.0481104 0)
  (-0.102667 0.0492443 0)
  (-0.101503 0.0492542 0)
  (-0.101019 0.0482468 0)
  (-0.101165 0.0463918 0)
  (-0.101866 0.0440188 0)
  (-0.103008 0.0414878 0)
  (-0.104418 0.0389366 0)
  (-0.105814 0.0364741 0)
  (-0.106755 0.0341862 0)
  (-0.106545 0.0321569 0)
  (-0.103904 0.0311225 0)
  (-0.0968894 0.0317542 0)
  (-0.0830083 0.0348075 0)
  (-0.0605571 0.0411777 0)
  (-0.0306738 0.0512942 0)
  (0.0195306 0.0647507 0)
  (0.0627295 0.0649985 0)
  (0.105029 0.0499208 0)
  (0.164417 0.0206719 0)
  (-0.213818 -0.034716 0)
)
;

boundaryField
{
  floor
  {
    type noSlip;
  }
  ceiling
  {
    type noSlip;
  }
  sWall
  {
    type noSlip;
  }
  nWall
  {
    type noSlip;
  }
  sideWalls
  {
    type empty;
  }
  glass1
  {
    type noSlip;
  }
  glass2
  {
    type noSlip;
  }
  sun
  {
    type noSlip;
  }
  heatsource1
  {
    type noSlip;
  }
  heatsource2
  {
    type noSlip;
  }
  Table_master
  {
    type noSlip;
  }
  Table_slave
  {
    type noSlip;
  }
  inlet
  {
    type fixedValue;
    value uniform (0.3 0 0);
  }
  outlet
  {
    type zeroGradient;
  }
} 	// ************************************************************************* //

