/*--------------------------------*- C++ -*----------------------------------*\
  =========                 |
  \\      /  F ield         | OpenFOAM: The Open Source CFD Toolbox
   \\    /   O peration     | Website:  https://openfoam.org
    \\  /    A nd           | Version:  6
     \\/     M anipulation  |
\*---------------------------------------------------------------------------*/
FoamFile
{
    version     2.0;
    format      ascii;
    class       volScalarField;
    location    "1700";
    object      alphat;
}
// * * * * * * * * * * * * * * * * * * * * * * * * * * * * * * * * * * * * * //

dimensions      [1 -1 -1 0 0 0 0];

internalField   nonuniform List<scalar> 
459
(
0.00123684
0.00134972
0.00137534
0.00144103
0.00150192
0.00155936
0.00161646
0.00167091
0.00170909
0.0017237
0.00170774
0.00165627
0.00156693
0.00144228
0.00129608
0.000535731
0.000638351
0.000721105
0.000728245
0.000706771
0.000676176
0.000633769
0.000590645
0.000551508
0.000516934
0.000486469
0.000459536
0.000435627
0.000414307
0.000394796
0.000376128
0.000357022
0.000345872
0.000317367
0.00168346
0.00399974
0.00378527
0.00439042
0.00498361
0.00557809
0.00609415
0.00649639
0.00687034
0.0071816
0.00738747
0.00744396
0.00729813
0.00682477
0.00549726
0.00131949
0.000820235
0.000558251
0.00117548
0.00164633
0.00200257
0.00221344
0.00222306
0.00175358
0.00150367
0.00132643
0.00119122
0.0010844
0.000997832
0.000925004
0.000857371
0.000792006
0.000733861
0.000682595
0.000818629
0.000424595
0.00205457
0.005426
0.00461776
0.00574929
0.00626866
0.00664616
0.00694119
0.00720208
0.00750581
0.00783561
0.00815251
0.00839747
0.00851701
0.00842157
0.00785312
0.00602249
0.00135978
0.00104672
0.00152421
0.00198476
0.00243323
0.00276722
0.00273539
0.00090398
0.000798554
0.000713025
0.000643669
0.000587034
0.000540362
0.000501605
0.000469431
0.000443216
0.000477097
0.000548415
0.000930064
0.000497985
0.00241091
0.00694033
0.00456003
0.00600378
0.00639375
0.00648661
0.0065652
0.00671381
0.00696975
0.00731405
0.00770955
0.00807265
0.00834563
0.0084506
0.00832989
0.00767553
0.00514171
0.00158979
0.00189863
0.00241438
0.0029814
0.00348847
0.00383898
0.00366025
0.00102439
0.000935274
0.000871357
0.000822646
0.000781272
0.000742939
0.000706136
0.000667488
0.000622732
0.000585025
0.000591979
0.00109062
0.000555871
0.00277402
0.0089147
0.00493015
0.00572644
0.00626107
0.00620179
0.0061481
0.0062623
0.00650294
0.00685545
0.00729258
0.00769205
0.00797175
0.00808011
0.00801802
0.00775611
0.00709283
0.00600204
0.0056229
0.00555341
0.00559929
0.00565682
0.00565803
0.00547471
0.00465141
0.0042436
0.00400335
0.00381688
0.00362185
0.00334743
0.00297254
0.0025143
0.00200498
0.00150087
0.00111352
0.00110441
0.000762466
0.000690649
0.000831555
0.000933931
0.00315956
0.0110789
0.00677878
0.00553896
0.00605471
0.00621825
0.00605316
0.00616058
0.00636073
0.00668772
0.00711332
0.00752961
0.00780757
0.0078703
0.00773536
0.00750051
0.00727401
0.00712356
0.00712358
0.00714796
0.00711293
0.00700584
0.00682913
0.00656847
0.00617549
0.00581692
0.00549535
0.00518642
0.00487492
0.00454666
0.00414436
0.00365009
0.00306352
0.0024177
0.00184132
0.00135807
0.00106025
0.000907682
0.00128478
0.000977153
0.00352109
0.012637
0.00971029
0.00703008
0.00656533
0.00659554
0.00643056
0.00633929
0.00643767
0.00674938
0.00719805
0.00763483
0.0078992
0.00790342
0.00768857
0.00743192
0.00736622
0.00756286
0.00780958
0.00789085
0.00777299
0.00750993
0.00714972
0.00672395
0.00626422
0.00583247
0.00543804
0.00507435
0.00474202
0.00444796
0.00419408
0.00388985
0.00346315
0.00293304
0.00242076
0.00193832
0.00160196
0.00148045
0.00146295
0.00110827
0.0035969
0.011448
0.00993961
0.00881365
0.0081267
0.00735667
0.0067146
0.00644874
0.00657569
0.00699617
0.00753728
0.00799576
0.00819494
0.00807738
0.007754
0.00750415
0.00759961
0.00793779
0.00808359
0.00792944
0.00755629
0.00704496
0.00646461
0.00588341
0.00536044
0.00492196
0.00455868
0.0042608
0.00402831
0.00386536
0.00377551
0.00373959
0.00360376
0.00329789
0.00302887
0.0029046
0.00301028
0.0033302
0.00412755
0.00168699
0.00350652
0.00419087
0.00473772
0.00491208
0.00492913
0.00504899
0.00538771
0.00597581
0.00675993
0.00758532
0.00825781
0.00860969
0.00853077
0.00810106
0.00764426
0.00755905
0.00763593
0.00763887
0.00740979
0.00695165
0.00633665
0.00565803
0.00500745
0.00445362
0.00401953
0.0036892
0.00343544
0.00323795
0.00308232
0.00295559
0.00284559
0.00274342
0.00266511
0.00260802
0.00258746
0.0025981
0.00258094
0.00248291
0.00231526
0.00156657
0.00216618
0.00383587
0.00529701
0.00651738
0.00750739
0.00839492
0.00908242
0.00942447
0.00937443
0.0089552
0.00822718
0.00741461
0.0069242
0.00674738
0.00655669
0.00619655
0.00566799
0.00504353
0.0044116
0.0038444
0.00338841
0.00305331
0.00281726
0.00265345
0.00254157
0.00246839
0.00242531
0.00240699
0.0024124
0.00244498
0.00248909
0.00254132
0.00259638
0.00263469
0.00262369
0.00254503
0.00224894
0.00124964
0.00251844
0.00536914
0.00734064
0.00825735
0.00887229
0.00929736
0.00924856
0.00865999
0.00776971
0.00682232
0.00603064
0.00546315
0.005088
0.00475256
0.00434495
0.0038774
0.00340492
0.00298453
0.0026519
0.00241286
0.00225109
0.00214353
0.00207538
0.00204128
0.00203679
0.00205697
0.00209749
0.0021534
0.00222886
0.0023209
0.0024266
0.0025395
0.00264383
0.00271484
0.00273555
0.00270569
0.00194491
0.0012784
0.00215081
0.00226557
0.00235013
0.00241759
0.00218751
0.00200848
0.00192363
0.00183667
0.00171075
0.00155547
0.00137929
0.00120514
0.00105154
0.000929933
0.000841858
0.00077928
0.000733497
0.000699533
0.000675513
0.000660801
0.000654611
0.000655806
0.000663278
0.000676295
0.000694636
0.000717685
0.000745249
0.000777644
0.000815483
0.000859896
0.00091045
0.000967134
0.00103044
0.00110074
0.00117742
0.00125938
0.00127655
0.00113983
0.00108129
0.00127991
)
;

boundaryField
{
    floor
    {
        type            compressible::alphatWallFunction;
        Prt             0.85;
        value           nonuniform List<scalar> 
29
(
0.000183347
7.46894e-05
9.00957e-05
0.000102298
0.000103342
0.000100197
9.56956e-05
8.94149e-05
8.29749e-05
7.70801e-05
7.18292e-05
6.7166e-05
6.30127e-05
5.92998e-05
5.59672e-05
5.2898e-05
4.9943e-05
4.68991e-05
4.51131e-05
4.0512e-05
4.05114e-05
5.75785e-05
6.89334e-05
7.77405e-05
0.000183345
7.46885e-05
7.80989e-05
0.000148858
0.000223022
)
;
    }
    ceiling
    {
        type            compressible::alphatWallFunction;
        Prt             0.85;
        value           nonuniform List<scalar> 
43
(
0.000296581
0.000311369
0.000322216
0.000330957
0.000301487
0.00027831
0.00026725
0.000255855
0.000239241
0.00021856
0.000194811
0.000170996
0.000149662
0.000132515
0.000119932
0.000110898
0.000104233
9.92559e-05
9.57188e-05
9.35446e-05
9.26283e-05
9.28054e-05
9.39116e-05
9.58347e-05
9.85369e-05
0.00010192
0.00010595
0.000110662
0.000116137
0.000122524
0.000129747
0.000137791
0.000146709
0.000156537
0.000167176
0.000178461
0.000180815
0.000161973
0.000153831
0.000181284
0.00046737
0.000550609
0.000343557
)
;
    }
    sWall
    {
        type            compressible::alphatWallFunction;
        Prt             0.85;
        value           uniform 0.000295362;
    }
    nWall
    {
        type            compressible::alphatWallFunction;
        Prt             0.85;
        value           nonuniform List<scalar> 6(0.00013276 0.000138874 0.000157243 0.0001768 0.00018074 0.000180954);
    }
    sideWalls
    {
        type            empty;
    }
    glass1
    {
        type            compressible::alphatWallFunction;
        Prt             0.85;
        value           nonuniform List<scalar> 9(0.000170924 0.000230378 0.000278577 0.000324063 0.000369747 0.000417616 0.000461998 0.000471376 0.000460578);
    }
    glass2
    {
        type            compressible::alphatWallFunction;
        Prt             0.85;
        value           nonuniform List<scalar> 2(0.000234355 0.000218446);
    }
    sun
    {
        type            compressible::alphatWallFunction;
        Prt             0.85;
        value           nonuniform List<scalar> 
14
(
0.000175249
0.000190668
0.00019415
0.000203045
0.00021125
0.000218957
0.000226586
0.000233833
0.0002389
0.000240835
0.00023872
0.000231885
0.000219966
0.00020321
)
;
    }
    heatsource1
    {
        type            compressible::alphatWallFunction;
        Prt             0.85;
        value           nonuniform List<scalar> 3(9.7942e-05 0.000118444 0.000133078);
    }
    heatsource2
    {
        type            compressible::alphatWallFunction;
        Prt             0.85;
        value           nonuniform List<scalar> 4(0.000186675 0.000116814 0.000116812 0.00019216);
    }
    Table_master
    {
        type            compressible::alphatWallFunction;
        Prt             0.85;
        value           nonuniform List<scalar> 9(0.000128814 0.00011368 0.000101227 9.09956e-05 8.25408e-05 7.54976e-05 6.9591e-05 6.46441e-05 6.05816e-05);
    }
    Table_slave
    {
        type            compressible::alphatWallFunction;
        Prt             0.85;
        value           nonuniform List<scalar> 9(0.000145851 0.000133268 0.000124157 0.000117161 0.00011118 0.000105604 0.000100218 9.4526e-05 8.78832e-05);
    }
    inlet
    {
        type            fixedValue;
        value           uniform 1.94e-05;
    }
    outlet
    {
        type            zeroGradient;
    }
}


// ************************************************************************* //
