// -*- C++ -*-
// File generated by PyFoam - sorry for the ugliness

FoamFile
{
 version 2.0;
 format ascii;
 class volVectorField;
 location "1200";
 object U;
}

dimensions [ 0 1 -1 0 0 0 0 ];

internalField nonuniform List<vector> 459
(
  (0.0323951 0.0864704 0)
  (-0.168419 0.0259885 0)
  (-0.194082 0.0177336 0)
  (-0.225037 0.0115987 0)
  (-0.24672 0.00485402 0)
  (-0.257853 -0.00232909 0)
  (-0.256562 -0.00998283 0)
  (-0.242083 -0.018066 0)
  (-0.215355 -0.0255624 0)
  (-0.179011 -0.0310578 0)
  (-0.137373 -0.0334774 0)
  (-0.095222 -0.0323347 0)
  (-0.0569814 -0.0275876 0)
  (-0.0275888 -0.0200632 0)
  (-0.0223053 -0.0116836 0)
  (-0.00837571 0.00969416 0)
  (-0.0318867 -0.0159093 0)
  (-0.0112335 -0.0261769 0)
  (0.0132345 -0.0211099 0)
  (0.0287873 -0.0147666 0)
  (0.0421925 -0.00974235 0)
  (0.0509011 -0.00564004 0)
  (0.0555656 -0.00345812 0)
  (0.0576991 -0.00259338 0)
  (0.0587494 -0.0022288 0)
  (0.0594085 -0.00200316 0)
  (0.0598082 -0.00182178 0)
  (0.0598937 -0.00161363 0)
  (0.0594889 -0.00121394 0)
  (0.0580915 -0.000271529 0)
  (0.0546099 0.00170107 0)
  (0.0478548 0.00381036 0)
  (0.0417084 0.00565363 0)
  (-0.0124442 0.0204889 0)
  (0.205798 0.177135 0)
  (-0.156744 0.0689828 0)
  (-0.156545 0.0534801 0)
  (-0.188693 0.0407181 0)
  (-0.210386 0.0261718 0)
  (-0.221981 0.00970098 0)
  (-0.221485 -0.00886364 0)
  (-0.208158 -0.0283793 0)
  (-0.183621 -0.0457323 0)
  (-0.150906 -0.0578106 0)
  (-0.114319 -0.0627598 0)
  (-0.0780032 -0.0603606 0)
  (-0.0454086 -0.0512052 0)
  (-0.0192949 -0.0370382 0)
  (-0.00335045 -0.0215696 0)
  (0.00913322 -0.00534582 0)
  (0.00671936 0.0163927 0)
  (0.0592168 0.0383223 0)
  (0.0200708 -0.0176903 0)
  (0.0302427 -0.0318391 0)
  (0.0415245 -0.0289871 0)
  (0.0507043 -0.0214235 0)
  (0.0577625 -0.0139111 0)
  (0.0609562 -0.00610089 0)
  (0.0616579 -0.00153567 0)
  (0.0616432 0.000347202 0)
  (0.0617675 0.00115896 0)
  (0.0619902 0.00164843 0)
  (0.0621535 0.00204216 0)
  (0.0622194 0.00251347 0)
  (0.0621448 0.00335557 0)
  (0.0614506 0.00539731 0)
  (0.0579122 0.0110565 0)
  (0.0489047 0.0157983 0)
  (0.0450863 0.0191405 0)
  (-0.0498555 0.0442709 0)
  (0.365018 0.265026 0)
  (-0.172435 0.109618 0)
  (-0.117694 0.0864808 0)
  (-0.149036 0.0639461 0)
  (-0.168586 0.0400045 0)
  (-0.179471 0.0132025 0)
  (-0.178421 -0.0169192 0)
  (-0.164403 -0.0479952 0)
  (-0.14052 -0.0744506 0)
  (-0.110575 -0.0915492 0)
  (-0.0789015 -0.0972041 0)
  (-0.0486558 -0.0921745 0)
  (-0.0218764 -0.0778539 0)
  (0.000198457 -0.0567659 0)
  (0.0156866 -0.0324996 0)
  (0.0254625 -0.00695959 0)
  (0.0283916 0.02912 0)
  (0.110128 -0.0202309 0)
  (0.0739393 -0.0345417 0)
  (0.0680269 -0.0375628 0)
  (0.0691307 -0.0334812 0)
  (0.0702955 -0.0261939 0)
  (0.0717276 -0.019621 0)
  (0.0706152 -0.0155911 0)
  (0.0655319 -0.0108556 0)
  (0.0617778 -0.00827435 0)
  (0.0600758 -0.00680597 0)
  (0.0593395 -0.00586726 0)
  (0.0589375 -0.00522501 0)
  (0.0588334 -0.00468746 0)
  (0.059454 -0.00387519 0)
  (0.0618576 -0.00087257 0)
  (0.05985 0.0154398 0)
  (0.0471908 0.0266537 0)
  (0.0509302 0.0341868 0)
  (-0.0835972 0.0684613 0)
  (0.509125 0.335711 0)
  (-0.206045 0.1455 0)
  (-0.0764755 0.11474 0)
  (-0.106345 0.0839773 0)
  (-0.120805 0.0530842 0)
  (-0.12852 0.0174396 0)
  (-0.123633 -0.0244312 0)
  (-0.10666 -0.0674346 0)
  (-0.0832346 -0.101734 0)
  (-0.0572761 -0.121991 0)
  (-0.0325144 -0.126903 0)
  (-0.0104004 -0.119021 0)
  (0.00922906 -0.0998613 0)
  (0.024955 -0.074969 0)
  (0.0387539 -0.0470399 0)
  (0.0536595 -0.0181368 0)
  (0.0739857 0.0142817 0)
  (0.10402 0.023687 0)
  (0.107412 -0.0174319 0)
  (0.0935899 -0.0306342 0)
  (0.084198 -0.0318167 0)
  (0.0783175 -0.0288275 0)
  (0.0736155 -0.0233857 0)
  (0.0701124 -0.0160638 0)
  (0.0705786 -0.00957232 0)
  (0.0752369 -0.00695139 0)
  (0.0791223 -0.00552873 0)
  (0.0814749 -0.00458274 0)
  (0.0827886 -0.00359664 0)
  (0.0826981 -0.00224351 0)
  (0.0801679 -0.000253931 0)
  (0.0739131 0.00269791 0)
  (0.0613809 0.00714587 0)
  (0.0494357 0.025838 0)
  (0.0374249 0.0413921 0)
  (0.055041 0.0535064 0)
  (-0.120403 0.0894329 0)
  (0.634368 0.390357 0)
  (-0.24785 0.174566 0)
  (-0.035417 0.131199 0)
  (-0.0614513 0.0956064 0)
  (-0.0683212 0.0606923 0)
  (-0.0696777 0.0183931 0)
  (-0.0541264 -0.035039 0)
  (-0.0331725 -0.0878143 0)
  (-0.0122704 -0.125646 0)
  (0.00673222 -0.145202 0)
  (0.0214161 -0.146565 0)
  (0.0327213 -0.134942 0)
  (0.04147 -0.113894 0)
  (0.0487568 -0.0873318 0)
  (0.0557841 -0.0589596 0)
  (0.0643896 -0.0325861 0)
  (0.077154 -0.0145298 0)
  (0.0872363 -0.0163292 0)
  (0.0876493 -0.0251306 0)
  (0.0810047 -0.0270971 0)
  (0.072386 -0.0253318 0)
  (0.0648687 -0.0222961 0)
  (0.0588036 -0.0181895 0)
  (0.0546394 -0.0129168 0)
  (0.0534318 -0.00673175 0)
  (0.0549685 -0.00367254 0)
  (0.0569698 -0.00262416 0)
  (0.0589192 -0.00195796 0)
  (0.0608139 -0.000592822 0)
  (0.0623762 0.00209577 0)
  (0.0624456 0.00630185 0)
  (0.0603491 0.0122383 0)
  (0.0554171 0.0204753 0)
  (0.0490835 0.0350489 0)
  (0.0392519 0.0521996 0)
  (0.0632724 0.071503 0)
  (-0.0255929 0.100399 0)
  (0.0465358 0.0300251 0)
  (-0.0613348 -0.033589 0)
  (-0.272068 -0.0563731 0)
  (0.726107 0.435712 0)
  (-0.289211 0.193818 0)
  (-0.00365166 0.12787 0)
  (-0.015077 0.0970364 0)
  (-0.0115101 0.0630683 0)
  (-0.000818324 0.0110378 0)
  (0.0322894 -0.0560384 0)
  (0.0532698 -0.108659 0)
  (0.0674225 -0.141945 0)
  (0.0750767 -0.156155 0)
  (0.0772736 -0.153897 0)
  (0.0757086 -0.139275 0)
  (0.0719548 -0.116417 0)
  (0.0677103 -0.0894197 0)
  (0.0643751 -0.0618656 0)
  (0.0632211 -0.0374691 0)
  (0.0648851 -0.0203572 0)
  (0.0658556 -0.0149601 0)
  (0.0625617 -0.0159904 0)
  (0.05552 -0.0172809 0)
  (0.047356 -0.0168703 0)
  (0.0401477 -0.0152959 0)
  (0.0344889 -0.0128916 0)
  (0.0307738 -0.00977477 0)
  (0.0294254 -0.0066038 0)
  (0.0302221 -0.00531753 0)
  (0.0321134 -0.00525111 0)
  (0.0346507 -0.00514938 0)
  (0.0376909 -0.00397126 0)
  (0.0410555 -0.000792211 0)
  (0.0444077 0.00486631 0)
  (0.0465426 0.0127909 0)
  (0.0475801 0.023016 0)
  (0.0488176 0.0368054 0)
  (0.0482599 0.0536469 0)
  (0.0720899 0.0757564 0)
  (0.0513428 0.0932805 0)
  (0.0932792 0.0655611 0)
  (0.115906 0.0436912 0)
  (-0.127839 -0.00628964 0)
  (0.780277 0.476881 0)
  (-0.310145 0.178773 0)
  (0.0246157 0.0775273 0)
  (0.045629 0.0712601 0)
  (0.0628055 0.044142 0)
  (0.100397 -0.0174777 0)
  (0.130998 -0.0800727 0)
  (0.146945 -0.124225 0)
  (0.150165 -0.148364 0)
  (0.143405 -0.15487 0)
  (0.129712 -0.147168 0)
  (0.112099 -0.129252 0)
  (0.0932283 -0.105287 0)
  (0.0754231 -0.0790584 0)
  (0.0601989 -0.053457 0)
  (0.0486647 -0.0317542 0)
  (0.0410243 -0.0168379 0)
  (0.0354326 -0.0103041 0)
  (0.0295491 -0.00931464 0)
  (0.0228052 -0.00991598 0)
  (0.0160772 -0.0100393 0)
  (0.0102765 -0.00955622 0)
  (0.00581315 -0.00865549 0)
  (0.0030046 -0.00749639 0)
  (0.00209744 -0.00658795 0)
  (0.00284234 -0.00676817 0)
  (0.00459469 -0.00762692 0)
  (0.00705562 -0.00829662 0)
  (0.0102534 -0.00789419 0)
  (0.0143483 -0.0054121 0)
  (0.0201883 0.000263738 0)
  (0.0268432 0.00887083 0)
  (0.0333106 0.0191446 0)
  (0.0412895 0.0312766 0)
  (0.0500144 0.0449417 0)
  (0.0731739 0.0626421 0)
  (0.0872026 0.0701719 0)
  (0.11952 0.0493753 0)
  (0.158531 0.0425992 0)
  (-0.0340715 0.0922936 0)
  (0.885742 0.478481 0)
  (-0.0665236 0.157833 0)
  (0.109022 0.00214226 0)
  (0.174248 -0.0255277 0)
  (0.200274 -0.0490066 0)
  (0.234 -0.0829065 0)
  (0.250487 -0.113177 0)
  (0.247781 -0.132746 0)
  (0.229257 -0.139942 0)
  (0.200015 -0.135716 0)
  (0.165135 -0.122314 0)
  (0.128646 -0.102386 0)
  (0.0936829 -0.0791889 0)
  (0.062757 -0.0557727 0)
  (0.0369814 -0.034049 0)
  (0.0179334 -0.0170793 0)
  (0.0055174 -0.0068511 0)
  (-0.0021188 -0.00299856 0)
  (-0.00760963 -0.00296299 0)
  (-0.0126111 -0.00397384 0)
  (-0.0172251 -0.00481111 0)
  (-0.0211921 -0.00534267 0)
  (-0.0242977 -0.00570747 0)
  (-0.0263534 -0.00608989 0)
  (-0.0272858 -0.0067785 0)
  (-0.0273562 -0.00802122 0)
  (-0.0269798 -0.00958129 0)
  (-0.0263334 -0.0110013 0)
  (-0.0253016 -0.011771 0)
  (-0.0235059 -0.0113089 0)
  (-0.0200679 -0.00889863 0)
  (-0.012413 -0.00378576 0)
  (-0.00170721 0.0036593 0)
  (0.00986433 0.0115949 0)
  (0.0226107 0.0177063 0)
  (0.0434485 0.02413 0)
  (0.0629838 0.0183226 0)
  (0.0816555 -0.00287289 0)
  (0.138571 0.0485319 0)
  (-0.433549 0.204994 0)
  (1.03221 0.429536 0)
  (0.49683 0.284471 0)
  (0.503782 0.188373 0)
  (0.516386 0.113175 0)
  (0.491563 0.0572437 0)
  (0.444167 0.00201146 0)
  (0.390701 -0.0440758 0)
  (0.333919 -0.0737619 0)
  (0.273639 -0.0864177 0)
  (0.212708 -0.0852701 0)
  (0.154839 -0.0748119 0)
  (0.102101 -0.0585547 0)
  (0.0563376 -0.0400521 0)
  (0.0189341 -0.0222511 0)
  (-0.0112813 -0.00700559 0)
  (-0.0279286 0.000162504 0)
  (-0.0366573 0.00250396 0)
  (-0.041218 0.00235597 0)
  (-0.0442169 0.00107634 0)
  (-0.0469174 -0.000382406 0)
  (-0.0496241 -0.00164091 0)
  (-0.0523104 -0.00272613 0)
  (-0.0547996 -0.00377968 0)
  (-0.0570176 -0.00490182 0)
  (-0.0590106 -0.00617997 0)
  (-0.0610566 -0.00762731 0)
  (-0.0635337 -0.00904886 0)
  (-0.066769 -0.0100933 0)
  (-0.0710759 -0.0102634 0)
  (-0.0768528 -0.00890934 0)
  (-0.0845877 -0.00525752 0)
  (-0.0946509 0.0014215 0)
  (-0.105486 0.0108477 0)
  (-0.119346 0.0229094 0)
  (-0.141219 0.0376151 0)
  (-0.173249 0.0543753 0)
  (-0.219226 0.0702328 0)
  (-0.275246 0.0829355 0)
  (-0.350527 0.0908369 0)
  (-0.61552 0.0875059 0)
  (-0.138887 0.0774229 0)
  (0.130117 0.0491359 0)
  (0.208161 -0.01075 0)
  (0.191549 -0.0403864 0)
  (0.173528 -0.0489292 0)
  (0.148075 -0.0486238 0)
  (0.113268 -0.0432009 0)
  (0.073637 -0.0340467 0)
  (0.0342299 -0.0223038 0)
  (-0.00580922 -0.00807655 0)
  (-0.0371847 0.00257185 0)
  (-0.0565068 0.00803027 0)
  (-0.0667761 0.00984593 0)
  (-0.0712137 0.00933566 0)
  (-0.0735857 0.0083642 0)
  (-0.0751331 0.00734686 0)
  (-0.0766184 0.00645782 0)
  (-0.0783133 0.00583304 0)
  (-0.0801778 0.0054049 0)
  (-0.0821507 0.00497215 0)
  (-0.084319 0.00436411 0)
  (-0.0867555 0.00345341 0)
  (-0.0895005 0.00234918 0)
  (-0.092678 0.00124822 0)
  (-0.0964075 0.000429902 0)
  (-0.100718 0.000230793 0)
  (-0.10554 0.00102514 0)
  (-0.110705 0.00317727 0)
  (-0.115747 0.00712419 0)
  (-0.119823 0.0134855 0)
  (-0.123281 0.0233431 0)
  (-0.126055 0.037188 0)
  (-0.128609 0.0545359 0)
  (-0.130697 0.0730512 0)
  (-0.129136 0.085946 0)
  (-0.111211 0.0789833 0)
  (-0.0684025 0.024919 0)
  (-0.197524 -0.177026 0)
  (-0.0118829 0.226597 0)
  (0.0609059 0.0908337 0)
  (0.0291043 0.0109409 0)
  (0.0166848 -0.0104195 0)
  (-0.000202571 -0.0110279 0)
  (-0.0232663 -0.00872504 0)
  (-0.0489459 -0.00497589 0)
  (-0.0724937 -0.000247951 0)
  (-0.0901376 0.00390376 0)
  (-0.0999592 0.00575758 0)
  (-0.103614 0.00475836 0)
  (-0.10421 0.00232298 0)
  (-0.103013 -0.000587802 0)
  (-0.101364 -0.00388604 0)
  (-0.100097 -0.0071906 0)
  (-0.0994275 -0.0104846 0)
  (-0.099413 -0.0137202 0)
  (-0.0999477 -0.016722 0)
  (-0.100849 -0.0192735 0)
  (-0.101963 -0.021203 0)
  (-0.103216 -0.0224262 0)
  (-0.104596 -0.0229205 0)
  (-0.106195 -0.0227956 0)
  (-0.108008 -0.0220669 0)
  (-0.10997 -0.0207506 0)
  (-0.111943 -0.018852 0)
  (-0.113635 -0.0160451 0)
  (-0.114618 -0.0118296 0)
  (-0.114429 -0.00601761 0)
  (-0.112226 0.00179115 0)
  (-0.106739 0.0122671 0)
  (-0.0966807 0.0260184 0)
  (-0.0814636 0.042744 0)
  (-0.0614336 0.0591817 0)
  (-0.0385454 0.0676346 0)
  (0.0320245 0.0343499 0)
  (0.146926 -0.0419295 0)
  (-0.0490426 -0.0657684 0)
  (-0.100367 -0.34758 0)
  (-0.438937 -0.121607 0)
  (-0.310584 0.0917761 0)
  (-0.234024 -0.019486 0)
  (-0.190197 -0.0355485 0)
  (-0.179116 -0.0220577 0)
  (-0.177267 -0.00952976 0)
  (-0.177546 -0.000401444 0)
  (-0.175886 0.00719603 0)
  (-0.171819 0.0142435 0)
  (-0.165105 0.0207593 0)
  (-0.15635 0.0264737 0)
  (-0.146864 0.0312027 0)
  (-0.137831 0.0354235 0)
  (-0.12982 0.0395635 0)
  (-0.12303 0.0438611 0)
  (-0.117335 0.048442 0)
  (-0.112529 0.0531581 0)
  (-0.108488 0.0576883 0)
  (-0.105139 0.0616222 0)
  (-0.102436 0.0645827 0)
  (-0.100355 0.0663348 0)
  (-0.0988744 0.0668058 0)
  (-0.0979708 0.0660385 0)
  (-0.0976242 0.0641847 0)
  (-0.0977994 0.0613867 0)
  (-0.0983853 0.0579336 0)
  (-0.0991517 0.0542444 0)
  (-0.0997479 0.050428 0)
  (-0.0995818 0.0465996 0)
  (-0.0975709 0.0435396 0)
  (-0.0921037 0.0419142 0)
  (-0.0810315 0.0424203 0)
  (-0.0625433 0.0458273 0)
  (-0.036846 0.0525709 0)
  (-0.00166095 0.061479 0)
  (0.0343171 0.0571954 0)
  (0.0896352 0.0217906 0)
  (0.118351 -0.0153185 0)
  (-0.503439 0.0628381 0)
)
;

boundaryField
{
  floor
  {
    type noSlip;
  }
  ceiling
  {
    type noSlip;
  }
  sWall
  {
    type noSlip;
  }
  nWall
  {
    type noSlip;
  }
  sideWalls
  {
    type empty;
  }
  glass1
  {
    type noSlip;
  }
  glass2
  {
    type noSlip;
  }
  sun
  {
    type noSlip;
  }
  heatsource1
  {
    type noSlip;
  }
  heatsource2
  {
    type noSlip;
  }
  Table_master
  {
    type noSlip;
  }
  Table_slave
  {
    type noSlip;
  }
  inlet
  {
    type fixedValue;
    value uniform (0.3 0 0);
  }
  outlet
  {
    type zeroGradient;
  }
} 	// ************************************************************************* //

