// -*- C++ -*-
// File generated by PyFoam - sorry for the ugliness

FoamFile
{
 version 2.0;
 format ascii;
 class volVectorField;
 location "1600";
 object U;
}

dimensions [ 0 1 -1 0 0 0 0 ];

internalField nonuniform List<vector> 459
(
  (0.0341041 0.0859165 0)
  (-0.167147 0.0255127 0)
  (-0.191961 0.0178559 0)
  (-0.222989 0.0121359 0)
  (-0.245422 0.00582964 0)
  (-0.258159 -0.000879113 0)
  (-0.259503 -0.00805932 0)
  (-0.248195 -0.0157353 0)
  (-0.224837 -0.0231993 0)
  (-0.191353 -0.0291148 0)
  (-0.151499 -0.0323788 0)
  (-0.109696 -0.0324544 0)
  (-0.0702034 -0.0294921 0)
  (-0.0381823 -0.0246228 0)
  (-0.0275278 -0.0196949 0)
  (-0.00659804 0.00897953 0)
  (-0.0293581 -0.0166198 0)
  (-0.00776988 -0.026567 0)
  (0.0159957 -0.0206098 0)
  (0.0315913 -0.014209 0)
  (0.0444919 -0.0092579 0)
  (0.0526752 -0.00539241 0)
  (0.0569549 -0.00335847 0)
  (0.0588918 -0.00254552 0)
  (0.0598529 -0.00219658 0)
  (0.0604534 -0.00197918 0)
  (0.060797 -0.00180225 0)
  (0.0608242 -0.00158893 0)
  (0.0603489 -0.00117183 0)
  (0.0588449 -0.000184783 0)
  (0.0551805 0.00188058 0)
  (0.0481168 0.00408255 0)
  (0.0416292 0.00588647 0)
  (-0.0129679 0.020399 0)
  (0.208643 0.176035 0)
  (-0.1563 0.0675044 0)
  (-0.154824 0.0530931 0)
  (-0.187001 0.0412233 0)
  (-0.209292 0.027749 0)
  (-0.222338 0.0125489 0)
  (-0.224396 -0.00469523 0)
  (-0.21405 -0.0233746 0)
  (-0.192506 -0.0408656 0)
  (-0.162106 -0.0540602 0)
  (-0.126733 -0.0608382 0)
  (-0.0904741 -0.0605822 0)
  (-0.0568906 -0.0538963 0)
  (-0.0293861 -0.0424116 0)
  (-0.011934 -0.0286657 0)
  (0.00191613 -0.0106608 0)
  (0.000520794 0.0156929 0)
  (0.0606726 0.0365976 0)
  (0.0244203 -0.0180595 0)
  (0.0331545 -0.0314872 0)
  (0.0443603 -0.0281621 0)
  (0.0534002 -0.0203971 0)
  (0.0601058 -0.012879 0)
  (0.0630475 -0.00551207 0)
  (0.0636305 -0.00126982 0)
  (0.0635868 0.000494312 0)
  (0.0636993 0.001269 0)
  (0.0639096 0.00174255 0)
  (0.0640638 0.00213267 0)
  (0.0641195 0.00260765 0)
  (0.0640316 0.00347954 0)
  (0.0632962 0.00561352 0)
  (0.059604 0.0115384 0)
  (0.0502355 0.0165046 0)
  (0.0457043 0.0198676 0)
  (-0.049176 0.0442517 0)
  (0.368856 0.263453 0)
  (-0.173178 0.107535 0)
  (-0.116266 0.0859334 0)
  (-0.14766 0.0647638 0)
  (-0.167557 0.0425661 0)
  (-0.179765 0.0178678 0)
  (-0.18152 -0.0101764 0)
  (-0.170523 -0.0400858 0)
  (-0.149258 -0.0671767 0)
  (-0.120976 -0.0863983 0)
  (-0.0897642 -0.0950703 0)
  (-0.0591133 -0.0931414 0)
  (-0.0312989 -0.0820337 0)
  (-0.00837705 -0.0640146 0)
  (0.00865052 -0.0404696 0)
  (0.0197936 -0.014032 0)
  (0.0239556 0.023245 0)
  (0.110187 -0.0264017 0)
  (0.0745272 -0.0375361 0)
  (0.0691152 -0.0383997 0)
  (0.0706447 -0.0331222 0)
  (0.0720444 -0.0252489 0)
  (0.0734358 -0.0183245 0)
  (0.0722289 -0.0146336 0)
  (0.067507 -0.0103142 0)
  (0.0640555 -0.00795194 0)
  (0.062492 -0.00659731 0)
  (0.0618218 -0.00572497 0)
  (0.0614763 -0.00511929 0)
  (0.0614404 -0.00458803 0)
  (0.0621545 -0.00375949 0)
  (0.0647317 -0.000683302 0)
  (0.062732 0.0161265 0)
  (0.0497312 0.0278307 0)
  (0.0519473 0.0357754 0)
  (-0.0811455 0.0690611 0)
  (0.513521 0.333782 0)
  (-0.207975 0.143027 0)
  (-0.075307 0.113921 0)
  (-0.105397 0.0848582 0)
  (-0.119869 0.0563968 0)
  (-0.128903 0.0239773 0)
  (-0.127692 -0.0147255 0)
  (-0.113644 -0.0564542 0)
  (-0.0920234 -0.0923794 0)
  (-0.0668335 -0.115963 0)
  (-0.0415927 -0.125006 0)
  (-0.0186381 -0.120839 0)
  (0.00181022 -0.105567 0)
  (0.0186285 -0.0827545 0)
  (0.0329199 -0.0558772 0)
  (0.0482133 -0.0267884 0)
  (0.0697834 0.00513624 0)
  (0.100562 0.0164531 0)
  (0.105671 -0.0225931 0)
  (0.0920512 -0.0334284 0)
  (0.0830707 -0.0328466 0)
  (0.077953 -0.028812 0)
  (0.0741011 -0.022799 0)
  (0.0714843 -0.0151268 0)
  (0.0726826 -0.00916279 0)
  (0.0776588 -0.00684686 0)
  (0.0818909 -0.00556508 0)
  (0.0846848 -0.00466007 0)
  (0.0863889 -0.00365344 0)
  (0.0865671 -0.00224749 0)
  (0.0841013 -0.000184155 0)
  (0.0777321 0.00284423 0)
  (0.0649476 0.00737008 0)
  (0.0526792 0.026671 0)
  (0.0405641 0.0429821 0)
  (0.0560152 0.0559202 0)
  (-0.114462 0.0912966 0)
  (0.638794 0.388257 0)
  (-0.250587 0.172004 0)
  (-0.0345188 0.130093 0)
  (-0.0611478 0.0963806 0)
  (-0.067601 0.0644478 0)
  (-0.0706348 0.0268977 0)
  (-0.0606167 -0.0215482 0)
  (-0.0413818 -0.0741465 0)
  (-0.0208019 -0.11529 0)
  (-0.00152961 -0.139433 0)
  (0.0146838 -0.145846 0)
  (0.0270862 -0.138027 0)
  (0.0368111 -0.120121 0)
  (0.0446653 -0.0956852 0)
  (0.0519502 -0.0682362 0)
  (0.0606446 -0.0415607 0)
  (0.0734835 -0.0219621 0)
  (0.0841949 -0.0211412 0)
  (0.0853191 -0.0289091 0)
  (0.0789401 -0.0297875 0)
  (0.0707125 -0.026937 0)
  (0.0639061 -0.0231036 0)
  (0.0587377 -0.0185423 0)
  (0.0555682 -0.0131525 0)
  (0.0552966 -0.00733748 0)
  (0.05761 -0.00450704 0)
  (0.0603084 -0.00348775 0)
  (0.0628806 -0.00270571 0)
  (0.0652364 -0.00112314 0)
  (0.0670318 0.00186454 0)
  (0.0670406 0.00637059 0)
  (0.0646515 0.0125584 0)
  (0.0592655 0.0210673 0)
  (0.0524 0.0362451 0)
  (0.0423141 0.0542492 0)
  (0.0643959 0.0743605 0)
  (-0.0214097 0.103454 0)
  (0.0463378 0.0323469 0)
  (-0.062035 -0.034476 0)
  (-0.272427 -0.0571313 0)
  (0.729933 0.433678 0)
  (-0.292195 0.191508 0)
  (-0.00327976 0.126656 0)
  (-0.015979 0.0976351 0)
  (-0.0118678 0.0668786 0)
  (-0.00618089 0.0238079 0)
  (0.0225773 -0.0387987 0)
  (0.0444008 -0.0945114 0)
  (0.059916 -0.132639 0)
  (0.0692942 -0.151938 0)
  (0.0732085 -0.154375 0)
  (0.0730713 -0.143541 0)
  (0.0703881 -0.123468 0)
  (0.066671 -0.0981472 0)
  (0.063409 -0.0712418 0)
  (0.0620133 -0.0464199 0)
  (0.0633354 -0.0279582 0)
  (0.0642115 -0.0206847 0)
  (0.0609576 -0.0203515 0)
  (0.0539671 -0.0204944 0)
  (0.0460411 -0.0191053 0)
  (0.0393833 -0.0168756 0)
  (0.0345359 -0.0141589 0)
  (0.0317955 -0.0110169 0)
  (0.03143 -0.00806442 0)
  (0.0330848 -0.00691286 0)
  (0.0357023 -0.00677596 0)
  (0.038822 -0.00640772 0)
  (0.0422564 -0.00479212 0)
  (0.0457456 -0.00104081 0)
  (0.0489216 0.00518247 0)
  (0.0505913 0.0135292 0)
  (0.0510157 0.0241553 0)
  (0.0515489 0.0385739 0)
  (0.0503948 0.0563051 0)
  (0.0728626 0.0790529 0)
  (0.0525304 0.0969735 0)
  (0.0932264 0.0678622 0)
  (0.116129 0.0446217 0)
  (-0.129018 -0.00709116 0)
  (0.781958 0.474959 0)
  (-0.313142 0.176949 0)
  (0.0235619 0.0771313 0)
  (0.0426995 0.0738101 0)
  (0.0578953 0.0521958 0)
  (0.0847518 0.000895449 0)
  (0.118839 -0.0632032 0)
  (0.138078 -0.111952 0)
  (0.144439 -0.141368 0)
  (0.140608 -0.152902 0)
  (0.129334 -0.149529 0)
  (0.113538 -0.135004 0)
  (0.0957968 -0.113202 0)
  (0.0783552 -0.0880223 0)
  (0.0628965 -0.062667 0)
  (0.050665 -0.0402516 0)
  (0.0420976 -0.0238863 0)
  (0.0356465 -0.0156759 0)
  (0.0291328 -0.0133817 0)
  (0.0220618 -0.0130585 0)
  (0.0153622 -0.012547 0)
  (0.00995969 -0.0117278 0)
  (0.00617195 -0.0107433 0)
  (0.00417665 -0.00966566 0)
  (0.00405894 -0.00891226 0)
  (0.00545833 -0.0091175 0)
  (0.00772729 -0.0097794 0)
  (0.0105855 -0.0100323 0)
  (0.0140624 -0.00899739 0)
  (0.018281 -0.00565844 0)
  (0.0241583 0.00100823 0)
  (0.0301578 0.0101715 0)
  (0.0358104 0.0209362 0)
  (0.0429524 0.033796 0)
  (0.0507286 0.0484444 0)
  (0.0727887 0.0668491 0)
  (0.0860182 0.0745404 0)
  (0.118323 0.0519775 0)
  (0.158007 0.0439883 0)
  (-0.0351972 0.0939912 0)
  (0.886619 0.477622 0)
  (-0.0705929 0.156584 0)
  (0.106113 0.00377861 0)
  (0.169329 -0.0167378 0)
  (0.182436 -0.035724 0)
  (0.218134 -0.0697447 0)
  (0.239893 -0.10242 0)
  (0.242336 -0.125722 0)
  (0.228278 -0.137156 0)
  (0.202663 -0.136958 0)
  (0.170365 -0.126901 0)
  (0.13561 -0.109614 0)
  (0.10144 -0.0877949 0)
  (0.0703485 -0.0646948 0)
  (0.0437904 -0.0427236 0)
  (0.0231364 -0.0244829 0)
  (0.0088337 -0.0124877 0)
  (-0.000471185 -0.00717543 0)
  (-0.00705535 -0.00627925 0)
  (-0.0125826 -0.00683065 0)
  (-0.0173243 -0.00745485 0)
  (-0.0211051 -0.00796761 0)
  (-0.023841 -0.00842504 0)
  (-0.0254787 -0.00892198 0)
  (-0.0260604 -0.00966663 0)
  (-0.0258897 -0.0108082 0)
  (-0.0253495 -0.0120763 0)
  (-0.0245721 -0.0130233 0)
  (-0.0234135 -0.0131507 0)
  (-0.021491 -0.0118713 0)
  (-0.0178487 -0.00843327 0)
  (-0.00911866 -0.00208552 0)
  (-0.000294706 0.006291 0)
  (0.0103394 0.014665 0)
  (0.0220461 0.0217904 0)
  (0.041816 0.0291228 0)
  (0.0603904 0.0221652 0)
  (0.0798875 -0.00526208 0)
  (0.138927 0.0403362 0)
  (-0.413757 0.20681 0)
  (1.03169 0.430006 0)
  (0.496804 0.285112 0)
  (0.503103 0.191395 0)
  (0.511695 0.119861 0)
  (0.48716 0.068343 0)
  (0.444243 0.0149108 0)
  (0.39417 -0.0333294 0)
  (0.340606 -0.0674181 0)
  (0.283254 -0.0849119 0)
  (0.224538 -0.087879 0)
  (0.167769 -0.0803667 0)
  (0.115704 -0.0663758 0)
  (0.0693657 -0.0486669 0)
  (0.0306502 -0.030646 0)
  (-0.00089302 -0.014513 0)
  (-0.0216171 -0.00459007 0)
  (-0.0326628 -0.000894994 0)
  (-0.0387638 -0.000424947 0)
  (-0.0427385 -0.00141191 0)
  (-0.0462183 -0.00276446 0)
  (-0.0494097 -0.00408642 0)
  (-0.0523191 -0.00532321 0)
  (-0.054921 -0.00650805 0)
  (-0.0572348 -0.00769291 0)
  (-0.0593801 -0.00894114 0)
  (-0.0616281 -0.0102318 0)
  (-0.0643124 -0.0113471 0)
  (-0.0677365 -0.0119126 0)
  (-0.0722303 -0.0114014 0)
  (-0.0782571 -0.00911575 0)
  (-0.0864222 -0.00423135 0)
  (-0.0967803 0.00387182 0)
  (-0.107335 0.0147086 0)
  (-0.122626 0.0284487 0)
  (-0.14672 0.0451398 0)
  (-0.182145 0.0635791 0)
  (-0.232182 0.0797024 0)
  (-0.289152 0.0908927 0)
  (-0.357778 0.0971465 0)
  (-0.619927 0.0991462 0)
  (-0.148021 0.0826579 0)
  (0.134611 0.0614042 0)
  (0.217838 0.00559435 0)
  (0.201313 -0.0291465 0)
  (0.185542 -0.0433504 0)
  (0.162973 -0.0478826 0)
  (0.130436 -0.0461351 0)
  (0.0918391 -0.0396461 0)
  (0.05196 -0.0298287 0)
  (0.0139506 -0.0175072 0)
  (-0.023282 -0.00376742 0)
  (-0.0469612 0.00385522 0)
  (-0.061376 0.00723424 0)
  (-0.0683668 0.0076185 0)
  (-0.0717822 0.00681038 0)
  (-0.0740263 0.00579987 0)
  (-0.0759579 0.00480788 0)
  (-0.0778847 0.00388652 0)
  (-0.0801104 0.00297186 0)
  (-0.0826787 0.00193494 0)
  (-0.0855121 0.000825026 0)
  (-0.0886367 -0.000292145 0)
  (-0.0921245 -0.00132923 0)
  (-0.0960702 -0.00212676 0)
  (-0.100551 -0.00243601 0)
  (-0.105573 -0.0019425 0)
  (-0.111045 -0.000291413 0)
  (-0.116754 0.00287664 0)
  (-0.122098 0.00799977 0)
  (-0.126291 0.015827 0)
  (-0.129768 0.0274799 0)
  (-0.132779 0.0433445 0)
  (-0.136127 0.0625272 0)
  (-0.140317 0.0813618 0)
  (-0.142163 0.089961 0)
  (-0.124834 0.067501 0)
  (-0.0810528 -0.0256352 0)
  (-0.278711 -0.203488 0)
  (-0.020273 0.23237 0)
  (0.0637045 0.0997545 0)
  (0.0377793 0.0191373 0)
  (0.025437 -0.0044933 0)
  (0.0158739 -0.00988136 0)
  (-0.0029267 -0.0111889 0)
  (-0.0279565 -0.00867227 0)
  (-0.0536821 -0.00407689 0)
  (-0.0754279 0.000424222 0)
  (-0.0903681 0.00340738 0)
  (-0.0975135 0.00362607 0)
  (-0.100033 0.00135825 0)
  (-0.100374 -0.00165345 0)
  (-0.0997742 -0.00506224 0)
  (-0.0993203 -0.00853745 0)
  (-0.0994055 -0.0118336 0)
  (-0.100055 -0.0148166 0)
  (-0.101165 -0.0172735 0)
  (-0.102594 -0.0190452 0)
  (-0.104256 -0.0201067 0)
  (-0.106199 -0.0205657 0)
  (-0.108392 -0.0204405 0)
  (-0.110837 -0.0199706 0)
  (-0.113508 -0.0192037 0)
  (-0.116297 -0.0180287 0)
  (-0.118977 -0.0162119 0)
  (-0.121182 -0.0133731 0)
  (-0.122405 -0.00893456 0)
  (-0.122113 -0.00269115 0)
  (-0.119334 0.00588887 0)
  (-0.112623 0.017672 0)
  (-0.100698 0.0334132 0)
  (-0.0832673 0.0526718 0)
  (-0.0612154 0.0713431 0)
  (-0.0374091 0.0822869 0)
  (0.00265914 0.066602 0)
  (0.14332 -0.00458594 0)
  (-0.207295 -0.114174 0)
  (0.94029 -0.000248348 0)
  (-0.529104 -0.46093 0)
  (-0.317413 0.089368 0)
  (-0.228015 -0.0196593 0)
  (-0.180485 -0.0410871 0)
  (-0.16601 -0.0289776 0)
  (-0.16358 -0.0159839 0)
  (-0.164878 -0.0056472 0)
  (-0.165381 0.00297571 0)
  (-0.163088 0.0105306 0)
  (-0.158342 0.0174689 0)
  (-0.151274 0.0237822 0)
  (-0.142819 0.029205 0)
  (-0.134413 0.0337558 0)
  (-0.126904 0.0379987 0)
  (-0.120625 0.042153 0)
  (-0.115582 0.0463003 0)
  (-0.111606 0.0502402 0)
  (-0.10855 0.0535967 0)
  (-0.106322 0.0560152 0)
  (-0.10484 0.0572848 0)
  (-0.10403 0.0573823 0)
  (-0.103833 0.0564364 0)
  (-0.10419 0.0545709 0)
  (-0.105024 0.0522324 0)
  (-0.106233 0.0496468 0)
  (-0.107658 0.0469349 0)
  (-0.109033 0.0441922 0)
  (-0.109936 0.041488 0)
  (-0.109689 0.038886 0)
  (-0.107044 0.0372397 0)
  (-0.10012 0.0372341 0)
  (-0.0864536 0.0396336 0)
  (-0.0641846 0.0453383 0)
  (-0.0339144 0.0548541 0)
  (0.0144355 0.0678223 0)
  (0.059081 0.0690746 0)
  (0.10163 0.054403 0)
  (0.163791 0.0253931 0)
  (-0.21923 -0.0294123 0)
)
;

boundaryField
{
  floor
  {
    type noSlip;
  }
  ceiling
  {
    type noSlip;
  }
  sWall
  {
    type noSlip;
  }
  nWall
  {
    type noSlip;
  }
  sideWalls
  {
    type empty;
  }
  glass1
  {
    type noSlip;
  }
  glass2
  {
    type noSlip;
  }
  sun
  {
    type noSlip;
  }
  heatsource1
  {
    type noSlip;
  }
  heatsource2
  {
    type noSlip;
  }
  Table_master
  {
    type noSlip;
  }
  Table_slave
  {
    type noSlip;
  }
  inlet
  {
    type fixedValue;
    value uniform (0.3 0 0);
  }
  outlet
  {
    type zeroGradient;
  }
} 	// ************************************************************************* //

