/*--------------------------------*- C++ -*----------------------------------*\
  =========                 |
  \\      /  F ield         | OpenFOAM: The Open Source CFD Toolbox
   \\    /   O peration     | Website:  https://openfoam.org
    \\  /    A nd           | Version:  6
     \\/     M anipulation  |
\*---------------------------------------------------------------------------*/
FoamFile
{
    version     2.0;
    format      ascii;
    class       volScalarField;
    location    "1500";
    object      alphat;
}
// * * * * * * * * * * * * * * * * * * * * * * * * * * * * * * * * * * * * * //

dimensions      [1 -1 -1 0 0 0 0];

internalField   nonuniform List<scalar> 
459
(
0.00123613
0.00134881
0.00137437
0.00143996
0.00150076
0.00155811
0.00161512
0.00166955
0.00170781
0.0017226
0.00170693
0.00165585
0.00156698
0.00144284
0.00129704
0.000539214
0.000643835
0.000727643
0.000734911
0.000714225
0.000684193
0.000642217
0.000599343
0.000560308
0.000525727
0.000495181
0.000468117
0.000444083
0.000422599
0.000402883
0.000383957
0.00036448
0.000352424
0.000322643
0.00168252
0.00399317
0.0037801
0.00438474
0.004977
0.00557092
0.00608704
0.00648893
0.00686255
0.00717358
0.00737948
0.00743642
0.00729145
0.00681905
0.00549085
0.00132062
0.000820389
0.000562354
0.00118545
0.00166219
0.00202369
0.0022381
0.00225017
0.00177815
0.00152779
0.00135032
0.00121485
0.00110774
0.00102089
0.000947114
0.000878436
0.000811899
0.000752912
0.000701056
0.000832876
0.000429428
0.00205349
0.00541598
0.00460961
0.00574228
0.00626161
0.00663921
0.00693458
0.00719526
0.00749813
0.00782667
0.00814238
0.00838672
0.0085066
0.00841348
0.00784872
0.00602223
0.00136058
0.00105745
0.00154239
0.00201236
0.00246902
0.0028092
0.00277645
0.000913043
0.000807587
0.000721906
0.00065235
0.000595499
0.000548617
0.000509674
0.000477359
0.000451104
0.000487271
0.000562431
0.000940808
0.000501779
0.00240976
0.00692883
0.00455013
0.00599615
0.00638786
0.00648184
0.0065614
0.0067098
0.00696425
0.00730629
0.00769956
0.0080608
0.00833283
0.00843948
0.00832243
0.00767366
0.00514671
0.00159203
0.00190985
0.00243974
0.00302144
0.00354085
0.00390011
0.00371638
0.00103343
0.000945636
0.000883154
0.000835658
0.000795061
0.000756953
0.00072024
0.000681492
0.000636338
0.000597027
0.000603095
0.00109208
0.000559067
0.00277288
0.00890317
0.0049195
0.00571782
0.00625762
0.00620178
0.00614972
0.00626189
0.0065003
0.00684985
0.00728433
0.00768135
0.00795934
0.00806733
0.00800677
0.00774921
0.00709352
0.00601126
0.00564521
0.00558902
0.00564696
0.00571482
0.00572474
0.00554602
0.00471599
0.00431375
0.00408097
0.00390049
0.00370874
0.00343402
0.00305193
0.00258194
0.00205767
0.00153616
0.00113431
0.00111911
0.000760586
0.000690404
0.000832325
0.000934817
0.00315848
0.0110683
0.00676838
0.00553015
0.00605274
0.00622391
0.00605758
0.00616182
0.00635955
0.0066839
0.00710679
0.00752055
0.00779646
0.00785792
0.00772306
0.00749126
0.00727299
0.00713612
0.00715165
0.00718794
0.00716033
0.00705783
0.00688428
0.00662641
0.00623924
0.00589305
0.00558828
0.00529802
0.00500455
0.00469042
0.00428935
0.00378247
0.00316929
0.00248794
0.00187579
0.00138074
0.001057
0.000902338
0.00128424
0.000977869
0.00352015
0.0126281
0.00970219
0.00702262
0.00656035
0.00659767
0.00643251
0.00633981
0.00643604
0.00674531
0.00719165
0.00762631
0.00788892
0.0078918
0.00767658
0.00742293
0.0073665
0.00757785
0.00783671
0.00792188
0.00780126
0.00753225
0.00716692
0.00674308
0.00629973
0.00589871
0.00554252
0.00521765
0.00491963
0.00465281
0.00441584
0.00409091
0.00361942
0.00303369
0.00246104
0.00193273
0.00155868
0.00144884
0.00148391
0.00112001
0.00359609
0.0114432
0.00993526
0.00880929
0.00812171
0.00735589
0.00671441
0.00644697
0.00657148
0.00698963
0.00752897
0.00798603
0.00818406
0.00806538
0.00774129
0.00749514
0.00759957
0.00794573
0.00809012
0.00792515
0.00753875
0.00701979
0.00644672
0.00589353
0.00541654
0.00503137
0.00471786
0.00445909
0.00425255
0.00410484
0.00402538
0.00398937
0.00376246
0.00338801
0.00305101
0.00287796
0.00300106
0.00347311
0.00425232
0.00173624
0.00350588
0.00419015
0.00473702
0.0049118
0.00492959
0.00504789
0.00538414
0.00596902
0.00675015
0.00757376
0.00824564
0.00859696
0.00851784
0.00808732
0.00762791
0.00754523
0.00762159
0.00761815
0.00737652
0.00690052
0.0062814
0.00562157
0.00501561
0.00452133
0.00414574
0.0038609
0.00363394
0.00344354
0.00327731
0.00312592
0.00298129
0.00284381
0.00273506
0.00265501
0.00262358
0.0026317
0.00261028
0.00249801
0.00233012
0.00162335
0.00216669
0.00383592
0.00529257
0.00650837
0.0074944
0.0083784
0.00906504
0.00940812
0.00935898
0.00893722
0.00820689
0.00739035
0.00689418
0.00671146
0.00650736
0.0061345
0.00560354
0.00499566
0.00439288
0.00386891
0.00346617
0.00317627
0.0029699
0.00281893
0.00270512
0.0026191
0.00255659
0.00251627
0.00250169
0.0025153
0.00254119
0.00257523
0.00260767
0.0026091
0.00253329
0.00236662
0.00212421
0.00133235
0.0025191
0.0053648
0.00733181
0.00824648
0.00885881
0.00927802
0.00923049
0.00864128
0.00774798
0.00679467
0.00599687
0.00542049
0.00503351
0.00468409
0.00426474
0.00379747
0.00334255
0.0029546
0.00266052
0.00245572
0.00231477
0.00221871
0.00216092
0.00213358
0.00213134
0.00215085
0.00218887
0.00224064
0.00231305
0.00240266
0.00250648
0.00261692
0.00271597
0.00278242
0.00276071
0.00277841
0.00274391
0.00135456
0.0021515
0.00226616
0.00235067
0.00241788
0.00218724
0.00200728
0.00192141
0.00183431
0.00170832
0.00155291
0.00137618
0.00120117
0.00104654
0.000924045
0.000835503
0.000773135
0.000728496
0.000696797
0.000676113
0.000665484
0.000663715
0.000669366
0.000681202
0.000698626
0.00072042
0.000746343
0.000776539
0.000811385
0.000851591
0.000898459
0.000951192
0.00100999
0.00107558
0.00114862
0.00122889
0.00132576
0.00135588
0.00132111
0.00123768
0.00114871
)
;

boundaryField
{
    floor
    {
        type            compressible::alphatWallFunction;
        Prt             0.85;
        value           nonuniform List<scalar> 
29
(
0.000183479
7.52183e-05
9.09102e-05
0.000103255
0.000104317
0.000101291
9.68779e-05
9.06705e-05
8.42786e-05
7.84102e-05
7.31691e-05
6.85034e-05
6.43395e-05
6.06162e-05
5.72662e-05
5.41727e-05
5.11849e-05
4.80901e-05
4.61637e-05
4.13679e-05
4.13674e-05
5.83338e-05
6.95147e-05
7.82236e-05
0.000183477
7.52174e-05
7.87186e-05
0.00015036
0.000223323
)
;
    }
    ceiling
    {
        type            compressible::alphatWallFunction;
        Prt             0.85;
        value           nonuniform List<scalar> 
43
(
0.00029667
0.000311444
0.000322285
0.000330994
0.000301451
0.000278153
0.00026696
0.000255545
0.000238918
0.000218217
0.000194388
0.000170448
0.000148961
0.000131678
0.000119018
0.000110006
0.000103501
9.88536e-05
9.58071e-05
9.42371e-05
9.39757e-05
9.48112e-05
9.65581e-05
9.91232e-05
0.000102321
0.000106109
0.000110501
0.000115545
0.000121332
0.000128038
0.000135534
0.000143835
0.000153028
0.00016319
0.000174272
0.000187539
0.000191641
0.000186906
0.000175483
0.000163206
0.000467291
0.000550522
0.000343641
)
;
    }
    sWall
    {
        type            compressible::alphatWallFunction;
        Prt             0.85;
        value           uniform 0.00029545;
    }
    nWall
    {
        type            compressible::alphatWallFunction;
        Prt             0.85;
        value           nonuniform List<scalar> 6(0.000132886 0.000138975 0.000158876 0.000188109 0.000191129 0.000162879);
    }
    sideWalls
    {
        type            empty;
    }
    glass1
    {
        type            compressible::alphatWallFunction;
        Prt             0.85;
        value           nonuniform List<scalar> 9(0.000170829 0.000230258 0.00027844 0.00032392 0.000369608 0.000417486 0.000461886 0.00047128 0.000460501);
    }
    glass2
    {
        type            compressible::alphatWallFunction;
        Prt             0.85;
        value           nonuniform List<scalar> 2(0.000240852 0.000225992);
    }
    sun
    {
        type            compressible::alphatWallFunction;
        Prt             0.85;
        value           nonuniform List<scalar> 
14
(
0.000175151
0.000190545
0.000194018
0.000202901
0.000211094
0.00021879
0.000226408
0.000233654
0.000238731
0.000240689
0.000238612
0.000231829
0.000219973
0.000203286
)
;
    }
    heatsource1
    {
        type            compressible::alphatWallFunction;
        Prt             0.85;
        value           nonuniform List<scalar> 3(9.79059e-05 0.000118555 0.000133203);
    }
    heatsource2
    {
        type            compressible::alphatWallFunction;
        Prt             0.85;
        value           nonuniform List<scalar> 4(0.000186829 0.000116836 0.000116834 0.000192269);
    }
    Table_master
    {
        type            compressible::alphatWallFunction;
        Prt             0.85;
        value           nonuniform List<scalar> 9(0.000130105 0.000114986 0.000102528 9.22833e-05 8.38108e-05 7.67486e-05 7.08253e-05 6.5867e-05 6.18071e-05);
    }
    Table_slave
    {
        type            compressible::alphatWallFunction;
        Prt             0.85;
        value           nonuniform List<scalar> 9(0.00014712 0.000134738 0.000125845 0.000119035 0.000113177 0.000107647 0.000102286 9.65932e-05 8.99087e-05);
    }
    inlet
    {
        type            fixedValue;
        value           uniform 1.94e-05;
    }
    outlet
    {
        type            zeroGradient;
    }
}


// ************************************************************************* //
