/*--------------------------------*- C++ -*----------------------------------*\
  =========                 |
  \\      /  F ield         | OpenFOAM: The Open Source CFD Toolbox
   \\    /   O peration     | Website:  https://openfoam.org
    \\  /    A nd           | Version:  6
     \\/     M anipulation  |
\*---------------------------------------------------------------------------*/
FoamFile
{
    version     2.0;
    format      ascii;
    class       volScalarField;
    location    "1000";
    object      nut;
}
// * * * * * * * * * * * * * * * * * * * * * * * * * * * * * * * * * * * * * //

dimensions      [0 2 -1 0 0 0 0];

internalField   nonuniform List<scalar> 
459
(
0.00118178
0.00130144
0.00134075
0.00141121
0.00147922
0.00154811
0.00161377
0.00165997
0.00167823
0.00166269
0.00160926
0.00150657
0.00132491
0.0011185
0.000942101
0.000527438
0.000620825
0.000726582
0.000783634
0.000789287
0.000770205
0.0007223
0.000670597
0.00062393
0.000583246
0.000547849
0.000516942
0.000489686
0.000465492
0.000443475
0.00042245
0.000400737
0.000378995
0.000342032
0.00155995
0.0039316
0.00383408
0.00446192
0.00509215
0.00564235
0.00606703
0.00644901
0.00675525
0.00695434
0.00701795
0.00690237
0.00654129
0.00584279
0.00398511
0.0012013
0.000931586
0.000518334
0.00128898
0.00201068
0.00261594
0.00299647
0.0029778
0.00210434
0.00174156
0.00150493
0.00133358
0.00120347
0.00110122
0.00101943
0.000944597
0.000865903
0.000789992
0.000722604
0.000764454
0.000397141
0.00186974
0.00532628
0.00474048
0.00559074
0.00601212
0.00633305
0.00661567
0.00693135
0.00727567
0.00761792
0.00790972
0.00806095
0.00798464
0.00760782
0.00655102
0.00439309
0.00119777
0.0007551
0.00141669
0.00222769
0.00309384
0.00373432
0.00362291
0.000995724
0.000865547
0.000760346
0.000676095
0.000608311
0.000553291
0.00050823
0.000471787
0.000444069
0.000492923
0.000581347
0.000862152
0.000434737
0.00216302
0.0066337
0.00480526
0.0057609
0.00594045
0.0060552
0.00622645
0.00648449
0.00684839
0.00728201
0.00770732
0.00798133
0.00809715
0.00801756
0.00759351
0.00637997
0.00352943
0.00136525
0.00161652
0.00228471
0.00325744
0.00425165
0.00494275
0.00465051
0.00112915
0.00101894
0.000935313
0.000867943
0.000810858
0.00075878
0.000708101
0.000655888
0.000597843
0.000551483
0.000573874
0.000965286
0.00046699
0.00246095
0.00830112
0.00521345
0.00574835
0.00589568
0.00588775
0.00597535
0.00617553
0.00654741
0.00701338
0.00745323
0.007757
0.00788781
0.00787111
0.00770968
0.00722584
0.00611398
0.00532162
0.00549289
0.00593664
0.00646023
0.0068766
0.00705717
0.0068061
0.00553618
0.00485246
0.00440668
0.00403946
0.00364813
0.0032199
0.00274893
0.00223955
0.00171211
0.00122627
0.000915087
0.000985318
0.000601236
0.000556283
0.000676472
0.000760443
0.00277837
0.0101561
0.00691828
0.00609316
0.0062924
0.006083
0.00600975
0.00612144
0.00647259
0.00696624
0.00743179
0.00772567
0.00781007
0.00776336
0.0077149
0.00772055
0.00769605
0.00785881
0.00826885
0.00861122
0.00879068
0.00877847
0.00857575
0.00816838
0.00750306
0.00687599
0.00631983
0.00577581
0.00522319
0.00464305
0.00402194
0.0033558
0.00265964
0.00198628
0.00147637
0.00118281
0.000859097
0.000724793
0.00102343
0.000792821
0.00306428
0.0114331
0.00943533
0.00765658
0.00710894
0.00646465
0.00613113
0.00619536
0.00659607
0.0071605
0.00766464
0.0079448
0.00799103
0.00796121
0.00811255
0.00857695
0.00912335
0.00963603
0.0100202
0.0101236
0.00998732
0.00966165
0.00919635
0.0086274
0.00797837
0.00733313
0.00671562
0.00611694
0.00553449
0.00496009
0.00438424
0.00379587
0.00318549
0.00256872
0.00205962
0.00165972
0.00133187
0.00119798
0.001152
0.000895045
0.00311988
0.00995413
0.00892865
0.00792626
0.00686585
0.00615387
0.00597301
0.00628383
0.00692068
0.00763191
0.00816018
0.00837815
0.0083915
0.0084982
0.00905341
0.00974941
0.0102265
0.0105341
0.0106316
0.0104581
0.0100522
0.00948157
0.00880434
0.00806626
0.00731112
0.00658415
0.00590043
0.00526522
0.00469733
0.00422498
0.00385437
0.00353957
0.00319931
0.00281361
0.002525
0.00236934
0.00236719
0.00255563
0.00324648
0.0013624
0.00304158
0.00360012
0.00398227
0.00406075
0.00424371
0.00476476
0.00562477
0.00669932
0.00775632
0.0085342
0.00884904
0.00879072
0.00893362
0.00932393
0.0097643
0.0100931
0.0102456
0.0102262
0.010003
0.00956126
0.00893839
0.00818903
0.00736518
0.00651967
0.00570318
0.00494732
0.00426007
0.00365037
0.00313751
0.00273722
0.0024474
0.00225177
0.00212596
0.00205009
0.0020209
0.00202577
0.00202093
0.00196416
0.00184674
0.00126981
0.00152846
0.00299698
0.00543987
0.00732508
0.00862959
0.00942755
0.00971731
0.00961584
0.0091757
0.00880382
0.00880317
0.00898994
0.00909198
0.0090631
0.00890376
0.00858794
0.00809174
0.0074344
0.00667749
0.00589387
0.00514386
0.00446423
0.00386713
0.00335057
0.00291405
0.00256286
0.00230015
0.00212056
0.00201173
0.00195927
0.00194966
0.00197086
0.00200956
0.00204331
0.00203878
0.00197399
0.00175227
0.00102989
0.00196838
0.00546819
0.0077579
0.00896966
0.00923283
0.00893452
0.00834116
0.00772641
0.00725737
0.00696301
0.00679349
0.00664619
0.00648522
0.00630139
0.00606262
0.0057368
0.00532286
0.00485758
0.00439388
0.00397243
0.00360983
0.00330351
0.00304261
0.0028164
0.00261791
0.00244399
0.00229455
0.00217212
0.00208115
0.00202612
0.00200858
0.00202322
0.00205362
0.00207268
0.002048
0.00200703
0.00158215
0.00105626
0.00175749
0.0018533
0.00192102
0.00204618
0.00192828
0.00185555
0.00176888
0.00165612
0.00152386
0.00139336
0.00128157
0.00119791
0.00114043
0.00110068
0.00107056
0.0010438
0.00101607
0.000985421
0.000952453
0.000919362
0.000888409
0.000860882
0.000837031
0.000816588
0.000799354
0.00078558
0.000776053
0.000771895
0.000774253
0.00078404
0.000801827
0.000827948
0.000862654
0.000905931
0.000956315
0.00101005
0.00101564
0.000907078
0.000889914
0.00110115
)
;

boundaryField
{
    floor
    {
        type            nutkWallFunction;
        Cmu             0.09;
        kappa           0.41;
        E               9.8;
        value           nonuniform List<scalar> 
29
(
0.000113889
6.32051e-05
7.49432e-05
8.79812e-05
9.49195e-05
9.56043e-05
9.32932e-05
8.746e-05
8.11121e-05
7.53319e-05
7.02499e-05
6.57931e-05
6.18726e-05
5.8391e-05
5.52804e-05
5.24319e-05
4.96951e-05
4.68506e-05
4.39821e-05
3.90563e-05
3.90562e-05
4.63745e-05
5.12915e-05
5.5467e-05
0.000113889
6.3205e-05
6.2047e-05
9.14523e-05
0.000162911
)
;
    }
    ceiling
    {
        type            nutkWallFunction;
        Cmu             0.09;
        kappa           0.41;
        E               9.8;
        value           nonuniform List<scalar> 
43
(
0.000206701
0.000217243
0.000224659
0.000238406
0.000225594
0.000217639
0.0002081
0.000195608
0.000180834
0.000166115
0.000153385
0.000143779
0.000137134
0.000132517
0.000129006
0.000125877
0.000122625
0.000119019
0.000115125
0.000111201
0.000107515
0.000104225
0.000101364
9.89041e-05
9.68245e-05
9.51585e-05
9.40038e-05
9.34988e-05
9.37839e-05
9.49686e-05
9.71181e-05
0.000100265
0.000104429
0.000109594
0.000115572
0.000121908
0.000122565
0.00010973
0.000107686
0.000132571
0.00034445
0.000402197
0.000229683
)
;
    }
    sWall
    {
        type            nutkWallFunction;
        Cmu             0.09;
        kappa           0.41;
        E               9.8;
        value           uniform 0.000206759;
    }
    nWall
    {
        type            nutkWallFunction;
        Cmu             0.09;
        kappa           0.41;
        E               9.8;
        value           nonuniform List<scalar> 6(9.20999e-05 9.60246e-05 0.000108295 0.000124247 0.000127336 0.000132579);
    }
    sideWalls
    {
        type            empty;
    }
    glass1
    {
        type            nutkWallFunction;
        Cmu             0.09;
        kappa           0.41;
        E               9.8;
        value           nonuniform List<scalar> 9(0.000142044 0.00018511 0.000219513 0.000251513 0.000283547 0.00031723 0.000347227 0.000353035 0.000344882);
    }
    glass2
    {
        type            nutkWallFunction;
        Cmu             0.09;
        kappa           0.41;
        E               9.8;
        value           nonuniform List<scalar> 2(0.00016265 0.000152082);
    }
    sun
    {
        type            nutkWallFunction;
        Cmu             0.09;
        kappa           0.41;
        E               9.8;
        value           nonuniform List<scalar> 
14
(
0.00014191
0.000155645
0.000160127
0.000168125
0.000175802
0.000183539
0.000190878
0.000196022
0.00019805
0.000196323
0.000190373
0.000178873
0.00015832
0.000134576
)
;
    }
    heatsource1
    {
        type            nutkWallFunction;
        Cmu             0.09;
        kappa           0.41;
        E               9.8;
        value           nonuniform List<scalar> 3(6.68518e-05 8.18289e-05 9.21006e-05);
    }
    heatsource2
    {
        type            nutkWallFunction;
        Cmu             0.09;
        kappa           0.41;
        E               9.8;
        value           nonuniform List<scalar> 4(0.000144152 0.000112642 0.000112642 0.000143745);
    }
    Table_master
    {
        type            nutkWallFunction;
        Cmu             0.09;
        kappa           0.41;
        E               9.8;
        value           nonuniform List<scalar> 9(0.000120224 0.000104777 9.20961e-05 8.17905e-05 7.33875e-05 6.64832e-05 6.0766e-05 5.60963e-05 5.25144e-05);
    }
    Table_slave
    {
        type            nutkWallFunction;
        Cmu             0.09;
        kappa           0.41;
        E               9.8;
        value           nonuniform List<scalar> 9(0.000135819 0.000122955 0.000113087 0.000105064 9.82082e-05 9.19044e-05 8.57207e-05 7.92942e-05 7.20771e-05);
    }
    inlet
    {
        type            calculated;
        value           uniform 0.000100623;
    }
    outlet
    {
        type            calculated;
        value           nonuniform List<scalar> 2(0.00175749 0.0018533);
    }
}


// ************************************************************************* //
