/*--------------------------------*- C++ -*----------------------------------*\
  =========                 |
  \\      /  F ield         | OpenFOAM: The Open Source CFD Toolbox
   \\    /   O peration     | Website:  https://openfoam.org
    \\  /    A nd           | Version:  6
     \\/     M anipulation  |
\*---------------------------------------------------------------------------*/
FoamFile
{
    version     2.0;
    format      ascii;
    class       volScalarField;
    location    "800";
    object      alphat;
}
// * * * * * * * * * * * * * * * * * * * * * * * * * * * * * * * * * * * * * //

dimensions      [1 -1 -1 0 0 0 0];

internalField   nonuniform List<scalar> 
459
(
0.00140489
0.00155097
0.00159989
0.00168594
0.00177047
0.00185843
0.00193582
0.00198596
0.00199845
0.00196783
0.00189003
0.00169299
0.00151271
0.00130371
0.00111094
0.000625174
0.000733592
0.000860701
0.000934815
0.000945372
0.000923462
0.000866158
0.000804432
0.000748786
0.000700326
0.000658228
0.000621539
0.000589247
0.000560676
0.000534701
0.000509903
0.000484258
0.000458468
0.000414585
0.0018478
0.00471762
0.0046217
0.00537357
0.00611773
0.00671829
0.00721264
0.00763976
0.00796007
0.00813879
0.00813169
0.00784987
0.00724202
0.00605212
0.00404633
0.00136836
0.00109278
0.000613573
0.00153519
0.0024509
0.00322061
0.00369445
0.00364913
0.00254935
0.0021035
0.00181601
0.00160934
0.00145335
0.00133155
0.00123491
0.00114538
0.00105041
0.00095867
0.000876947
0.000922658
0.000478627
0.00220915
0.00639562
0.00571179
0.00664773
0.00710758
0.00745709
0.00779046
0.00815916
0.00855901
0.00894974
0.00922675
0.00926511
0.00902445
0.00840116
0.00696625
0.00453661
0.00134443
0.00082135
0.00163273
0.00267069
0.00379349
0.00460633
0.00442919
0.00118459
0.00102864
0.000902843
0.000802363
0.000721768
0.000656583
0.000603436
0.000560913
0.000529334
0.000595506
0.000710576
0.00104845
0.000521854
0.00254972
0.00794387
0.00584526
0.00685317
0.00701932
0.0071556
0.00735319
0.00766418
0.00811136
0.00863736
0.00905714
0.00927584
0.00927704
0.00902682
0.00830413
0.00676799
0.0036623
0.00151665
0.00179396
0.0026208
0.00387381
0.00515987
0.00603699
0.00564615
0.00134573
0.00121657
0.00111786
0.00103785
0.000968912
0.000904876
0.000841681
0.000776036
0.000702706
0.000646428
0.000691145
0.0011804
0.000556836
0.00289371
0.00989767
0.00640172
0.0069628
0.00706293
0.00703273
0.00709047
0.00734507
0.00781614
0.00836877
0.00882958
0.00907978
0.00911198
0.00898072
0.00865524
0.00794707
0.00657992
0.00574229
0.00611187
0.00680771
0.00758973
0.00820749
0.00849572
0.00821602
0.00666779
0.00583371
0.00528402
0.00480201
0.00428642
0.00372939
0.00313089
0.00250319
0.00187529
0.00132444
0.00101186
0.0011663
0.000703847
0.000654332
0.00079255
0.000891982
0.00325801
0.0120687
0.00846842
0.0075991
0.00757363
0.00726602
0.0071213
0.00729061
0.00776576
0.00835979
0.00884185
0.00906619
0.00904955
0.00893728
0.00886636
0.00885183
0.00875334
0.00895941
0.00958909
0.0101208
0.0104389
0.0104999
0.0103029
0.00982992
0.00901573
0.00822996
0.00751296
0.00680353
0.00607874
0.0053246
0.00453178
0.00370393
0.00287032
0.00210434
0.00157386
0.00132812
0.00098463
0.000849389
0.00121455
0.00093253
0.00358001
0.0135326
0.0113898
0.00942302
0.00843203
0.00756943
0.00721224
0.00738474
0.00794347
0.00861815
0.00912462
0.00931611
0.00927573
0.00929217
0.00965433
0.010227
0.0107699
0.0113415
0.0118592
0.012043
0.0119328
0.011581
0.0110436
0.0103611
0.00955681
0.00874513
0.00796254
0.00720312
0.00644696
0.00570619
0.00497255
0.00423586
0.00349728
0.00277996
0.00222351
0.00182477
0.00149491
0.0014074
0.00142994
0.00107954
0.00363741
0.01164
0.0105308
0.00919106
0.00787533
0.00711649
0.00704324
0.00754677
0.00837416
0.00917756
0.0096662
0.0097843
0.00979593
0.0102423
0.011103
0.0117131
0.0121669
0.0125176
0.012671
0.0125044
0.0120472
0.0113791
0.0105698
0.0096726
0.00873645
0.00783452
0.00699293
0.00620319
0.00549428
0.00490534
0.00444126
0.00403919
0.00363811
0.00320296
0.00290376
0.00279443
0.0029263
0.00337256
0.00414805
0.00165989
0.0035399
0.00418226
0.00459317
0.00470612
0.00499175
0.00572566
0.00685728
0.00817893
0.00937966
0.0101239
0.0102911
0.0102521
0.0106879
0.0112956
0.011798
0.0120896
0.0122348
0.0122254
0.0119872
0.0114804
0.0107417
0.00983816
0.00883234
0.00778812
0.00677102
0.00581878
0.00495318
0.00420651
0.00360435
0.00316088
0.00286168
0.00267578
0.00256458
0.00250666
0.00249445
0.00250756
0.00248838
0.00238783
0.00223292
0.00156052
0.00174644
0.00355456
0.00673146
0.00898691
0.0104126
0.0111621
0.0113306
0.0110143
0.0104727
0.0102941
0.0105423
0.0107965
0.0108878
0.0108508
0.0106891
0.0103468
0.00977969
0.00900314
0.00808864
0.00712688
0.00619631
0.00534915
0.00460792
0.00397511
0.0034538
0.00304983
0.00276065
0.00257368
0.0024706
0.0024327
0.00244251
0.00248371
0.00253589
0.00256724
0.00253803
0.00244581
0.00225143
0.00133104
0.00233465
0.00696706
0.00966129
0.0107074
0.0106926
0.0101325
0.00938311
0.00873931
0.00832384
0.00810763
0.00797296
0.00783835
0.00770079
0.00753859
0.00730092
0.00694257
0.00645884
0.00589411
0.00531785
0.00478889
0.00433606
0.00396126
0.00365225
0.00339411
0.00317491
0.00298677
0.00282651
0.00269645
0.0026035
0.00255536
0.00255483
0.00259305
0.00264607
0.00269119
0.00264983
0.00270018
0.00279729
0.00136717
0.00207946
0.0021937
0.00227465
0.00241805
0.00225486
0.00213858
0.00201883
0.00187391
0.00171999
0.00158064
0.00147077
0.00139469
0.00134465
0.0013102
0.00128279
0.00125595
0.00122534
0.00118925
0.001149
0.00110779
0.00106892
0.0010344
0.00100475
0.000979621
0.000958582
0.000941681
0.000929717
0.000924121
0.0009266
0.000938735
0.000961687
0.000996203
0.00104274
0.00110111
0.00116857
0.00125239
0.00126782
0.00122172
0.00115796
0.00109372
)
;

boundaryField
{
    floor
    {
        type            compressible::alphatWallFunction;
        Prt             0.85;
        value           nonuniform List<scalar> 
29
(
0.000157819
8.81438e-05
0.000104132
0.00012252
0.000133092
0.000134592
0.000131483
0.000123307
0.000114429
0.000106355
9.92646e-05
9.30573e-05
8.76082e-05
8.27795e-05
7.84801e-05
7.45476e-05
7.07713e-05
6.68416e-05
6.2863e-05
5.60272e-05
5.60265e-05
6.59738e-05
7.25916e-05
7.78974e-05
0.000157817
8.81428e-05
8.64122e-05
0.00011685
0.000213215
)
;
    }
    ceiling
    {
        type            compressible::alphatWallFunction;
        Prt             0.85;
        value           nonuniform List<scalar> 
43
(
0.000287369
0.000302142
0.000312563
0.000331074
0.000310221
0.000295244
0.000279717
0.000260786
0.000240502
0.000221965
0.000207225
0.000196945
0.000190151
0.000185458
0.000181714
0.000178038
0.000173833
0.00016886
0.000163293
0.00015757
0.000152149
0.000147314
0.000143146
0.000139602
0.000136626
0.00013423
0.000132529
0.000131732
0.000132081
0.000133801
0.00013705
0.000141921
0.000148459
0.00015661
0.000165972
0.000177518
0.000179634
0.000173305
0.000164504
0.000155588
0.000471451
0.000549553
0.000320044
)
;
    }
    sWall
    {
        type            compressible::alphatWallFunction;
        Prt             0.85;
        value           uniform 0.000286168;
    }
    nWall
    {
        type            compressible::alphatWallFunction;
        Prt             0.85;
        value           nonuniform List<scalar> 6(0.000126814 0.000132579 0.000153258 0.000187967 0.000192882 0.000155276);
    }
    sideWalls
    {
        type            empty;
    }
    glass1
    {
        type            compressible::alphatWallFunction;
        Prt             0.85;
        value           nonuniform List<scalar> 9(0.000193389 0.000251674 0.000298206 0.000341398 0.000384466 0.000429538 0.00046899 0.00047612 0.000464476);
    }
    glass2
    {
        type            compressible::alphatWallFunction;
        Prt             0.85;
        value           nonuniform List<scalar> 2(0.000230903 0.000217787);
    }
    sun
    {
        type            compressible::alphatWallFunction;
        Prt             0.85;
        value           nonuniform List<scalar> 
14
(
0.000198164
0.000217825
0.000224367
0.000235823
0.000247013
0.000258596
0.000268737
0.000275282
0.000276908
0.000272913
0.00026273
0.000236752
0.000212687
0.000184385
)
;
    }
    heatsource1
    {
        type            compressible::alphatWallFunction;
        Prt             0.85;
        value           nonuniform List<scalar> 3(9.25752e-05 0.00011281 0.000127101);
    }
    heatsource2
    {
        type            compressible::alphatWallFunction;
        Prt             0.85;
        value           nonuniform List<scalar> 4(0.00019333 0.000155426 0.000155424 0.000190071);
    }
    Table_master
    {
        type            compressible::alphatWallFunction;
        Prt             0.85;
        value           nonuniform List<scalar> 9(0.000168166 0.000146453 0.00012866 0.000114238 0.000102514 9.29166e-05 8.50052e-05 7.86134e-05 7.3828e-05);
    }
    Table_slave
    {
        type            compressible::alphatWallFunction;
        Prt             0.85;
        value           nonuniform List<scalar> 9(0.000190261 0.000172579 0.00015892 0.000147748 0.00013804 0.000128951 0.000119906 0.000110425 9.97185e-05);
    }
    inlet
    {
        type            fixedValue;
        value           uniform 1.94e-05;
    }
    outlet
    {
        type            zeroGradient;
    }
}


// ************************************************************************* //
