/*--------------------------------*- C++ -*----------------------------------*\
  =========                 |
  \\      /  F ield         | OpenFOAM: The Open Source CFD Toolbox
   \\    /   O peration     | Website:  https://openfoam.org
    \\  /    A nd           | Version:  6
     \\/     M anipulation  |
\*---------------------------------------------------------------------------*/
FoamFile
{
    version     2.0;
    format      ascii;
    class       volScalarField;
    location    "1100";
    object      alphat;
}
// * * * * * * * * * * * * * * * * * * * * * * * * * * * * * * * * * * * * * //

dimensions      [1 -1 -1 0 0 0 0];

internalField   nonuniform List<scalar> 
459
(
0.00122843
0.00133945
0.00136399
0.00142862
0.0014884
0.00154463
0.00160027
0.00165413
0.0016924
0.00170793
0.00169373
0.00164472
0.0015588
0.00143925
0.00130071
0.000534642
0.000638744
0.00072007
0.000724425
0.000702799
0.000672476
0.000631292
0.000589485
0.000551434
0.000517693
0.000487853
0.000461378
0.000437857
0.000416801
0.000397458
0.000378875
0.000359735
0.000348446
0.000319568
0.00167475
0.00395271
0.0037343
0.00433022
0.0049119
0.00549739
0.00601139
0.00640664
0.00677581
0.00708504
0.00729117
0.00734787
0.0071989
0.00671109
0.00532899
0.00132194
0.000800487
0.000559807
0.00116583
0.0016247
0.00197015
0.0021724
0.00218354
0.00173876
0.00149842
0.0013271
0.00119582
0.00109164
0.00100686
0.00093421
0.000866467
0.000801029
0.000743108
0.000691596
0.000825465
0.000428412
0.0020461
0.00536176
0.00454562
0.00567527
0.00618923
0.00656266
0.00685492
0.00710806
0.00740364
0.00772542
0.00803607
0.00827538
0.00838982
0.00829754
0.00774442
0.00596305
0.00134894
0.00105923
0.00152691
0.00197314
0.00240352
0.00272298
0.00269191
0.000897658
0.000795325
0.000712116
0.000644475
0.000589105
0.000543373
0.000505327
0.000473689
0.000447884
0.000482935
0.000555488
0.000933017
0.000501846
0.00240316
0.00687253
0.00448034
0.00592769
0.0063207
0.00641321
0.00648682
0.00662696
0.0068729
0.00720476
0.007591
0.00794493
0.00821034
0.00831918
0.00820613
0.00758436
0.0051727
0.00158128
0.00189418
0.00240599
0.0029586
0.00344662
0.00378314
0.00360843
0.0010155
0.000930954
0.000870924
0.000825345
0.00078629
0.000749442
0.000713893
0.000676272
0.000632256
0.000592983
0.000597501
0.0010859
0.000559572
0.00276717
0.00884718
0.00484412
0.00564283
0.0061894
0.00613292
0.00607393
0.00617657
0.0064096
0.00674676
0.00717482
0.00756604
0.00784183
0.00794892
0.00788639
0.00762918
0.00698504
0.00590183
0.00552509
0.00545093
0.00548907
0.00554144
0.00554524
0.005378
0.00459454
0.00421563
0.00399503
0.00382129
0.00363492
0.00336853
0.00299705
0.00253962
0.00202831
0.00151773
0.00112171
0.00110665
0.000760975
0.000692203
0.000833769
0.000936051
0.00315361
0.0110122
0.00668137
0.00543352
0.00596157
0.00613447
0.00596573
0.00607061
0.00626747
0.00658274
0.0069943
0.00740158
0.00767741
0.00774097
0.00760298
0.00735742
0.0071155
0.0069509
0.0069419
0.00695979
0.00692101
0.00681529
0.00664647
0.006402
0.00603794
0.00570999
0.00541756
0.005137
0.00485379
0.00455326
0.00417054
0.00368542
0.00309591
0.00243743
0.00184297
0.00135609
0.00104872
0.000899213
0.00127863
0.000978773
0.00351713
0.0125778
0.00961795
0.0069018
0.00640894
0.00647466
0.00633516
0.00625509
0.00634655
0.00664087
0.00707171
0.00749829
0.00776203
0.00776861
0.00754775
0.00726788
0.00716279
0.00732508
0.00755569
0.00762877
0.00750465
0.00723765
0.00687886
0.00646734
0.00604267
0.00566123
0.00532347
0.00501689
0.00473799
0.004491
0.00427391
0.0039669
0.00351965
0.002963
0.00241675
0.00190616
0.00154922
0.00144968
0.00148771
0.00112343
0.00359407
0.0114271
0.00990059
0.00874672
0.00802087
0.00730282
0.00666915
0.0063861
0.00648386
0.00687389
0.00739247
0.00784209
0.00804456
0.00792996
0.00759122
0.00729886
0.00733387
0.00763628
0.00776761
0.00759452
0.00720422
0.00668769
0.00612659
0.00559611
0.00514837
0.00479322
0.0045092
0.00428024
0.00410339
0.00398322
0.00392668
0.00390738
0.00368917
0.00334239
0.0030316
0.00288455
0.00303215
0.00351816
0.00429406
0.00174353
0.00350454
0.00419087
0.00474059
0.00492197
0.00494746
0.00504214
0.00534453
0.00588634
0.00662503
0.00741822
0.00807769
0.0084355
0.00837369
0.00794435
0.00743362
0.00729053
0.0073229
0.00729875
0.00704185
0.00655451
0.00593269
0.00528577
0.00470844
0.00425162
0.00391504
0.00366845
0.00347983
0.00332786
0.00319836
0.00307946
0.00296091
0.00284185
0.00274244
0.00266781
0.00264102
0.00265302
0.00263243
0.0025167
0.00234467
0.00162907
0.0021859
0.00385631
0.00524978
0.0064061
0.00733925
0.00817599
0.00885351
0.00921374
0.00919116
0.00879775
0.00808131
0.00722151
0.00665111
0.00642887
0.00620674
0.00582128
0.00528047
0.00466844
0.00407496
0.00358009
0.00321579
0.00296661
0.00280074
0.00268964
0.00261418
0.00256306
0.00252989
0.00251201
0.00251251
0.00253503
0.00256564
0.00260168
0.00263442
0.00263455
0.00255512
0.00238244
0.00213391
0.00133518
0.00252657
0.00533898
0.00721495
0.00810501
0.0086848
0.00906774
0.00911585
0.00856881
0.0076762
0.00668719
0.00583863
0.00521591
0.00479918
0.0044388
0.00400681
0.00352718
0.00306962
0.0026922
0.00241934
0.00223727
0.00212105
0.00205459
0.00202801
0.00203135
0.00205836
0.00210465
0.00216602
0.00223694
0.0023236
0.00242381
0.00253512
0.00265041
0.00275192
0.00281872
0.00279565
0.00280928
0.00276614
0.00135743
0.00230588
0.00231903
0.00236283
0.00243364
0.00219302
0.00199903
0.00190082
0.00181297
0.00168702
0.0015357
0.00135811
0.00117947
0.00101987
0.000893149
0.000802065
0.000739172
0.000695752
0.000666647
0.000649433
0.0006426
0.000644534
0.000653571
0.00066859
0.000688547
0.000712535
0.000740496
0.000772567
0.000809104
0.000850806
0.00089898
0.000953032
0.00101301
0.00107964
0.00115364
0.00123487
0.00133298
0.00136375
0.00132896
0.0012442
0.00115338
)
;

boundaryField
{
    floor
    {
        type            compressible::alphatWallFunction;
        Prt             0.85;
        value           nonuniform List<scalar> 
29
(
0.000183979
7.45234e-05
9.01532e-05
0.000102145
0.000102783
9.96132e-05
9.51487e-05
8.90457e-05
8.28001e-05
7.7068e-05
7.19441e-05
6.73777e-05
6.32968e-05
5.96463e-05
5.63572e-05
5.3317e-05
5.03782e-05
4.73317e-05
4.5525e-05
4.08683e-05
4.08677e-05
5.81738e-05
6.95235e-05
7.82984e-05
0.000183977
7.45225e-05
7.83331e-05
0.000150608
0.000221884
)
;
    }
    ceiling
    {
        type            compressible::alphatWallFunction;
        Prt             0.85;
        value           nonuniform List<scalar> 
43
(
0.000316663
0.000318236
0.000323841
0.000333003
0.000302194
0.000277076
0.000264261
0.000252733
0.00023609
0.000215908
0.000191931
0.000167451
0.000145218
0.000127275
0.000114194
0.000105059
9.86978e-05
9.44069e-05
9.18586e-05
9.08448e-05
9.11319e-05
9.24722e-05
9.46944e-05
9.76379e-05
0.000101162
0.000105253
0.000109921
0.000115212
0.000121216
0.000128109
0.000135791
0.000144256
0.000153592
0.000163883
0.000175092
0.00018852
0.000192709
0.000187975
0.000176376
0.000163852
0.000467127
0.000550609
0.000344593
)
;
    }
    sWall
    {
        type            compressible::alphatWallFunction;
        Prt             0.85;
        value           uniform 0.00031549;
    }
    nWall
    {
        type            compressible::alphatWallFunction;
        Prt             0.85;
        value           nonuniform List<scalar> 6(0.000133059 0.000139101 0.00015935 0.00018849 0.000191516 0.000163524);
    }
    sideWalls
    {
        type            empty;
    }
    glass1
    {
        type            compressible::alphatWallFunction;
        Prt             0.85;
        value           nonuniform List<scalar> 9(0.000169785 0.000229238 0.00027749 0.000323084 0.000368894 0.000416884 0.000461516 0.000471033 0.000460336);
    }
    glass2
    {
        type            compressible::alphatWallFunction;
        Prt             0.85;
        value           nonuniform List<scalar> 2(0.000241802 0.00022674);
    }
    sun
    {
        type            compressible::alphatWallFunction;
        Prt             0.85;
        value           nonuniform List<scalar> 
14
(
0.000174092
0.000189269
0.000192607
0.000201368
0.000209432
0.000216984
0.000224426
0.000231603
0.000236686
0.000238745
0.000236862
0.000230348
0.000218878
0.000202799
)
;
    }
    heatsource1
    {
        type            compressible::alphatWallFunction;
        Prt             0.85;
        value           nonuniform List<scalar> 3(9.81709e-05 0.000118763 0.000133379);
    }
    heatsource2
    {
        type            compressible::alphatWallFunction;
        Prt             0.85;
        value           nonuniform List<scalar> 4(0.000187009 0.000113961 0.00011396 0.000190684);
    }
    Table_master
    {
        type            compressible::alphatWallFunction;
        Prt             0.85;
        value           nonuniform List<scalar> 9(0.000127912 0.000113213 0.000101093 9.11151e-05 8.28516e-05 7.59541e-05 7.01606e-05 6.53011e-05 6.13072e-05);
    }
    Table_slave
    {
        type            compressible::alphatWallFunction;
        Prt             0.85;
        value           nonuniform List<scalar> 9(0.0001446 0.000132654 0.000124095 0.00011755 0.000111907 0.000106553 0.000101357 9.58234e-05 8.93018e-05);
    }
    inlet
    {
        type            fixedValue;
        value           uniform 1.94e-05;
    }
    outlet
    {
        type            zeroGradient;
    }
}


// ************************************************************************* //
