/*--------------------------------*- C++ -*----------------------------------*\
  =========                 |
  \\      /  F ield         | OpenFOAM: The Open Source CFD Toolbox
   \\    /   O peration     | Website:  https://openfoam.org
    \\  /    A nd           | Version:  6
     \\/     M anipulation  |
\*---------------------------------------------------------------------------*/
FoamFile
{
    version     2.0;
    format      ascii;
    class       volScalarField;
    location    "100";
    object      epsilon;
}
// * * * * * * * * * * * * * * * * * * * * * * * * * * * * * * * * * * * * * //

dimensions      [0 2 -3 0 0 0 0];

internalField   nonuniform List<scalar> 
459
(
0.00119652
0.00171171
0.00197929
0.00243746
0.00301799
0.00352431
0.00382748
0.00349308
0.00300723
0.00251493
0.00205801
0.00165834
0.00133575
0.00104004
0.000755129
0.000127253
0.000207711
0.00033516
0.000453163
0.000492118
0.000464037
0.00038224
0.00030588
0.000246863
0.000202393
0.000168599
0.000142558
0.00012208
0.000105645
9.20845e-05
8.02341e-05
6.89354e-05
5.69209e-05
4.24447e-05
0.0024736
0.0029192
0.00160499
0.00174695
0.00215134
0.00249887
0.00262496
0.00241733
0.00201315
0.00162494
0.0013086
0.00107866
0.000920875
0.000796007
0.000658965
0.000878052
0.000563313
0.000118332
0.000163152
0.000275076
0.000330717
0.000350229
0.000350403
0.000373208
0.000305159
0.000239001
0.000187061
0.000148011
0.000118942
9.71062e-05
8.03822e-05
6.74784e-05
5.94239e-05
5.57496e-05
5.55737e-05
5.05051e-05
0.00407315
0.00578761
0.00206455
0.002003
0.00242467
0.00261262
0.00258493
0.00240634
0.00201594
0.00158516
0.00123357
0.000982826
0.000810304
0.000686885
0.000582502
0.00058432
0.000679476
0.00012115
0.000245606
0.000309249
0.000354216
0.000372518
0.00039807
0.000916371
0.000596016
0.000398979
0.000276766
0.000199011
0.000148114
0.00011394
9.12489e-05
7.79195e-05
5.94501e-05
5.087e-05
5.2721e-05
5.26923e-05
0.00613296
0.0107921
0.00326039
0.0026788
0.0029934
0.00289159
0.00275722
0.00256947
0.00213212
0.00161571
0.00119915
0.000916945
0.000733124
0.0006121
0.00052761
0.00049559
0.000534176
0.000770562
0.000523987
0.000445871
0.00043775
0.000448511
0.000450211
0.000480855
0.00136854
0.00103402
0.000812547
0.000649885
0.000518906
0.000407923
0.00031163
0.0002273
0.000151498
7.23974e-05
4.72881e-05
4.81295e-05
5.32179e-05
0.0087409
0.0178914
0.00578893
0.00412859
0.00389746
0.00339572
0.00318375
0.00292594
0.00236479
0.00169449
0.00116887
0.000837933
0.000649683
0.000547432
0.00049408
0.000480869
0.000538962
0.00065453
0.000625782
0.000612991
0.000617895
0.000611115
0.000579691
0.000539438
0.00055478
0.000527772
0.000493739
0.000448726
0.000391416
0.000325468
0.000255369
0.000185905
0.000118201
6.0872e-05
4.1125e-05
4.29294e-05
4.69112e-05
4.85383e-05
5.21163e-05
5.51189e-05
0.0118897
0.0254879
0.0107588
0.00665221
0.00504033
0.00418815
0.00383533
0.00344952
0.0026828
0.00178037
0.00111011
0.000733151
0.000567746
0.000508359
0.000502679
0.000540491
0.000638554
0.000742929
0.000805295
0.000838527
0.000833293
0.000784368
0.000703104
0.000611236
0.000537188
0.000479864
0.000431645
0.000380066
0.000321401
0.000258036
0.000193908
0.000132885
8.32073e-05
4.85854e-05
3.92653e-05
4.25096e-05
4.69648e-05
5.69537e-05
0.000206096
0.000146986
0.0140866
0.0293993
0.0164889
0.00946332
0.00644633
0.00519497
0.00467431
0.00410297
0.00301952
0.00179363
0.000983778
0.000631246
0.00053596
0.00052985
0.000574116
0.000659554
0.000788119
0.00091452
0.000996329
0.00100639
0.000952465
0.000851428
0.000726344
0.000599493
0.000490807
0.000414875
0.000356188
0.00029963
0.000242412
0.000187105
0.000137354
9.6292e-05
6.6412e-05
4.91051e-05
4.91888e-05
5.73622e-05
6.83558e-05
9.48333e-05
0.000298751
0.000231972
0.0139877
0.0259822
0.0162327
0.0104926
0.00752965
0.00624505
0.00561598
0.00478201
0.00320073
0.00155835
0.000847437
0.000632709
0.000594277
0.000624224
0.000695693
0.000800911
0.000932916
0.00103908
0.00107631
0.00103333
0.000921112
0.000776794
0.000630311
0.000503871
0.000407425
0.00033666
0.000279174
0.000227179
0.000179649
0.000138585
0.000106411
8.50048e-05
7.55926e-05
7.92609e-05
9.67658e-05
0.000130839
0.000216911
0.000492201
0.0023318
0.000342162
0.0124137
0.0180009
0.013767
0.0099789
0.00788111
0.00706323
0.00639116
0.00510099
0.00262825
0.00125104
0.000827851
0.000720759
0.000721038
0.000766705
0.000838518
0.000924187
0.0010044
0.00104171
0.00101238
0.000922646
0.000795412
0.000660627
0.000538757
0.00043938
0.000362593
0.00030232
0.000251813
0.000207636
0.000169528
0.00013885
0.000118208
0.000112757
0.000131511
0.0001823
0.00026305
0.000376157
0.000543367
0.000757041
0.000942103
0.000478667
0.00174725
0.00412116
0.00672096
0.00708428
0.00516837
0.00281592
0.00152943
0.00106588
0.000924363
0.000901475
0.000924043
0.000965345
0.00101199
0.00105081
0.00106546
0.00103986
0.000972797
0.000878839
0.000777394
0.000683839
0.000605225
0.000542276
0.000492161
0.000450875
0.000415241
0.000383342
0.000353788
0.000325122
0.000296451
0.000269802
0.000253161
0.000260041
0.00030334
0.000389573
0.000516049
0.000655157
0.000713311
0.000653644
0.00313821
0.0160602
0.0107287
0.00624589
0.00330174
0.00193795
0.0014128
0.00124038
0.00119946
0.0012072
0.00123313
0.00126553
0.0012981
0.00132453
0.00133743
0.00133039
0.00130189
0.00125667
0.00120254
0.00114718
0.00109608
0.00105251
0.00101819
0.00099379
0.000978881
0.000971962
0.00097007
0.000968147
0.000958977
0.000934558
0.000888434
0.000817225
0.000725553
0.000636839
0.000575011
0.000607042
0.00102307
0.000925115
0.00271171
0.00336318
0.00397896
0.00533383
0.00365969
0.00276807
0.00221304
0.00185453
0.00166976
0.00158732
0.00156299
0.00157068
0.00159276
0.00161539
0.00162644
0.00161542
0.00157541
0.00150632
0.00141656
0.00131926
0.00122639
0.00114519
0.00107804
0.00102421
0.000981659
0.000948043
0.000921176
0.000898752
0.000877901
0.000855027
0.000826252
0.000788586
0.000741647
0.000688947
0.000636359
0.000586266
0.000530967
0.00049193
0.000505617
0.000498395
)
;

boundaryField
{
    floor
    {
        Cmu             0.09;
        kappa           0.41;
        E               9.8;
        type            epsilonWallFunction;
        value           nonuniform List<scalar> 
29
(
0.000755129
0.000127253
0.000207711
0.00033516
0.000453163
0.000492118
0.000464037
0.00038224
0.00030588
0.000246863
0.000202393
0.000168599
0.000142558
0.00012208
0.000105645
9.20845e-05
8.02341e-05
6.89354e-05
5.69209e-05
4.24447e-05
4.24447e-05
5.05051e-05
5.26923e-05
5.32179e-05
0.000755129
0.000127253
0.000118332
0.00012115
0.000770562
)
;
    }
    ceiling
    {
        Cmu             0.09;
        kappa           0.41;
        E               9.8;
        type            epsilonWallFunction;
        value           nonuniform List<scalar> 
43
(
0.00271171
0.00336318
0.00397896
0.00533383
0.00365969
0.00276807
0.00221304
0.00185453
0.00166976
0.00158732
0.00156299
0.00157068
0.00159276
0.00161539
0.00162644
0.00161542
0.00157541
0.00150632
0.00141656
0.00131926
0.00122639
0.00114519
0.00107804
0.00102421
0.000981659
0.000948043
0.000921176
0.000898752
0.000877901
0.000855027
0.000826252
0.000788586
0.000741647
0.000688947
0.000636359
0.000586266
0.000530967
0.00049193
0.000505617
0.000498395
0.0124137
0.0180009
0.00313821
)
;
    }
    sWall
    {
        Cmu             0.09;
        kappa           0.41;
        E               9.8;
        type            epsilonWallFunction;
        value           uniform 0.00271171;
    }
    nWall
    {
        Cmu             0.09;
        kappa           0.41;
        E               9.8;
        type            epsilonWallFunction;
        value           nonuniform List<scalar> 6(5.51189e-05 0.000146986 0.000231972 0.000653644 0.000925115 0.000498395);
    }
    sideWalls
    {
        type            empty;
    }
    glass1
    {
        Cmu             0.09;
        kappa           0.41;
        E               9.8;
        type            epsilonWallFunction;
        value           nonuniform List<scalar> 9(0.00119652 0.0024736 0.00407315 0.00613296 0.0087409 0.0118897 0.0140866 0.0139877 0.0124137);
    }
    glass2
    {
        Cmu             0.09;
        kappa           0.41;
        E               9.8;
        type            epsilonWallFunction;
        value           nonuniform List<scalar> 2(0.000342162 0.000478667);
    }
    sun
    {
        Cmu             0.09;
        kappa           0.41;
        E               9.8;
        type            epsilonWallFunction;
        value           nonuniform List<scalar> 
14
(
0.00119652
0.00171171
0.00197929
0.00243746
0.00301799
0.00352431
0.00382748
0.00349308
0.00300723
0.00251493
0.00205801
0.00165834
0.00133575
0.00104004
)
;
    }
    heatsource1
    {
        Cmu             0.09;
        kappa           0.41;
        E               9.8;
        type            epsilonWallFunction;
        value           nonuniform List<scalar> 3(4.85383e-05 5.21163e-05 5.51189e-05);
    }
    heatsource2
    {
        Cmu             0.09;
        kappa           0.41;
        E               9.8;
        type            epsilonWallFunction;
        value           nonuniform List<scalar> 4(0.000878052 0.000563313 0.000563313 0.000679476);
    }
    Table_master
    {
        Cmu             0.09;
        kappa           0.41;
        E               9.8;
        type            epsilonWallFunction;
        value           nonuniform List<scalar> 9(0.000916371 0.000596016 0.000398979 0.000276766 0.000199011 0.000148114 0.00011394 9.12489e-05 7.79195e-05);
    }
    Table_slave
    {
        Cmu             0.09;
        kappa           0.41;
        E               9.8;
        type            epsilonWallFunction;
        value           nonuniform List<scalar> 9(0.00136854 0.00103402 0.000812547 0.000649885 0.000518906 0.000407923 0.00031163 0.0002273 0.000151498);
    }
    inlet
    {
        type            turbulentMixingLengthDissipationRateInlet;
        mixingLength    0.01;
        phi             phi;
        k               k;
        value           uniform 0.000101881;
    }
    outlet
    {
        type            zeroGradient;
    }
}


// ************************************************************************* //
