/*--------------------------------*- C++ -*----------------------------------*\
  =========                 |
  \\      /  F ield         | OpenFOAM: The Open Source CFD Toolbox
   \\    /   O peration     | Website:  https://openfoam.org
    \\  /    A nd           | Version:  6
     \\/     M anipulation  |
\*---------------------------------------------------------------------------*/
FoamFile
{
    version     2.0;
    format      ascii;
    class       volScalarField;
    location    "100";
    object      nut;
}
// * * * * * * * * * * * * * * * * * * * * * * * * * * * * * * * * * * * * * //

dimensions      [0 2 -1 0 0 0 0];

internalField   nonuniform List<scalar> 
459
(
0.00150071
0.00169093
0.00177478
0.00190231
0.00204272
0.00215112
0.00221117
0.00214486
0.00204042
0.00192237
0.00179809
0.00167319
0.00155678
0.00143219
0.00128722
0.00071089
0.00083702
0.000981771
0.00108563
0.00111587
0.00109423
0.00102574
0.000952315
0.000886649
0.000829851
0.000780826
0.000738359
0.000701162
0.000668169
0.000638258
0.00060961
0.000579531
0.000543687
0.000493011
0.00191179
0.0056078
0.00585689
0.00663149
0.00715429
0.00751452
0.00784461
0.00813843
0.00794024
0.00748263
0.00688469
0.00609841
0.00502382
0.00381448
0.00255471
0.00135359
0.00116742
0.00069386
0.00185731
0.00312872
0.00408839
0.00465469
0.00451257
0.003038
0.00247522
0.00212269
0.00187473
0.00169152
0.00155216
0.00144551
0.00135206
0.00124362
0.00113326
0.00102732
0.000922443
0.000522434
0.00225759
0.00792573
0.0075781
0.0079107
0.00788453
0.00776817
0.0080609
0.00869291
0.00893596
0.00879531
0.00842281
0.00786059
0.00694391
0.00568164
0.00420043
0.00268781
0.00124271
0.000699365
0.00188077
0.00326618
0.00476079
0.00578342
0.00542345
0.00137284
0.00118947
0.00104052
0.000921102
0.000825207
0.000747827
0.000685211
0.000636311
0.000603674
0.000711426
0.000855001
0.000950338
0.000529873
0.00258758
0.00989434
0.00868849
0.00855984
0.00784975
0.00725453
0.00756569
0.00836447
0.00888554
0.00896893
0.00877494
0.00841738
0.00779611
0.00681357
0.00549961
0.00396798
0.00222969
0.00129591
0.00144524
0.00248369
0.00425069
0.00606218
0.007262
0.00675176
0.00156918
0.00142918
0.00131882
0.00122417
0.00113567
0.00104812
0.000958131
0.00086246
0.000753355
0.000700514
0.000793289
0.000941391
0.000531629
0.00291201
0.0119925
0.0102798
0.00941436
0.00784768
0.00691958
0.00730522
0.00821836
0.00890126
0.00910186
0.00899438
0.0087623
0.00837798
0.00770344
0.00673521
0.00558004
0.00440282
0.00423134
0.00510163
0.00648851
0.00799236
0.00921056
0.00989918
0.00976357
0.00799595
0.00696584
0.00607313
0.00521511
0.00438544
0.00358295
0.00280714
0.00206305
0.00136837
0.000909737
0.000853272
0.000953653
0.000620963
0.000515553
0.000528004
0.000538217
0.00322654
0.0139401
0.0125134
0.0100722
0.00766684
0.00677835
0.00726777
0.00831781
0.00912787
0.00941751
0.00943976
0.00946437
0.00935089
0.00898041
0.00843577
0.00788904
0.00758211
0.00817873
0.00950969
0.0107138
0.0116103
0.0120987
0.0121556
0.0117443
0.0107628
0.00957832
0.00828673
0.00699486
0.00574205
0.00454692
0.00342005
0.00236651
0.00154308
0.00107581
0.00101374
0.00106272
0.00082561
0.00086341
0.00131028
0.000746293
0.00341423
0.014545
0.0134973
0.00959051
0.00715724
0.00658222
0.00736511
0.0086155
0.00953907
0.00995827
0.0103591
0.0108562
0.0109122
0.0107687
0.0106089
0.0106132
0.0109658
0.0118758
0.0129268
0.013584
0.0138467
0.0137293
0.01327
0.0124936
0.0113761
0.0100251
0.00859366
0.00716465
0.00579049
0.00451407
0.00337968
0.0024378
0.00177158
0.00144045
0.00141178
0.0014165
0.0012748
0.00128346
0.00141732
0.00086864
0.00340626
0.0109614
0.0095183
0.00712544
0.00595009
0.00628695
0.00762975
0.00911335
0.0101069
0.0108595
0.0116689
0.0121477
0.0122613
0.0123136
0.0124627
0.0127862
0.013331
0.0140393
0.0145852
0.014728
0.0144827
0.0138927
0.0130234
0.0119315
0.0106737
0.00931909
0.00793418
0.00657927
0.00531069
0.00418442
0.00325406
0.00256228
0.00213073
0.00193774
0.00189932
0.00189084
0.0019409
0.00189581
0.00258969
0.000988558
0.00327341
0.00370519
0.00385902
0.00381369
0.00459783
0.00635032
0.00837623
0.0098322
0.0108983
0.0117207
0.012367
0.0125805
0.0126914
0.0128834
0.0131868
0.0135774
0.0139959
0.0143121
0.0143555
0.0140426
0.0133999
0.0125019
0.0114323
0.0102655
0.00906032
0.00785615
0.00668232
0.00557159
0.0045606
0.00367996
0.00294148
0.00234052
0.00190698
0.00169752
0.00164515
0.00164873
0.00168338
0.00169403
0.00161941
0.00110615
0.000806343
0.00299298
0.0066253
0.00916488
0.0105559
0.0108763
0.0111681
0.0114695
0.0115507
0.0115975
0.0117423
0.0119793
0.0122563
0.0125028
0.0126308
0.0125404
0.0121705
0.0115327
0.0106993
0.00976319
0.00880409
0.00787497
0.00700071
0.00618649
0.0054354
0.00475624
0.00415799
0.00364144
0.00319732
0.00281354
0.00248826
0.00223738
0.00207808
0.00199959
0.00197212
0.00195574
0.0018632
0.00122713
0.00206971
0.00916158
0.0103284
0.0102512
0.00971826
0.00924668
0.00892423
0.00870266
0.00860798
0.00864189
0.00876281
0.00892251
0.0090739
0.00916609
0.00914537
0.00896863
0.00862895
0.00816217
0.00762809
0.00708418
0.00656843
0.00609836
0.00567813
0.00530674
0.00498287
0.00470459
0.00446631
0.00425659
0.00405932
0.00385859
0.0036434
0.00340524
0.0031348
0.00283669
0.00252937
0.00237392
0.00276117
0.00137755
0.00197133
0.00211798
0.00224004
0.00246993
0.0021783
0.0019847
0.00184203
0.00173663
0.0016769
0.00164881
0.00164033
0.001643
0.00165066
0.00165843
0.0016622
0.00165844
0.00164463
0.00162023
0.00158738
0.00155018
0.00151291
0.00147875
0.00144926
0.00142471
0.00140468
0.00138844
0.00137516
0.00136387
0.00135321
0.00134132
0.00132609
0.00130566
0.00127932
0.0012484
0.00121593
0.00118325
0.00114484
0.00111616
0.0011263
0.00112068
)
;

boundaryField
{
    floor
    {
        type            nutkWallFunction;
        Cmu             0.09;
        kappa           0.41;
        E               9.8;
        value           nonuniform List<scalar> 
29
(
0.000154032
8.60778e-05
0.000101378
0.000118606
0.000130785
0.000134308
0.000131789
0.000123781
0.000115125
0.000107319
0.000100513
9.45942e-05
8.94317e-05
8.48808e-05
8.08202e-05
7.71181e-05
7.35524e-05
6.97868e-05
6.52679e-05
5.88155e-05
5.88154e-05
6.25707e-05
6.35154e-05
6.3738e-05
0.000154032
8.60778e-05
8.39896e-05
8.4662e-05
0.000155031
)
;
    }
    ceiling
    {
        type            nutkWallFunction;
        Cmu             0.09;
        kappa           0.41;
        E               9.8;
        value           nonuniform List<scalar> 
43
(
0.000230313
0.000246255
0.000259435
0.000284162
0.00025292
0.000231908
0.000216278
0.000204647
0.000198024
0.000194902
0.000193959
0.000194259
0.000195113
0.000195981
0.000196402
0.000195984
0.000194448
0.000191728
0.000188059
0.000183891
0.000179707
0.000175861
0.000172533
0.000169758
0.00016749
0.000165649
0.000164144
0.000162863
0.000161652
0.0001603
0.000158564
0.000156227
0.000153203
0.000149644
0.000145896
0.000142116
0.000137667
0.000134329
0.00013552
0.000134891
0.000368504
0.0004129
0.000240706
)
;
    }
    sWall
    {
        type            nutkWallFunction;
        Cmu             0.09;
        kappa           0.41;
        E               9.8;
        value           uniform 0.000230371;
    }
    nWall
    {
        type            nutkWallFunction;
        Cmu             0.09;
        kappa           0.41;
        E               9.8;
        value           nonuniform List<scalar> 6(6.45311e-05 9.03632e-05 0.000105155 0.000147169 0.000164382 0.000134898);
    }
    sideWalls
    {
        type            empty;
    }
    glass1
    {
        type            nutkWallFunction;
        Cmu             0.09;
        kappa           0.41;
        E               9.8;
        value           nonuniform List<scalar> 9(0.000178455 0.000224133 0.000261722 0.000297023 0.000331269 0.000364092 0.000383522 0.00038271 0.000368984);
    }
    glass2
    {
        type            nutkWallFunction;
        Cmu             0.09;
        kappa           0.41;
        E               9.8;
        value           nonuniform List<scalar> 2(0.000119431 0.00013317);
    }
    sun
    {
        type            nutkWallFunction;
        Cmu             0.09;
        kappa           0.41;
        E               9.8;
        value           nonuniform List<scalar> 
14
(
0.000178224
0.000199459
0.00020874
0.000222764
0.000238086
0.000249837
0.000256317
0.000249161
0.000237838
0.000224965
0.000211317
0.000197501
0.00018452
0.000170507
)
;
    }
    heatsource1
    {
        type            nutkWallFunction;
        Cmu             0.09;
        kappa           0.41;
        E               9.8;
        value           nonuniform List<scalar> 3(6.16953e-05 6.32697e-05 6.45376e-05);
    }
    heatsource2
    {
        type            nutkWallFunction;
        Cmu             0.09;
        kappa           0.41;
        E               9.8;
        value           nonuniform List<scalar> 4(0.000161596 0.000140256 0.000140256 0.00014893);
    }
    Table_master
    {
        type            nutkWallFunction;
        Cmu             0.09;
        kappa           0.41;
        E               9.8;
        value           nonuniform List<scalar> 9(0.00016382 0.000142829 0.000125511 0.000111421 9.99534e-05 9.0586e-05 8.29219e-05 7.68784e-05 7.28139e-05);
    }
    Table_slave
    {
        type            nutkWallFunction;
        Cmu             0.09;
        kappa           0.41;
        E               9.8;
        value           nonuniform List<scalar> 9(0.000185962 0.000170219 0.000157687 0.000146845 0.000136622 0.000126418 0.000115827 0.00010444 9.12694e-05);
    }
    inlet
    {
        type            calculated;
        value           uniform 0.000100623;
    }
    outlet
    {
        type            calculated;
        value           nonuniform List<scalar> 2(0.00197133 0.00211798);
    }
}


// ************************************************************************* //
