// -*- C++ -*-
// File generated by PyFoam - sorry for the ugliness

FoamFile
{
 version 2.0;
 format ascii;
 class volScalarField;
 location "100";
 object T;
}

dimensions [ 0 0 0 1 0 0 0 ];

internalField nonuniform List<scalar> 459
(
  302.736
  302.481
  302.465
  302.46
  302.458
  302.464
  302.499
  302.647
  302.725
  302.778
  302.812
  302.833
  302.851
  302.867
  302.885
  303.903
  303.818
  303.751
  303.744
  303.79
  303.832
  303.871
  303.908
  303.945
  303.983
  304.02
  304.058
  304.095
  304.134
  304.172
  304.213
  304.259
  304.316
  304.405
  302.874
  302.492
  302.447
  302.432
  302.423
  302.416
  302.472
  302.656
  302.795
  302.89
  302.943
  302.964
  302.967
  302.955
  302.934
  302.944
  302.957
  303.93
  303.781
  303.655
  303.671
  303.729
  303.79
  303.832
  303.872
  303.913
  303.955
  303.998
  304.041
  304.084
  304.128
  304.172
  304.217
  304.267
  304.328
  304.418
  303.026
  302.532
  302.463
  302.441
  302.417
  302.372
  302.436
  302.662
  302.872
  303.018
  303.095
  303.115
  303.105
  303.072
  303.027
  303.004
  302.99
  303.894
  303.605
  303.554
  303.617
  303.719
  303.812
  303.839
  303.874
  303.915
  303.96
  304.008
  304.059
  304.111
  304.164
  304.213
  304.26
  304.306
  304.359
  304.438
  303.186
  302.6
  302.517
  302.497
  302.447
  302.334
  302.398
  302.664
  302.957
  303.168
  303.275
  303.298
  303.269
  303.212
  303.142
  303.087
  303.043
  303.063
  303.158
  303.267
  303.432
  303.62
  303.795
  303.936
  304.046
  304.133
  304.211
  304.285
  304.359
  304.431
  304.506
  304.587
  304.667
  304.506
  304.43
  304.42
  304.465
  303.348
  302.698
  302.612
  302.611
  302.499
  302.301
  302.359
  302.671
  303.054
  303.341
  303.483
  303.508
  303.458
  303.373
  303.282
  303.21
  303.164
  303.19
  303.282
  303.445
  303.648
  303.857
  304.045
  304.2
  304.33
  304.432
  304.515
  304.584
  304.642
  304.692
  304.738
  304.78
  304.804
  304.671
  304.539
  304.487
  304.496
  304.561
  304.705
  304.958
  303.508
  302.827
  302.748
  302.756
  302.522
  302.268
  302.323
  302.697
  303.181
  303.548
  303.72
  303.741
  303.665
  303.56
  303.463
  303.398
  303.382
  303.457
  303.613
  303.812
  304.023
  304.223
  304.393
  304.528
  304.637
  304.721
  304.781
  304.829
  304.867
  304.898
  304.921
  304.933
  304.916
  304.796
  304.651
  304.578
  304.559
  304.611
  304.703
  304.906
  303.689
  303.013
  302.959
  302.887
  302.494
  302.18
  302.288
  302.766
  303.368
  303.809
  303.988
  303.988
  303.902
  303.802
  303.725
  303.698
  303.74
  303.875
  304.07
  304.271
  304.465
  304.633
  304.767
  304.87
  304.946
  304.991
  305.022
  305.045
  305.063
  305.072
  305.072
  305.06
  305.023
  304.935
  304.813
  304.723
  304.68
  304.718
  304.771
  304.887
  303.921
  303.426
  303.375
  302.963
  302.296
  301.986
  302.273
  302.933
  303.674
  304.155
  304.282
  304.261
  304.196
  304.135
  304.105
  304.127
  304.221
  304.387
  304.581
  304.757
  304.913
  305.035
  305.124
  305.18
  305.21
  305.226
  305.235
  305.239
  305.239
  305.232
  305.218
  305.196
  305.164
  305.114
  305.044
  304.947
  304.9
  304.966
  304.978
  305.025
  304.267
  304.014
  303.768
  302.508
  301.577
  301.623
  302.414
  303.351
  304.217
  304.54
  304.609
  304.593
  304.567
  304.557
  304.579
  304.645
  304.759
  304.911
  305.068
  305.203
  305.306
  305.376
  305.417
  305.437
  305.443
  305.442
  305.438
  305.431
  305.421
  305.408
  305.393
  305.377
  305.355
  305.32
  305.276
  305.247
  305.261
  305.308
  305.347
  305.468
  294.76
  296.138
  298.992
  301.478
  303.494
  304.435
  304.815
  304.938
  304.971
  304.982
  304.995
  305.025
  305.078
  305.157
  305.259
  305.373
  305.478
  305.562
  305.62
  305.654
  305.67
  305.673
  305.669
  305.661
  305.652
  305.642
  305.63
  305.616
  305.597
  305.572
  305.534
  305.48
  305.423
  305.384
  305.381
  305.415
  305.479
  305.844
  296.768
  300.693
  302.852
  304.124
  304.831
  305.144
  305.27
  305.33
  305.366
  305.397
  305.433
  305.478
  305.534
  305.601
  305.674
  305.745
  305.806
  305.851
  305.879
  305.893
  305.897
  305.894
  305.888
  305.88
  305.87
  305.859
  305.846
  305.828
  305.804
  305.77
  305.723
  305.664
  305.597
  305.538
  305.5
  305.524
  305.631
  305.83
  302.92
  302.823
  302.782
  304.43
  305.174
  305.466
  305.61
  305.695
  305.75
  305.794
  305.831
  305.866
  305.9
  305.935
  305.971
  306.008
  306.043
  306.073
  306.097
  306.112
  306.12
  306.122
  306.12
  306.115
  306.109
  306.101
  306.092
  306.08
  306.065
  306.046
  306.021
  305.989
  305.948
  305.899
  305.843
  305.788
  305.751
  305.806
  306
  306.276
)
;

boundaryField
{
  floor
  {
    type wallHeatTransfer;
    Tinf uniform 305.2;
    alphaWall uniform 0.24;
    value nonuniform List<scalar> 29
(
  303.099
  304.089
  303.994
  303.916
  303.898
  303.935
  303.975
  304.017
  304.058
  304.099
  304.139
  304.179
  304.218
  304.256
  304.294
  304.332
  304.371
  304.415
  304.469
  304.552
  304.552
  304.557
  304.572
  304.595
  303.099
  304.089
  304.116
  304.084
  303.259
)
;
  }
  ceiling
  {
    type wallHeatTransfer;
    Tinf uniform 303.2;
    alphaWall uniform 0.24;
    value nonuniform List<scalar> 43
(
  302.94
  302.847
  302.808
  304.363
  305.054
  305.317
  305.442
  305.512
  305.558
  305.596
  305.63
  305.662
  305.694
  305.727
  305.761
  305.795
  305.826
  305.851
  305.869
  305.878
  305.881
  305.879
  305.873
  305.865
  305.857
  305.847
  305.837
  305.825
  305.81
  305.791
  305.766
  305.733
  305.692
  305.643
  305.587
  305.533
  305.493
  305.537
  305.712
  305.959
  304.22
  303.982
  297.169
)
;
  }
  sWall
  {
    type wallHeatTransfer;
    Tinf uniform 315.2;
    alphaWall uniform 0.36;
    value uniform 304.098;
  }
  nWall
  {
    type wallHeatTransfer;
    Tinf uniform 307.2;
    alphaWall uniform 0.36;
    value nonuniform List<scalar> 6
(
  305.499
  305.355
  305.294
  306.032
  306.003
  306.413
)
;
  }
  sideWalls
  {
    type empty;
  }
  glass1
  {
    type wallHeatTransfer;
    Tinf uniform 315.2;
    alphaWall uniform 4.3;
    value nonuniform List<scalar> 9
(
  310.46
  309.891
  309.52
  309.238
  309.012
  308.833
  308.79
  308.926
  309.215
)
;
  }
  glass2
  {
    type wallHeatTransfer;
    Tinf uniform 307.2;
    alphaWall uniform 4.3;
    value nonuniform List<scalar> 2
(
  306.541
  306.64
)
;
  }
  sun
  {
    type wallHeatTransfer;
    Tinf uniform 305.2;
    alphaWall uniform 0.24;
    value nonuniform List<scalar> 14
(
  302.937
  302.683
  302.66
  302.646
  302.633
  302.632
  302.661
  302.804
  302.883
  302.941
  302.982
  303.011
  303.038
  303.065
)
;
  }
  heatsource1
  {
    type fixedGradient;
    gradient uniform 0;
  }
  heatsource2
  {
    type fixedGradient;
    gradient uniform 0;
  }
  Table_master
  {
    type zeroGradient;
  }
  Table_slave
  {
    type zeroGradient;
  }
  inlet
  {
    type fixedValue;
    value uniform 293.15;
  }
  outlet
  {
    type zeroGradient;
  }
} 	// ************************************************************************* //

