/*--------------------------------*- C++ -*----------------------------------*\
  =========                 |
  \\      /  F ield         | OpenFOAM: The Open Source CFD Toolbox
   \\    /   O peration     | Website:  https://openfoam.org
    \\  /    A nd           | Version:  6
     \\/     M anipulation  |
\*---------------------------------------------------------------------------*/
FoamFile
{
    version     2.0;
    format      ascii;
    class       volScalarField;
    location    "1400";
    object      epsilon;
}
// * * * * * * * * * * * * * * * * * * * * * * * * * * * * * * * * * * * * * //

dimensions      [0 2 -3 0 0 0 0];

internalField   nonuniform List<scalar> 
459
(
0.000427306
0.000553556
0.000585717
0.000673612
0.000762549
0.000853341
0.000950463
0.00104972
0.0011233
0.00115229
0.00112051
0.0010222
0.000865591
0.00067517
0.00049019
3.4631e-05
5.8502e-05
8.42577e-05
8.67701e-05
7.93177e-05
6.94812e-05
5.72469e-05
4.63691e-05
3.77742e-05
3.11253e-05
2.59533e-05
2.18856e-05
1.86505e-05
1.60487e-05
1.389e-05
1.20138e-05
1.02768e-05
9.35021e-06
7.23791e-06
0.00107835
0.0015778
0.000520226
0.000503712
0.000526367
0.000566004
0.00062702
0.000708005
0.000785357
0.000833375
0.000831731
0.000774818
0.000671208
0.000543362
0.000437938
0.00051694
0.000123956
3.91894e-05
9.2059e-05
0.000103214
9.68566e-05
8.45375e-05
7.20927e-05
6.58621e-05
5.30907e-05
4.17582e-05
3.28551e-05
2.60499e-05
2.08691e-05
1.69129e-05
1.39069e-05
1.16954e-05
1.03105e-05
9.70295e-06
2.58067e-05
1.73257e-05
0.00196361
0.00387896
0.00063862
0.000477228
0.000498217
0.000558915
0.000651466
0.00076914
0.000877404
0.000941791
0.000944758
0.000887603
0.000781976
0.000653669
0.000534501
0.000475584
0.000565742
0.000257704
0.000204523
0.000163639
0.000131662
0.000106574
9.11535e-05
0.000165944
0.0001145
8.15726e-05
6.00481e-05
4.55746e-05
3.55604e-05
2.84542e-05
2.33291e-05
1.96391e-05
1.49566e-05
1.25651e-05
4.97794e-05
2.79509e-05
0.00317933
0.00807258
0.00100632
0.000479105
0.000483125
0.000568291
0.00070796
0.000883799
0.00102136
0.00108758
0.00107881
0.00100626
0.000880611
0.00073359
0.000603929
0.0005194
0.000499975
0.000904267
0.000522964
0.000321672
0.000219357
0.000160649
0.000123904
0.000106365
0.000241355
0.000183815
0.000148749
0.000125279
0.000107427
9.24803e-05
7.94964e-05
6.72154e-05
5.46302e-05
3.25776e-05
2.13171e-05
8.45226e-05
3.8897e-05
0.00485393
0.0144444
0.00198961
0.000559035
0.000485215
0.000598453
0.00085048
0.00111403
0.00126029
0.00130279
0.00126128
0.00115391
0.000995163
0.000811208
0.000633753
0.000488761
0.000389928
0.000348285
0.000285992
0.000229697
0.000184428
0.00014881
0.00012103
0.00010148
9.71409e-05
9.01244e-05
8.34615e-05
7.70146e-05
7.02719e-05
6.30306e-05
5.57639e-05
4.88407e-05
4.25096e-05
3.41231e-05
2.6543e-05
5.95733e-05
4.612e-05
7.47605e-05
0.000130505
0.000184893
0.00718767
0.0215191
0.00449558
0.00104306
0.000681348
0.000797187
0.00130476
0.00157028
0.0016474
0.00162013
0.00152339
0.00136517
0.00115291
0.00091151
0.000677514
0.00048556
0.000354135
0.000280515
0.000236014
0.000200457
0.000167942
0.000139412
0.000116062
9.91339e-05
9.01211e-05
8.59615e-05
8.35724e-05
8.10414e-05
7.72533e-05
7.12922e-05
6.27151e-05
5.35406e-05
4.50893e-05
3.76398e-05
3.32465e-05
4.4786e-05
4.79018e-05
5.7807e-05
0.000241341
0.000211458
0.00996939
0.0257768
0.00939192
0.00345376
0.00221881
0.00220278
0.00240886
0.00238298
0.00225178
0.00208312
0.00188425
0.00164021
0.00134694
0.00102946
0.000729926
0.000492201
0.000337207
0.000253767
0.000209314
0.000177449
0.000149241
0.000125294
0.000107122
9.56376e-05
9.1031e-05
9.12835e-05
9.359e-05
9.63343e-05
9.84875e-05
9.85821e-05
9.37121e-05
8.36625e-05
7.33263e-05
6.46853e-05
6.19812e-05
6.9621e-05
8.67118e-05
0.000130746
0.000318814
0.000307051
0.0106539
0.0287278
0.0156193
0.0099576
0.00707993
0.00547686
0.00434225
0.00357949
0.00306133
0.00267603
0.00233021
0.00196102
0.00154976
0.00112955
0.000748573
0.000464316
0.000295749
0.000212968
0.00017266
0.000145443
0.000123508
0.000107153
9.6891e-05
9.2636e-05
9.37559e-05
9.89463e-05
0.000107002
0.000117592
0.000130913
0.000147063
0.000165386
0.000180507
0.00019127
0.000212891
0.000256635
0.000375645
0.000648417
0.00118854
0.0040424
0.00108209
0.00990497
0.0168651
0.0135335
0.0102244
0.00780472
0.00615607
0.00504264
0.00428247
0.00373451
0.00326953
0.00278853
0.00224547
0.00165262
0.00109643
0.000620484
0.000332409
0.000211896
0.000158237
0.000129846
0.00011084
9.72534e-05
8.88248e-05
8.53519e-05
8.64076e-05
9.14611e-05
0.000100071
0.000112251
0.000128725
0.000150901
0.000180871
0.000221457
0.000276335
0.000352344
0.000462758
0.000626357
0.000851892
0.00112043
0.00137574
0.00157491
0.000869513
0.00493566
0.00663813
0.00669417
0.00620417
0.0055314
0.00488878
0.00424647
0.00353966
0.0027573
0.00192086
0.0010538
0.000560234
0.000300229
0.000179781
0.000126797
0.000100478
8.52504e-05
7.55967e-05
6.98283e-05
6.72778e-05
6.75777e-05
7.04396e-05
7.56882e-05
8.3406e-05
9.4016e-05
0.000108344
0.0001277
0.000154047
0.000190402
0.000241701
0.000313392
0.000413183
0.000548326
0.000716032
0.000893306
0.00103864
0.000980054
0.000443097
0.00340782
0.00672795
0.00665552
0.00536006
0.00453031
0.00385227
0.002998
0.0020945
0.00133107
0.000779248
0.000430281
0.000242951
0.000148734
0.000104294
8.30385e-05
7.19147e-05
6.57068e-05
6.24359e-05
6.13308e-05
6.20056e-05
6.42335e-05
6.79154e-05
7.31701e-05
8.03093e-05
8.97948e-05
0.000102338
0.00011906
0.000141688
0.000172733
0.000215442
0.000274299
0.000354178
0.000456976
0.000575424
0.000690306
0.000839169
0.000463261
0.000473733
0.00216832
0.00253182
0.00282532
0.00312935
0.00233662
0.00181521
0.00159785
0.00139224
0.00112527
0.000845291
0.00058818
0.000391031
0.000258637
0.000178066
0.000131629
0.000104222
8.69664e-05
7.56628e-05
6.84599e-05
6.4446e-05
6.30039e-05
6.36674e-05
6.61478e-05
7.03547e-05
7.64258e-05
8.44458e-05
9.46707e-05
0.000107635
0.000124153
0.000145545
0.000172605
0.00020664
0.000249557
0.000303684
0.000371042
0.000453401
0.000471667
0.000336579
0.000287835
0.00047722
)
;

boundaryField
{
    floor
    {
        Cmu             0.09;
        kappa           0.41;
        E               9.8;
        type            epsilonWallFunction;
        value           nonuniform List<scalar> 
29
(
0.00049019
3.4631e-05
5.8502e-05
8.42577e-05
8.67701e-05
7.93177e-05
6.94812e-05
5.72469e-05
4.63691e-05
3.77742e-05
3.11253e-05
2.59533e-05
2.18856e-05
1.86505e-05
1.60487e-05
1.389e-05
1.20138e-05
1.02768e-05
9.35021e-06
7.23791e-06
7.23791e-06
1.73257e-05
2.79509e-05
3.8897e-05
0.00049019
3.4631e-05
3.91894e-05
0.000257704
0.000904267
)
;
    }
    ceiling
    {
        Cmu             0.09;
        kappa           0.41;
        E               9.8;
        type            epsilonWallFunction;
        value           nonuniform List<scalar> 
43
(
0.00216832
0.00253182
0.00282532
0.00312935
0.00233662
0.00181521
0.00159785
0.00139224
0.00112527
0.000845291
0.00058818
0.000391031
0.000258637
0.000178066
0.000131629
0.000104222
8.69664e-05
7.56628e-05
6.84599e-05
6.4446e-05
6.30039e-05
6.36674e-05
6.61478e-05
7.03547e-05
7.64258e-05
8.44458e-05
9.46707e-05
0.000107635
0.000124153
0.000145545
0.000172605
0.00020664
0.000249557
0.000303684
0.000371042
0.000453401
0.000471667
0.000336579
0.000287835
0.00047722
0.00990497
0.0168651
0.00340782
)
;
    }
    sWall
    {
        Cmu             0.09;
        kappa           0.41;
        E               9.8;
        type            epsilonWallFunction;
        value           uniform 0.00216832;
    }
    nWall
    {
        Cmu             0.09;
        kappa           0.41;
        E               9.8;
        type            epsilonWallFunction;
        value           nonuniform List<scalar> 6(0.000184893 0.000211458 0.000307051 0.000443097 0.000473733 0.00047722);
    }
    sideWalls
    {
        type            empty;
    }
    glass1
    {
        Cmu             0.09;
        kappa           0.41;
        E               9.8;
        type            epsilonWallFunction;
        value           nonuniform List<scalar> 9(0.000427306 0.00107835 0.00196361 0.00317933 0.00485393 0.00718767 0.00996939 0.0106539 0.00990497);
    }
    glass2
    {
        Cmu             0.09;
        kappa           0.41;
        E               9.8;
        type            epsilonWallFunction;
        value           nonuniform List<scalar> 2(0.00108209 0.000869513);
    }
    sun
    {
        Cmu             0.09;
        kappa           0.41;
        E               9.8;
        type            epsilonWallFunction;
        value           nonuniform List<scalar> 
14
(
0.000427306
0.000553556
0.000585717
0.000673612
0.000762549
0.000853341
0.000950463
0.00104972
0.0011233
0.00115229
0.00112051
0.0010222
0.000865591
0.00067517
)
;
    }
    heatsource1
    {
        Cmu             0.09;
        kappa           0.41;
        E               9.8;
        type            epsilonWallFunction;
        value           nonuniform List<scalar> 3(7.47605e-05 0.000130505 0.000184893);
    }
    heatsource2
    {
        Cmu             0.09;
        kappa           0.41;
        E               9.8;
        type            epsilonWallFunction;
        value           nonuniform List<scalar> 4(0.00051694 0.000123956 0.000123956 0.000565742);
    }
    Table_master
    {
        Cmu             0.09;
        kappa           0.41;
        E               9.8;
        type            epsilonWallFunction;
        value           nonuniform List<scalar> 9(0.000165944 0.0001145 8.15726e-05 6.00481e-05 4.55746e-05 3.55604e-05 2.84542e-05 2.33291e-05 1.96391e-05);
    }
    Table_slave
    {
        Cmu             0.09;
        kappa           0.41;
        E               9.8;
        type            epsilonWallFunction;
        value           nonuniform List<scalar> 9(0.000241355 0.000183815 0.000148749 0.000125279 0.000107427 9.24803e-05 7.94964e-05 6.72154e-05 5.46302e-05);
    }
    inlet
    {
        type            turbulentMixingLengthDissipationRateInlet;
        mixingLength    0.01;
        phi             phi;
        k               k;
        value           uniform 0.000101881;
    }
    outlet
    {
        type            zeroGradient;
    }
}


// ************************************************************************* //
