/*--------------------------------*- C++ -*----------------------------------*\
  =========                 |
  \\      /  F ield         | OpenFOAM: The Open Source CFD Toolbox
   \\    /   O peration     | Website:  https://openfoam.org
    \\  /    A nd           | Version:  6
     \\/     M anipulation  |
\*---------------------------------------------------------------------------*/
FoamFile
{
    version     2.0;
    format      ascii;
    class       volScalarField;
    location    "1400";
    object      nut;
}
// * * * * * * * * * * * * * * * * * * * * * * * * * * * * * * * * * * * * * //

dimensions      [0 2 -1 0 0 0 0];

internalField   nonuniform List<scalar> 
459
(
0.00106486
0.00116082
0.00118288
0.00123932
0.00129162
0.00134097
0.00139003
0.00143682
0.00146964
0.00148217
0.00146842
0.00142415
0.00134736
0.00124027
0.00111472
0.000460822
0.000548827
0.000619795
0.000625896
0.000607438
0.000581211
0.000544873
0.000507911
0.000474362
0.000444716
0.000418578
0.000395456
0.000374923
0.000356609
0.000339844
0.000323796
0.000307372
0.000297842
0.000273474
0.00144977
0.00343036
0.00324574
0.00376462
0.00427374
0.00478464
0.0052289
0.00557546
0.00589739
0.00616497
0.00634171
0.00639026
0.00626548
0.00585993
0.00472076
0.00113464
0.000704912
0.000480214
0.00100951
0.00141274
0.00171667
0.00189575
0.00190288
0.00150142
0.00128731
0.00113539
0.00101953
0.000928054
0.000853997
0.000791721
0.000733993
0.00067829
0.000628826
0.000585212
0.0007005
0.000365827
0.00177037
0.00465318
0.00395649
0.00492432
0.00537026
0.00569653
0.00595303
0.00618007
0.00644254
0.00672586
0.00699712
0.00720665
0.00730927
0.00722889
0.00674434
0.00517571
0.00116928
0.000899675
0.00130871
0.00170262
0.00208516
0.00236887
0.00234077
0.000776901
0.00068651
0.00061314
0.00055362
0.000504994
0.000464908
0.000431612
0.000403966
0.000381434
0.000410301
0.000470806
0.000793558
0.000429053
0.00207885
0.00595585
0.00390621
0.00513931
0.005474
0.0055586
0.00563254
0.00576527
0.00598705
0.00628215
0.00661967
0.00692923
0.00716222
0.00725304
0.00715212
0.00659412
0.00442024
0.00136713
0.00163129
0.00207215
0.00255566
0.00298624
0.0032821
0.0031285
0.000880232
0.000803844
0.000749084
0.00070741
0.000672073
0.000639335
0.000607894
0.000574824
0.000536442
0.000503894
0.000508827
0.000929035
0.000479016
0.00239374
0.00765826
0.0042252
0.00490215
0.00535982
0.00531651
0.00528097
0.00538435
0.00559217
0.0058934
0.00626567
0.00660546
0.00684317
0.00693547
0.00688322
0.00666056
0.00609291
0.00515572
0.00482627
0.00476041
0.00479204
0.00483347
0.00482816
0.00466876
0.00397085
0.00362543
0.00342391
0.00326915
0.00310714
0.00287652
0.00255838
0.00216675
0.00172946
0.00129542
0.000960218
0.000943973
0.000654631
0.000595574
0.000717112
0.000805413
0.0027284
0.00952782
0.00581941
0.00474762
0.00519082
0.00534047
0.00520852
0.00530303
0.00547436
0.00575288
0.00611505
0.00646873
0.00670423
0.00675645
0.00664061
0.00643979
0.00624507
0.0061124
0.00610463
0.00611507
0.00607439
0.00597438
0.00581937
0.00559841
0.00527046
0.00497466
0.00471131
0.00445792
0.0042001
0.00392484
0.00358273
0.00315909
0.0026537
0.00209519
0.00159441
0.00116812
0.000910611
0.000780829
0.0011062
0.000842274
0.00304276
0.01088
0.0083536
0.00604248
0.00564495
0.00567861
0.00553905
0.00545995
0.00554241
0.00580727
0.0061892
0.00656045
0.00678417
0.00678574
0.00660072
0.00637987
0.00632015
0.00648005
0.00667851
0.00673479
0.00662435
0.00639658
0.00609397
0.00574256
0.00536603
0.00501368
0.00469096
0.00439083
0.00411321
0.00386415
0.00364586
0.00338371
0.00301332
0.00254984
0.00209895
0.00167062
0.00137211
0.00126235
0.00124918
0.000953781
0.00311087
0.00987576
0.00856891
0.00759475
0.00700242
0.00633973
0.00578535
0.00555359
0.00565943
0.00601764
0.00647944
0.00686996
0.00703822
0.00693547
0.00665651
0.00643887
0.00651145
0.00678501
0.00689415
0.00675276
0.00643372
0.00600678
0.00552865
0.00505276
0.00462496
0.00426504
0.00396408
0.00371356
0.00351412
0.00337096
0.00328909
0.00325429
0.00313661
0.00286219
0.00261554
0.00248859
0.0025597
0.00282685
0.0035208
0.00145144
0.00303619
0.00362556
0.00409425
0.00424114
0.00425285
0.00435282
0.00463966
0.00514075
0.00581114
0.00651827
0.00709462
0.00739507
0.00732566
0.00695483
0.00655717
0.00647271
0.00652152
0.00650781
0.00630375
0.00591598
0.00540513
0.00484735
0.00431498
0.00386136
0.00350354
0.00322748
0.00301039
0.00283593
0.00269331
0.00257323
0.00246686
0.00236785
0.00229149
0.00223579
0.00221325
0.00221939
0.00220434
0.00212295
0.00198281
0.00134939
0.0018266
0.00325656
0.00451349
0.0055618
0.00641623
0.00718572
0.00778546
0.00808761
0.00804912
0.00768714
0.00705611
0.00634858
0.00591403
0.00574851
0.00557388
0.00526322
0.00482036
0.00430551
0.00378986
0.00332852
0.00295601
0.00267949
0.00248095
0.00233861
0.00223638
0.00216448
0.00211706
0.0020908
0.00208585
0.00210554
0.00213644
0.00217574
0.00221911
0.00225009
0.00224101
0.00217597
0.00192536
0.00107782
0.00212751
0.00456052
0.00625554
0.00705344
0.00759374
0.00797119
0.00793954
0.00743725
0.00666922
0.00584722
0.00515784
0.00465968
0.00432843
0.00403615
0.00368864
0.00329765
0.0029084
0.00256575
0.00229656
0.00210367
0.00197314
0.00188516
0.00182758
0.00179628
0.00178827
0.00180001
0.00182832
0.00186934
0.00192756
0.00200022
0.00208493
0.00217636
0.00226136
0.00231935
0.00233603
0.00231144
0.00166492
0.0011021
0.00182987
0.00192689
0.00199864
0.0020679
0.00187604
0.0017246
0.00165281
0.00157864
0.0014705
0.00133674
0.00118454
0.00103383
0.000900759
0.000795376
0.000719166
0.000665321
0.000626367
0.000597961
0.00057835
0.000566818
0.000562558
0.000564526
0.000571764
0.000583637
0.000599964
0.000620256
0.000644343
0.000672505
0.000705284
0.000743666
0.00078716
0.000835827
0.000890092
0.000950282
0.0010159
0.00108611
0.0011005
0.000983424
0.000933455
0.0011048
)
;

boundaryField
{
    floor
    {
        type            nutkWallFunction;
        Cmu             0.09;
        kappa           0.41;
        E               9.8;
        value           nonuniform List<scalar> 
29
(
0.000134137
5.46775e-05
6.5915e-05
7.48147e-05
7.55737e-05
7.32743e-05
6.99925e-05
6.54152e-05
6.07206e-05
5.64228e-05
5.25932e-05
4.91901e-05
4.61572e-05
4.3445e-05
4.10097e-05
3.87662e-05
3.66052e-05
3.4379e-05
3.308e-05
2.9733e-05
2.97329e-05
4.22368e-05
5.05563e-05
5.70204e-05
0.000134137
5.46775e-05
5.71748e-05
0.000108848
0.000163125
)
;
    }
    ceiling
    {
        type            nutkWallFunction;
        Cmu             0.09;
        kappa           0.41;
        E               9.8;
        value           nonuniform List<scalar> 
43
(
0.00021466
0.000225287
0.000233113
0.000240728
0.000219838
0.00020317
0.000195213
0.000186949
0.000174816
0.000159669
0.000142224
0.000124697
0.000108977
9.63365e-05
8.7073e-05
8.04579e-05
7.56324e-05
7.20906e-05
6.96336e-05
6.81841e-05
6.76477e-05
6.78955e-05
6.88062e-05
7.02969e-05
7.23409e-05
7.48719e-05
7.78634e-05
8.1344e-05
8.53732e-05
9.00631e-05
9.53432e-05
0.000101211
0.000107706
0.000114857
0.000122595
0.00013081
0.000132486
0.000118773
0.000112864
0.000132989
0.000343897
0.000404818
0.000246984
)
;
    }
    sWall
    {
        type            nutkWallFunction;
        Cmu             0.09;
        kappa           0.41;
        E               9.8;
        value           uniform 0.000214719;
    }
    nWall
    {
        type            nutkWallFunction;
        Cmu             0.09;
        kappa           0.41;
        E               9.8;
        value           nonuniform List<scalar> 6(9.75493e-05 0.000101986 0.000115275 0.000129852 0.000132682 0.000132997);
    }
    sideWalls
    {
        type            empty;
    }
    glass1
    {
        type            nutkWallFunction;
        Cmu             0.09;
        kappa           0.41;
        E               9.8;
        value           nonuniform List<scalar> 9(0.000128428 0.000172698 0.000208552 0.000242383 0.000276362 0.00031196 0.000344985 0.000352102 0.000344325);
    }
    glass2
    {
        type            nutkWallFunction;
        Cmu             0.09;
        kappa           0.41;
        E               9.8;
        value           nonuniform List<scalar> 2(0.000172744 0.000161175);
    }
    sun
    {
        type            nutkWallFunction;
        Cmu             0.09;
        kappa           0.41;
        E               9.8;
        value           nonuniform List<scalar> 
14
(
0.000128331
0.000139483
0.000142032
0.00014853
0.000154522
0.000160151
0.000165724
0.000171019
0.000174721
0.000176132
0.000174583
0.000169586
0.000160877
0.000148638
)
;
    }
    heatsource1
    {
        type            nutkWallFunction;
        Cmu             0.09;
        kappa           0.41;
        E               9.8;
        value           nonuniform List<scalar> 3(7.17937e-05 8.68222e-05 9.75485e-05);
    }
    heatsource2
    {
        type            nutkWallFunction;
        Cmu             0.09;
        kappa           0.41;
        E               9.8;
        value           nonuniform List<scalar> 4(0.000136446 8.53292e-05 8.53291e-05 0.000140456);
    }
    Table_master
    {
        type            nutkWallFunction;
        Cmu             0.09;
        kappa           0.41;
        E               9.8;
        value           nonuniform List<scalar> 9(9.4101e-05 8.30697e-05 7.39881e-05 6.65241e-05 6.03534e-05 5.52111e-05 5.08977e-05 4.72844e-05 4.43163e-05);
    }
    Table_slave
    {
        type            nutkWallFunction;
        Cmu             0.09;
        kappa           0.41;
        E               9.8;
        value           nonuniform List<scalar> 9(0.000106528 9.7359e-05 9.07231e-05 8.56347e-05 8.12921e-05 7.72442e-05 7.33332e-05 6.91931e-05 6.43512e-05);
    }
    inlet
    {
        type            calculated;
        value           uniform 0.000100623;
    }
    outlet
    {
        type            calculated;
        value           nonuniform List<scalar> 2(0.00182987 0.00192689);
    }
}


// ************************************************************************* //
