/*--------------------------------*- C++ -*----------------------------------*\
  =========                 |
  \\      /  F ield         | OpenFOAM: The Open Source CFD Toolbox
   \\    /   O peration     | Website:  https://openfoam.org
    \\  /    A nd           | Version:  6
     \\/     M anipulation  |
\*---------------------------------------------------------------------------*/
FoamFile
{
    version     2.0;
    format      ascii;
    class       volVectorField;
    location    "1400";
    object      U;
}
// * * * * * * * * * * * * * * * * * * * * * * * * * * * * * * * * * * * * * //

dimensions      [0 1 -1 0 0 0 0];

internalField   nonuniform List<vector> 
459
(
(0.0341674 0.0859196 0)
(-0.167151 0.0254963 0)
(-0.191946 0.0178541 0)
(-0.222974 0.0121381 0)
(-0.245413 0.00583557 0)
(-0.258159 -0.000870937 0)
(-0.259511 -0.00804999 0)
(-0.248209 -0.0157247 0)
(-0.224857 -0.0231858 0)
(-0.191384 -0.0290961 0)
(-0.151549 -0.0323538 0)
(-0.109771 -0.0324267 0)
(-0.0703008 -0.0294767 0)
(-0.0382974 -0.0246529 0)
(-0.0276817 -0.0198003 0)
(-0.00655943 0.00912649 0)
(-0.0299737 -0.0163614 0)
(-0.00892001 -0.0262049 0)
(0.014809 -0.0203118 0)
(0.0299095 -0.0139471 0)
(0.0425687 -0.00905852 0)
(0.050634 -0.00526626 0)
(0.0548776 -0.00327405 0)
(0.0568203 -0.00248086 0)
(0.0578024 -0.00214667 0)
(0.0584298 -0.00193877 0)
(0.0588033 -0.00176872 0)
(0.0588646 -0.00156866 0)
(0.0584435 -0.00117976 0)
(0.0570447 -0.000248547 0)
(0.0535873 0.00171287 0)
(0.0468888 0.00378226 0)
(0.0411563 0.00541517 0)
(-0.0139016 0.0201375 0)
(0.2088 0.176056 0)
(-0.156351 0.0674773 0)
(-0.154844 0.053092 0)
(-0.187031 0.0412272 0)
(-0.20933 0.0277591 0)
(-0.222383 0.0125613 0)
(-0.224444 -0.00468482 0)
(-0.214095 -0.0233673 0)
(-0.192547 -0.0408566 0)
(-0.162148 -0.0540418 0)
(-0.126785 -0.0608057 0)
(-0.0905421 -0.0605381 0)
(-0.0569795 -0.0538575 0)
(-0.0295032 -0.0424116 0)
(-0.012084 -0.0287231 0)
(0.00171904 -0.0107681 0)
(0.000379035 0.0155955 0)
(0.0613665 0.0368756 0)
(0.0233495 -0.017314 0)
(0.0320763 -0.0309186 0)
(0.0430313 -0.0277258 0)
(0.0517969 -0.0200498 0)
(0.0583144 -0.0126531 0)
(0.0611623 -0.00545963 0)
(0.061741 -0.00130602 0)
(0.0617134 0.000429359 0)
(0.0618311 0.00119124 0)
(0.0620407 0.00166204 0)
(0.0621952 0.00205681 0)
(0.0622555 0.00253079 0)
(0.062182 0.00336568 0)
(0.0614928 0.00539969 0)
(0.0579645 0.0110633 0)
(0.0489459 0.0157795 0)
(0.0453705 0.0188655 0)
(-0.0509183 0.0437907 0)
(0.369102 0.263498 0)
(-0.173283 0.107513 0)
(-0.116284 0.0859439 0)
(-0.147704 0.0647763 0)
(-0.167614 0.0425825 0)
(-0.179829 0.0178822 0)
(-0.181583 -0.0101705 0)
(-0.170575 -0.040088 0)
(-0.149301 -0.0671763 0)
(-0.121017 -0.0863817 0)
(-0.0898108 -0.0950312 0)
(-0.0591722 -0.0930824 0)
(-0.0313771 -0.0819737 0)
(-0.0084895 -0.0639915 0)
(0.00850884 -0.0404985 0)
(0.01962 -0.0141349 0)
(0.0238299 0.0229484 0)
(0.110296 -0.0248864 0)
(0.0741247 -0.0362519 0)
(0.0683987 -0.0373837 0)
(0.0696669 -0.0323356 0)
(0.0708233 -0.0246424 0)
(0.0720151 -0.0178858 0)
(0.0706995 -0.0143692 0)
(0.0660394 -0.0101747 0)
(0.0626392 -0.00788071 0)
(0.0610733 -0.00657108 0)
(0.0603722 -0.00573098 0)
(0.0599906 -0.00514775 0)
(0.0599145 -0.00464617 0)
(0.0605533 -0.00387245 0)
(0.0629544 -0.000921442 0)
(0.0609716 0.01536 0)
(0.0482948 0.0266785 0)
(0.0518674 0.0341877 0)
(-0.0836557 0.0681563 0)
(0.513843 0.333851 0)
(-0.208136 0.143014 0)
(-0.0753042 0.113942 0)
(-0.105435 0.084883 0)
(-0.119921 0.0564224 0)
(-0.128965 0.0239948 0)
(-0.127747 -0.014726 0)
(-0.113681 -0.056469 0)
(-0.0920515 -0.0923874 0)
(-0.0668602 -0.115946 0)
(-0.041625 -0.124957 0)
(-0.0186817 -0.120761 0)
(0.00174406 -0.10548 0)
(0.0185279 -0.0826782 0)
(0.0327566 -0.0558367 0)
(0.0479309 -0.0268026 0)
(0.0693009 0.00503956 0)
(0.0996696 0.0169093 0)
(0.104726 -0.0217731 0)
(0.0912861 -0.0324238 0)
(0.0823788 -0.0318412 0)
(0.0772082 -0.0279045 0)
(0.0732188 -0.0220314 0)
(0.0704278 -0.0145331 0)
(0.0713143 -0.00873725 0)
(0.0758188 -0.00652464 0)
(0.0796317 -0.00531862 0)
(0.0821005 -0.00448887 0)
(0.0835957 -0.00357211 0)
(0.083715 -0.00227159 0)
(0.0813761 -0.000323035 0)
(0.0753172 0.00258226 0)
(0.063076 0.00694784 0)
(0.0512518 0.0256329 0)
(0.039218 0.0415015 0)
(0.0562017 0.0540148 0)
(-0.118598 0.0897958 0)
(0.63917 0.388351 0)
(-0.250795 0.172003 0)
(-0.0344907 0.130119 0)
(-0.0611764 0.0964148 0)
(-0.0676373 0.0644831 0)
(-0.0706793 0.0269226 0)
(-0.0606368 -0.0215547 0)
(-0.041383 -0.0741745 0)
(-0.0208 -0.115305 0)
(-0.00152861 -0.139414 0)
(0.0146798 -0.145787 0)
(0.0270732 -0.137934 0)
(0.0367816 -0.120004 0)
(0.0446047 -0.0955586 0)
(0.0518338 -0.0681114 0)
(0.0604256 -0.0414322 0)
(0.0730885 -0.0217566 0)
(0.0836422 -0.020664 0)
(0.0847431 -0.0280909 0)
(0.078457 -0.0288047 0)
(0.0702775 -0.0259158 0)
(0.0634204 -0.0221083 0)
(0.0581039 -0.0176119 0)
(0.054699 -0.0123229 0)
(0.0540836 -0.00662464 0)
(0.055976 -0.00386907 0)
(0.0582676 -0.00293202 0)
(0.0604983 -0.00228794 0)
(0.0626248 -0.000916599 0)
(0.0643565 0.00180381 0)
(0.0645052 0.00603886 0)
(0.0624189 0.0119801 0)
(0.0574631 0.0202157 0)
(0.0510626 0.0349041 0)
(0.0411779 0.0524724 0)
(0.0644996 0.0723894 0)
(-0.0235244 0.101588 0)
(0.0463934 0.0311132 0)
(-0.0620179 -0.034256 0)
(-0.272553 -0.0569529 0)
(0.730331 0.433797 0)
(-0.292428 0.191522 0)
(-0.00324127 0.126676 0)
(-0.0160042 0.0976744 0)
(-0.0118928 0.0669225 0)
(-0.00621473 0.0238405 0)
(0.0226136 -0.0388258 0)
(0.0444417 -0.0945469 0)
(0.0599559 -0.132653 0)
(0.0693337 -0.151916 0)
(0.0732468 -0.154312 0)
(0.0731068 -0.14344 0)
(0.0704169 -0.123336 0)
(0.066685 -0.0979897 0)
(0.0633954 -0.0710632 0)
(0.0619456 -0.0462034 0)
(0.0631819 -0.0276454 0)
(0.0639961 -0.0201628 0)
(0.060747 -0.0195744 0)
(0.0537936 -0.0195411 0)
(0.0458578 -0.0180507 0)
(0.0391047 -0.015758 0)
(0.034071 -0.0130122 0)
(0.0310607 -0.00988152 0)
(0.0303548 -0.00697021 0)
(0.0316285 -0.00587842 0)
(0.0338725 -0.0058563 0)
(0.0366674 -0.00570506 0)
(0.0398724 -0.00443732 0)
(0.0432682 -0.00115754 0)
(0.0466269 0.00460701 0)
(0.0486496 0.0125969 0)
(0.049498 0.0228703 0)
(0.0505108 0.0368234 0)
(0.0497875 0.0541245 0)
(0.0731564 0.0768564 0)
(0.0525421 0.0949948 0)
(0.0935793 0.067003 0)
(0.116268 0.0442573 0)
(-0.128828 -0.00686579 0)
(0.782309 0.475102 0)
(-0.313381 0.176962 0)
(0.0235807 0.0771236 0)
(0.0426812 0.0738381 0)
(0.0578865 0.0522208 0)
(0.0847872 0.000882389 0)
(0.118911 -0.0632464 0)
(0.138158 -0.111993 0)
(0.14452 -0.141386 0)
(0.140691 -0.152885 0)
(0.12942 -0.14947 0)
(0.11363 -0.134906 0)
(0.0958957 -0.11307 0)
(0.0784594 -0.087861 0)
(0.0630047 -0.062479 0)
(0.0507639 -0.040012 0)
(0.0421719 -0.0235385 0)
(0.0356991 -0.015138 0)
(0.0291738 -0.0126141 0)
(0.022086 -0.0120879 0)
(0.0153295 -0.0114111 0)
(0.00981514 -0.0104527 0)
(0.00586035 -0.0093685 0)
(0.0036503 -0.00824021 0)
(0.00327982 -0.00747835 0)
(0.00440624 -0.00772598 0)
(0.00640427 -0.00851471 0)
(0.00900709 -0.00902856 0)
(0.0122636 -0.00842881 0)
(0.0163347 -0.00574179 0)
(0.0220618 0.000116334 0)
(0.0285562 0.00885995 0)
(0.0347554 0.0192556 0)
(0.0424203 0.0315891 0)
(0.050885 0.0457091 0)
(0.0738068 0.0640106 0)
(0.0876388 0.072236 0)
(0.119615 0.0514143 0)
(0.158794 0.0435353 0)
(-0.0356936 0.0927123 0)
(0.88697 0.477788 0)
(-0.0706918 0.156622 0)
(0.106113 0.00374818 0)
(0.169345 -0.0167785 0)
(0.182468 -0.0357974 0)
(0.218231 -0.0698248 0)
(0.240011 -0.102493 0)
(0.242456 -0.125776 0)
(0.228395 -0.137182 0)
(0.20278 -0.136949 0)
(0.170489 -0.126854 0)
(0.135748 -0.109532 0)
(0.101597 -0.0876818 0)
(0.0705256 -0.0645536 0)
(0.0439909 -0.0425564 0)
(0.0233287 -0.0242487 0)
(0.00899706 -0.0121132 0)
(-0.000352811 -0.00659266 0)
(-0.00697251 -0.00546882 0)
(-0.0125023 -0.00580959 0)
(-0.0172593 -0.00624279 0)
(-0.0210681 -0.00658613 0)
(-0.0238482 -0.0069153 0)
(-0.0255433 -0.00733059 0)
(-0.0261973 -0.0080401 0)
(-0.0261095 -0.00920947 0)
(-0.0256586 -0.0105941 0)
(-0.0249856 -0.01178 0)
(-0.0239562 -0.0122902 0)
(-0.0221907 -0.0115687 0)
(-0.0188219 -0.00891682 0)
(-0.0111151 -0.00353784 0)
(-0.000600246 0.00423203 0)
(0.0106538 0.012334 0)
(0.0233121 0.0188411 0)
(0.044352 0.0257126 0)
(0.0643934 0.020242 0)
(0.0837724 -0.0016102 0)
(0.14155 0.0481821 0)
(-0.432284 0.204789 0)
(1.03202 0.430126 0)
(0.496977 0.285184 0)
(0.503282 0.191461 0)
(0.511865 0.119893 0)
(0.487348 0.0683335 0)
(0.444417 0.0148711 0)
(0.394334 -0.0333759 0)
(0.340752 -0.0674552 0)
(0.283382 -0.0849287 0)
(0.224656 -0.0878691 0)
(0.167891 -0.0803285 0)
(0.115846 -0.0663142 0)
(0.069534 -0.048585 0)
(0.0308435 -0.0305347 0)
(-0.000690079 -0.0143265 0)
(-0.0215824 -0.0042277 0)
(-0.0327018 -0.000406144 0)
(-0.0388331 0.000190308 0)
(-0.042761 -0.000660652 0)
(-0.046051 -0.00186265 0)
(-0.0491112 -0.0030043 0)
(-0.0518819 -0.004083 0)
(-0.0543466 -0.00514571 0)
(-0.0565102 -0.00624362 0)
(-0.0584969 -0.00744576 0)
(-0.0605848 -0.00875571 0)
(-0.0631034 -0.00998854 0)
(-0.066346 -0.0108137 0)
(-0.070617 -0.0107538 0)
(-0.0763186 -0.00917278 0)
(-0.0839569 -0.00531063 0)
(-0.0939445 0.00156565 0)
(-0.104459 0.0111371 0)
(-0.11811 0.0233411 0)
(-0.139724 0.038254 0)
(-0.171479 0.0553044 0)
(-0.217304 0.0715359 0)
(-0.273648 0.0848193 0)
(-0.3499 0.0934205 0)
(-0.617233 0.0906879 0)
(-0.147788 0.0827589 0)
(0.134718 0.0614684 0)
(0.217889 0.00557186 0)
(0.201398 -0.0291812 0)
(0.185622 -0.0433824 0)
(0.163023 -0.047899 0)
(0.130462 -0.046133 0)
(0.0918582 -0.0396265 0)
(0.0519882 -0.0297944 0)
(0.0140127 -0.0174593 0)
(-0.0232274 -0.00366975 0)
(-0.0469144 0.00403134 0)
(-0.0613315 0.00751767 0)
(-0.0682568 0.00799757 0)
(-0.071635 0.007285 0)
(-0.0738178 0.00638021 0)
(-0.0756619 0.00552736 0)
(-0.0775129 0.00482029 0)
(-0.0794772 0.00417792 0)
(-0.0816862 0.00345033 0)
(-0.0841678 0.00254443 0)
(-0.0868968 0.00153633 0)
(-0.0899522 0.000508513 0)
(-0.0934487 -0.000397831 0)
(-0.0974681 -0.000945531 0)
(-0.102023 -0.000831618 0)
(-0.107046 0.000281891 0)
(-0.112368 0.00274451 0)
(-0.117524 0.00695487 0)
(-0.12158 0.0135308 0)
(-0.124971 0.0235831 0)
(-0.127656 0.0376273 0)
(-0.130128 0.055259 0)
(-0.132169 0.0741607 0)
(-0.130579 0.0873723 0)
(-0.113178 0.0805337 0)
(-0.0734384 0.026214 0)
(-0.197992 -0.176284 0)
(-0.0230341 0.230867 0)
(0.0636133 0.0992936 0)
(0.0375075 0.0187754 0)
(0.0253518 -0.00459828 0)
(0.0158085 -0.00988723 0)
(-0.00300665 -0.0111586 0)
(-0.028015 -0.00863072 0)
(-0.0537214 -0.00402563 0)
(-0.0754482 0.000488866 0)
(-0.0903678 0.00349178 0)
(-0.0974732 0.00373603 0)
(-0.0999463 0.00150725 0)
(-0.100205 -0.00144935 0)
(-0.0994716 -0.00479479 0)
(-0.0988394 -0.00821859 0)
(-0.0987046 -0.011497 0)
(-0.099104 -0.0145212 0)
(-0.099944 -0.0171031 0)
(-0.101084 -0.0190818 0)
(-0.102425 -0.0203897 0)
(-0.103949 -0.021055 0)
(-0.105711 -0.0211847 0)
(-0.107694 -0.0207978 0)
(-0.109882 -0.0200294 0)
(-0.112212 -0.0188938 0)
(-0.114513 -0.0171988 0)
(-0.116475 -0.014613 0)
(-0.117659 -0.0106229 0)
(-0.117599 -0.00501409 0)
(-0.115479 0.00261948 0)
(-0.110002 0.0129705 0)
(-0.0998422 0.0266799 0)
(-0.0844179 0.0435745 0)
(-0.0641274 0.0605913 0)
(-0.0402293 0.0696525 0)
(0.0279315 0.0381155 0)
(0.147226 -0.0412702 0)
(-0.0494866 -0.0652801 0)
(-0.103308 -0.348638 0)
(-0.439209 -0.120351 0)
(-0.310705 0.0955047 0)
(-0.22669 -0.0203342 0)
(-0.18035 -0.0413305 0)
(-0.166035 -0.029113 0)
(-0.16366 -0.0161507 0)
(-0.164984 -0.00584464 0)
(-0.165503 0.00275491 0)
(-0.163219 0.0102988 0)
(-0.15848 0.0172374 0)
(-0.151408 0.0235674 0)
(-0.142929 0.0290291 0)
(-0.134466 0.0336451 0)
(-0.12686 0.0379771 0)
(-0.120435 0.042238 0)
(-0.115197 0.046532 0)
(-0.110973 0.05069 0)
(-0.107615 0.0543591 0)
(-0.105022 0.0572054 0)
(-0.103115 0.0590213 0)
(-0.101824 0.0597437 0)
(-0.101091 0.0594212 0)
(-0.100875 0.0581763 0)
(-0.101142 0.0560998 0)
(-0.101818 0.0535134 0)
(-0.102779 0.0506809 0)
(-0.10381 0.047723 0)
(-0.10456 0.0447103 0)
(-0.104455 0.0416821 0)
(-0.102442 0.0393937 0)
(-0.0969298 0.0385004 0)
(-0.0857482 0.0396472 0)
(-0.0669579 0.0435966 0)
(-0.0406168 0.0508746 0)
(-0.0058019 0.0605699 0)
(0.0321405 0.0572945 0)
(0.0900163 0.0205368 0)
(0.11908 -0.0181195 0)
(-0.505036 0.0601942 0)
)
;

boundaryField
{
    floor
    {
        type            noSlip;
    }
    ceiling
    {
        type            noSlip;
    }
    sWall
    {
        type            noSlip;
    }
    nWall
    {
        type            noSlip;
    }
    sideWalls
    {
        type            empty;
    }
    glass1
    {
        type            noSlip;
    }
    glass2
    {
        type            noSlip;
    }
    sun
    {
        type            noSlip;
    }
    heatsource1
    {
        type            noSlip;
    }
    heatsource2
    {
        type            noSlip;
    }
    Table_master
    {
        type            noSlip;
    }
    Table_slave
    {
        type            noSlip;
    }
    inlet
    {
        type            fixedValue;
        value           uniform (0.3 0 0);
    }
    outlet
    {
        type            zeroGradient;
    }
}


// ************************************************************************* //
