/*--------------------------------*- C++ -*----------------------------------*\
  =========                 |
  \\      /  F ield         | OpenFOAM: The Open Source CFD Toolbox
   \\    /   O peration     | Website:  https://openfoam.org
    \\  /    A nd           | Version:  6
     \\/     M anipulation  |
\*---------------------------------------------------------------------------*/
FoamFile
{
    version     2.0;
    format      ascii;
    class       volScalarField;
    location    "1700";
    object      nut;
}
// * * * * * * * * * * * * * * * * * * * * * * * * * * * * * * * * * * * * * //

dimensions      [0 2 -1 0 0 0 0];

internalField   nonuniform List<scalar> 
459
(
0.00106545
0.00116168
0.00118368
0.0012402
0.00129258
0.001342
0.00139112
0.00143795
0.00147077
0.00148328
0.00146949
0.00142515
0.00134825
0.00124099
0.00111522
0.000461105
0.000549394
0.0006206
0.000626749
0.000608275
0.000581951
0.000545461
0.000508352
0.000474675
0.000444923
0.000418707
0.000395531
0.000374957
0.000356611
0.000339821
0.000323756
0.000307316
0.000297724
0.000273204
0.00145106
0.00344304
0.00325818
0.0037791
0.00428973
0.00480146
0.00524562
0.00559172
0.00591327
0.00618066
0.00635726
0.00640538
0.00627957
0.00587214
0.00472991
0.0011353
0.000705728
0.000480503
0.00101164
0.00141684
0.00172343
0.00190493
0.00191324
0.00150919
0.00129412
0.00114159
0.00102522
0.000933287
0.000858789
0.000796113
0.000737907
0.000681656
0.00063162
0.000587508
0.000704614
0.000365499
0.00177207
0.00467167
0.00397531
0.00494961
0.005397
0.00572221
0.00597632
0.0062008
0.00646172
0.00674467
0.00701632
0.00722619
0.00732845
0.00724609
0.00675696
0.00518188
0.00116999
0.000900822
0.00131172
0.00170808
0.00209408
0.00238159
0.00235426
0.000778027
0.00068729
0.000613678
0.000553986
0.000505241
0.000465073
0.000431716
0.000404025
0.000381463
0.000410627
0.000472016
0.00080052
0.000428674
0.00208075
0.00597683
0.00392618
0.00516957
0.0055059
0.0055864
0.00565442
0.00578231
0.00600189
0.0062969
0.00663574
0.00694694
0.00718103
0.00727108
0.00716726
0.00660435
0.00442421
0.00136799
0.0016338
0.00207773
0.00256584
0.00300242
0.00330427
0.00315056
0.00088178
0.00080509
0.000750089
0.000708174
0.000672572
0.000639582
0.000607906
0.00057464
0.000536111
0.000503612
0.000509566
0.000938759
0.000478513
0.00239564
0.00767926
0.00424549
0.00493146
0.00539263
0.00534242
0.00529689
0.00539517
0.00560129
0.00590294
0.00627722
0.00661949
0.00685931
0.00695228
0.00689899
0.00667391
0.00610344
0.00516506
0.00483908
0.00477961
0.00481945
0.00486931
0.00487066
0.00471309
0.00400451
0.00365356
0.00344683
0.00328636
0.00311849
0.00288223
0.00255944
0.00216486
0.00172629
0.00129217
0.000958599
0.000950698
0.000656367
0.000594692
0.000716127
0.000804309
0.00273014
0.00954689
0.00583879
0.00477077
0.00521568
0.00535765
0.00521648
0.00530864
0.00547943
0.00575876
0.00612291
0.0064795
0.0067178
0.00677165
0.00665589
0.00645432
0.00625991
0.00613093
0.00613146
0.00615297
0.00612332
0.00603158
0.00587982
0.00565568
0.00531754
0.00500897
0.00473221
0.00446628
0.00419807
0.00391539
0.00356889
0.00314316
0.00263796
0.00208172
0.0015853
0.00116915
0.000912742
0.000781482
0.00110621
0.00084144
0.00304409
0.0108956
0.00836821
0.00605773
0.00565761
0.00568471
0.00554298
0.00546311
0.00554548
0.00581114
0.00619491
0.00656918
0.00679608
0.0068
0.0066159
0.00639594
0.0063402
0.00651018
0.00672324
0.00679382
0.00669288
0.00646681
0.00615698
0.00579059
0.00539487
0.00502318
0.00468359
0.00437041
0.0040842
0.0038309
0.00361215
0.00334999
0.00298236
0.00252569
0.00208439
0.00166885
0.0013792
0.00127461
0.00125959
0.000954302
0.00311192
0.00988441
0.00857741
0.0076032
0.00700949
0.00634491
0.00578921
0.00555676
0.00566242
0.00602114
0.00648453
0.00687807
0.00704979
0.00694978
0.00667297
0.00645927
0.00654253
0.00683455
0.00696076
0.00682855
0.00650762
0.00606757
0.00556798
0.00506755
0.00461723
0.00423962
0.00392675
0.00367018
0.00346989
0.00332949
0.00325202
0.00322095
0.00310379
0.0028402
0.00260836
0.00250119
0.00259213
0.00286772
0.00355456
0.00145344
0.00303689
0.00362615
0.00409573
0.00424325
0.00425535
0.00435554
0.00464261
0.00514397
0.00581462
0.00652223
0.00710022
0.0074042
0.00733868
0.00697132
0.00658031
0.00650852
0.00657565
0.0065788
0.00638195
0.0059877
0.00545823
0.00487386
0.00431357
0.00383657
0.00346267
0.00317814
0.00295954
0.0027894
0.00265532
0.00254613
0.00245135
0.00236333
0.00229588
0.00224675
0.00222913
0.00223847
0.00222391
0.00213966
0.00199536
0.00135039
0.00182721
0.00325863
0.00451655
0.0055657
0.00642076
0.00719048
0.00778999
0.00809271
0.00805721
0.00770266
0.00708097
0.00638385
0.00596291
0.0058114
0.00564764
0.00533775
0.00488268
0.0043449
0.00380061
0.00331205
0.00291925
0.00263058
0.00242722
0.00228611
0.00218973
0.00212668
0.00208957
0.00207379
0.00207847
0.00210655
0.00214458
0.00218963
0.00223717
0.00227031
0.00226099
0.00219337
0.00193832
0.00107718
0.00212752
0.00456421
0.00625978
0.00705811
0.00759899
0.00797725
0.00794604
0.00744733
0.00668607
0.00587341
0.00519333
0.00470546
0.00438282
0.00409416
0.00374321
0.00334055
0.00293357
0.00257143
0.00228488
0.00207895
0.00193959
0.00184692
0.00178822
0.00175884
0.00175498
0.00177237
0.00180729
0.00185548
0.0019205
0.00199982
0.00209092
0.00218825
0.0022782
0.00233948
0.00235744
0.00233183
0.00167628
0.00110191
0.00182969
0.00192687
0.00199875
0.00206836
0.00187689
0.00172581
0.00165426
0.00158041
0.00147267
0.00133939
0.00118793
0.0010381
0.000905867
0.000801158
0.00072531
0.000671415
0.000631982
0.000602729
0.00058204
0.000569369
0.00056404
0.000565074
0.000571516
0.000582736
0.000598543
0.000618407
0.000642162
0.000670079
0.000702688
0.000740962
0.000784528
0.000833378
0.000887935
0.000948521
0.00101461
0.00108527
0.0011001
0.000982292
0.000932016
0.00110354
)
;

boundaryField
{
    floor
    {
        type            nutkWallFunction;
        Cmu             0.09;
        kappa           0.41;
        E               9.8;
        value           nonuniform List<scalar> 
29
(
0.000134194
5.47139e-05
6.59867e-05
7.49148e-05
7.56797e-05
7.33788e-05
7.00853e-05
6.54895e-05
6.07768e-05
5.64629e-05
5.262e-05
4.9207e-05
4.61671e-05
4.34494e-05
4.10099e-05
3.87631e-05
3.65998e-05
3.43713e-05
3.30638e-05
2.96956e-05
2.96955e-05
4.21932e-05
5.05069e-05
5.69557e-05
0.000134194
5.47139e-05
5.72118e-05
0.000108984
0.000163222
)
;
    }
    ceiling
    {
        type            nutkWallFunction;
        Cmu             0.09;
        kappa           0.41;
        E               9.8;
        value           nonuniform List<scalar> 
43
(
0.000214641
0.000225285
0.000233124
0.000240778
0.000219932
0.000203304
0.000195375
0.000187146
0.000175061
0.000159972
0.000142615
0.000125197
0.000109585
9.7035e-05
8.7824e-05
8.12097e-05
7.63301e-05
7.26864e-05
7.00967e-05
6.8505e-05
6.78343e-05
6.79645e-05
6.8775e-05
7.01838e-05
7.21632e-05
7.46417e-05
7.75931e-05
8.10448e-05
8.5055e-05
8.97337e-05
9.50246e-05
0.000100916
0.000107449
0.000114649
0.000122443
0.000130711
0.000132439
0.000118639
0.000112693
0.000132842
0.00034397
0.000404878
0.000246985
)
;
    }
    sWall
    {
        type            nutkWallFunction;
        Cmu             0.09;
        kappa           0.41;
        E               9.8;
        value           uniform 0.0002147;
    }
    nWall
    {
        type            nutkWallFunction;
        Cmu             0.09;
        kappa           0.41;
        E               9.8;
        value           nonuniform List<scalar> 6(9.7416e-05 0.000101886 0.000115337 0.000129777 0.00013266 0.00013285);
    }
    sideWalls
    {
        type            empty;
    }
    glass1
    {
        type            nutkWallFunction;
        Cmu             0.09;
        kappa           0.41;
        E               9.8;
        value           nonuniform List<scalar> 9(0.000128497 0.000172844 0.000208741 0.000242589 0.000276566 0.000312144 0.000345124 0.000352212 0.000344398);
    }
    glass2
    {
        type            nutkWallFunction;
        Cmu             0.09;
        kappa           0.41;
        E               9.8;
        value           nonuniform List<scalar> 2(0.000172969 0.000161289);
    }
    sun
    {
        type            nutkWallFunction;
        Cmu             0.09;
        kappa           0.41;
        E               9.8;
        value           nonuniform List<scalar> 
14
(
0.0001284
0.000139582
0.000142124
0.000148631
0.000154632
0.000160269
0.000165848
0.000171146
0.000174848
0.000176258
0.000174704
0.000169699
0.000160978
0.000148721
)
;
    }
    heatsource1
    {
        type            nutkWallFunction;
        Cmu             0.09;
        kappa           0.41;
        E               9.8;
        value           nonuniform List<scalar> 3(7.16832e-05 8.67016e-05 9.74152e-05);
    }
    heatsource2
    {
        type            nutkWallFunction;
        Cmu             0.09;
        kappa           0.41;
        E               9.8;
        value           nonuniform List<scalar> 4(0.000136522 8.54292e-05 8.54291e-05 0.000140538);
    }
    Table_master
    {
        type            nutkWallFunction;
        Cmu             0.09;
        kappa           0.41;
        E               9.8;
        value           nonuniform List<scalar> 9(9.42373e-05 8.31656e-05 7.40551e-05 6.65702e-05 6.03849e-05 5.52323e-05 5.09112e-05 4.72922e-05 4.43202e-05);
    }
    Table_slave
    {
        type            nutkWallFunction;
        Cmu             0.09;
        kappa           0.41;
        E               9.8;
        value           nonuniform List<scalar> 9(0.000106713 9.75093e-05 9.08455e-05 8.57284e-05 8.13535e-05 7.72749e-05 7.33348e-05 6.91699e-05 6.43092e-05);
    }
    inlet
    {
        type            calculated;
        value           uniform 0.000100623;
    }
    outlet
    {
        type            calculated;
        value           nonuniform List<scalar> 2(0.00182969 0.00192687);
    }
}


// ************************************************************************* //
