/*--------------------------------*- C++ -*----------------------------------*\
  =========                 |
  \\      /  F ield         | OpenFOAM: The Open Source CFD Toolbox
   \\    /   O peration     | Website:  https://openfoam.org
    \\  /    A nd           | Version:  6
     \\/     M anipulation  |
\*---------------------------------------------------------------------------*/
FoamFile
{
    version     2.0;
    format      ascii;
    class       volScalarField;
    location    "300";
    object      epsilon;
}
// * * * * * * * * * * * * * * * * * * * * * * * * * * * * * * * * * * * * * //

dimensions      [0 2 -3 0 0 0 0];

internalField   nonuniform List<scalar> 
459
(
0.000122178
0.000130483
7.97975e-05
8.5764e-05
9.56337e-05
0.000106695
0.000118881
0.000132478
0.000147909
0.000163102
0.00017668
0.000186648
0.000190455
0.00018516
0.000166335
6.14351e-06
5.88076e-06
4.62934e-06
4.51481e-06
4.54167e-06
4.62131e-06
4.90149e-06
5.62889e-06
6.86741e-06
8.79528e-06
1.17312e-05
1.60827e-05
2.18696e-05
2.98638e-05
4.06949e-05
5.25777e-05
5.42342e-05
4.29645e-05
2.68167e-05
0.000738089
0.0016976
0.000156123
6.68048e-05
6.61478e-05
7.21855e-05
7.96445e-05
8.83182e-05
9.85775e-05
0.000109946
0.00012217
0.000134551
0.000145257
0.000150926
0.000152596
0.000196906
6.6397e-05
1.59475e-05
2.66324e-05
6.44123e-06
5.08263e-06
5.62922e-06
5.12357e-06
3.92834e-06
5.14242e-06
7.18158e-06
1.01804e-05
1.45824e-05
2.10827e-05
3.06298e-05
4.42404e-05
6.06762e-05
6.64075e-05
6.54665e-05
6.77009e-05
5.72454e-05
0.00202111
0.005902
0.000525845
0.000100873
7.51709e-05
7.89414e-05
8.71061e-05
9.70439e-05
0.000108552
0.00012147
0.000135225
0.000148957
0.000160788
0.000167529
0.000167337
0.000168655
0.000202054
4.71231e-05
7.77077e-05
3.05252e-05
2.78486e-05
3.08787e-05
3.1434e-05
5.946e-06
8.35073e-06
1.28331e-05
1.91182e-05
2.80599e-05
4.16056e-05
6.3275e-05
9.90137e-05
0.000160368
0.00011618
0.000123867
0.000144661
0.0002039
0.00409127
0.0128696
0.00148059
0.000198509
0.000100689
9.66465e-05
0.000105039
0.000116825
0.000130491
0.000145788
0.000161591
0.000176881
0.000189631
0.000196588
0.000195454
0.000190705
0.000200457
0.00025579
0.000123391
8.45199e-05
8.21541e-05
9.33209e-05
0.00010987
0.000137852
0.000189277
0.000191153
0.000191363
0.000190355
0.000190261
0.000194409
0.000208049
0.00024003
0.000307628
0.000179897
0.000208917
0.000262198
0.000442728
0.0068938
0.0213977
0.00342974
0.000496878
0.000177452
0.000138582
0.000140251
0.000151933
0.000167822
0.000186484
0.000206161
0.00022639
0.000245273
0.000258264
0.000258933
0.000242758
0.000212642
0.000174373
0.000122915
0.000101233
0.000100489
0.00010753
0.000117378
0.000127412
0.000134892
0.000137986
0.000140272
0.000142833
0.000146978
0.000154555
0.000167917
0.000189383
0.000219603
0.000253605
0.000310331
0.000382292
0.000462154
0.000674354
0.000486241
0.000319373
0.0103783
0.0283836
0.0068635
0.00153317
0.000529548
0.000296797
0.000242556
0.000233179
0.000239635
0.000252905
0.000269784
0.000291675
0.000318173
0.000344792
0.000362729
0.000361111
0.000332305
0.000279485
0.000219277
0.000180024
0.000164903
0.00016481
0.000171507
0.000178921
0.000184685
0.000188235
0.000190654
0.000192669
0.000195253
0.000200197
0.0002106
0.000231154
0.000267655
0.000325457
0.000408738
0.000513071
0.00061313
0.000675414
0.000558467
0.00033986
0.014059
0.0306341
0.0125323
0.00496094
0.00227251
0.00108498
0.00067418
0.000508812
0.000432292
0.000392126
0.000372499
0.000371977
0.000389609
0.000420555
0.000454414
0.000475684
0.000468739
0.000429278
0.00036988
0.0003142
0.000279618
0.000264509
0.000260399
0.000261898
0.000265296
0.000268762
0.000271933
0.000274718
0.000277341
0.000280889
0.000288263
0.00030547
0.000342196
0.000409534
0.000514667
0.000654153
0.000804845
0.000921846
0.000913511
0.000375956
0.0142133
0.0325056
0.0209722
0.0150937
0.00870678
0.00462341
0.00255589
0.0015459
0.0010218
0.000745255
0.000592858
0.000510685
0.000478432
0.00048455
0.000516728
0.000556811
0.000577063
0.000564897
0.000524074
0.000473365
0.00043024
0.000400773
0.000383652
0.000375615
0.000373082
0.000373582
0.000375803
0.000378926
0.000382506
0.000386862
0.000394011
0.000409356
0.000444129
0.000517366
0.000650772
0.00085141
0.00111476
0.00146012
0.0018945
0.0014896
0.0123133
0.01899
0.0579528
0.0418337
0.0226244
0.011815
0.00633208
0.00358796
0.0021833
0.00142371
0.000997609
0.0007613
0.00063895
0.000590821
0.000592786
0.00062359
0.000658217
0.000676019
0.000668367
0.000642022
0.000609564
0.000579707
0.000556055
0.000539212
0.000528144
0.000521422
0.000517893
0.000516573
0.000516594
0.000517444
0.000519596
0.000525522
0.00054069
0.000574026
0.000638187
0.000746147
0.000897092
0.0011277
0.00273322
0.00177732
0.177176
0.151742
0.0287274
0.0119943
0.00639748
0.00381305
0.00247368
0.00173298
0.00130554
0.00105188
0.000904282
0.000827246
0.000799369
0.000806495
0.000834482
0.000867249
0.000890513
0.000897664
0.000890368
0.000873907
0.000853394
0.000832497
0.000813094
0.000795791
0.000780948
0.000768526
0.000758012
0.000748517
0.000739052
0.000728969
0.000718321
0.000708042
0.000700507
0.000700482
0.000716359
0.000804932
0.00137133
0.00154101
0.115425
0.0793784
0.0265708
0.0117291
0.00639506
0.00403713
0.0028526
0.00221322
0.00185934
0.00166996
0.00158057
0.00155264
0.00156236
0.00159265
0.00162863
0.00165666
0.0016675
0.00165922
0.00163557
0.00160228
0.00156461
0.00152648
0.00148949
0.00145364
0.0014191
0.0013856
0.00135201
0.00131641
0.00127655
0.00123052
0.00117788
0.00112091
0.00106585
0.00102195
0.000999669
0.00102664
0.00197095
0.001303
0.00148383
0.00424656
0.0405746
0.0303867
0.0176116
0.0104103
0.00658783
0.00446286
0.00320886
0.00243167
0.00193449
0.00161268
0.00140685
0.0012808
0.00121071
0.00118019
0.00117665
0.00118904
0.00120701
0.00122196
0.00122855
0.00122499
0.0012121
0.00119205
0.00116907
0.00114547
0.00112179
0.00109858
0.00107617
0.00105433
0.00103219
0.00100811
0.000979858
0.000944887
0.000900929
0.000846392
0.000780243
0.000704593
0.000710347
0.000506192
)
;

boundaryField
{
    floor
    {
        Cmu             0.09;
        kappa           0.41;
        E               9.8;
        type            epsilonWallFunction;
        value           nonuniform List<scalar> 
29
(
0.000166335
6.14351e-06
5.88076e-06
4.62934e-06
4.51481e-06
4.54167e-06
4.62131e-06
4.90149e-06
5.62889e-06
6.86741e-06
8.79528e-06
1.17312e-05
1.60827e-05
2.18696e-05
2.98638e-05
4.06949e-05
5.25777e-05
5.42342e-05
4.29645e-05
2.68167e-05
2.68167e-05
5.72454e-05
0.0002039
0.000442728
0.000166335
6.14351e-06
1.59475e-05
4.71231e-05
0.00025579
)
;
    }
    ceiling
    {
        Cmu             0.09;
        kappa           0.41;
        E               9.8;
        type            epsilonWallFunction;
        value           nonuniform List<scalar> 
43
(
0.00148383
0.00424656
0.0405746
0.0303867
0.0176116
0.0104103
0.00658783
0.00446286
0.00320886
0.00243167
0.00193449
0.00161268
0.00140685
0.0012808
0.00121071
0.00118019
0.00117665
0.00118904
0.00120701
0.00122196
0.00122855
0.00122499
0.0012121
0.00119205
0.00116907
0.00114547
0.00112179
0.00109858
0.00107617
0.00105433
0.00103219
0.00100811
0.000979858
0.000944887
0.000900929
0.000846392
0.000780243
0.000704593
0.000710347
0.000506192
0.0123133
0.01899
0.115425
)
;
    }
    sWall
    {
        Cmu             0.09;
        kappa           0.41;
        E               9.8;
        type            epsilonWallFunction;
        value           uniform 0.00148383;
    }
    nWall
    {
        Cmu             0.09;
        kappa           0.41;
        E               9.8;
        type            epsilonWallFunction;
        value           nonuniform List<scalar> 6(0.000319373 0.00033986 0.000375956 0.00154101 0.001303 0.000506192);
    }
    sideWalls
    {
        type            empty;
    }
    glass1
    {
        Cmu             0.09;
        kappa           0.41;
        E               9.8;
        type            epsilonWallFunction;
        value           nonuniform List<scalar> 9(0.000122178 0.000738089 0.00202111 0.00409127 0.0068938 0.0103783 0.014059 0.0142133 0.0123133);
    }
    glass2
    {
        Cmu             0.09;
        kappa           0.41;
        E               9.8;
        type            epsilonWallFunction;
        value           nonuniform List<scalar> 2(0.0014896 0.00177732);
    }
    sun
    {
        Cmu             0.09;
        kappa           0.41;
        E               9.8;
        type            epsilonWallFunction;
        value           nonuniform List<scalar> 
14
(
0.000122178
0.000130483
7.97975e-05
8.5764e-05
9.56337e-05
0.000106695
0.000118881
0.000132478
0.000147909
0.000163102
0.00017668
0.000186648
0.000190455
0.00018516
)
;
    }
    heatsource1
    {
        Cmu             0.09;
        kappa           0.41;
        E               9.8;
        type            epsilonWallFunction;
        value           nonuniform List<scalar> 3(0.000674354 0.000486241 0.000319373);
    }
    heatsource2
    {
        Cmu             0.09;
        kappa           0.41;
        E               9.8;
        type            epsilonWallFunction;
        value           nonuniform List<scalar> 4(0.000196906 6.6397e-05 6.6397e-05 0.000202054);
    }
    Table_master
    {
        Cmu             0.09;
        kappa           0.41;
        E               9.8;
        type            epsilonWallFunction;
        value           nonuniform List<scalar> 9(5.946e-06 8.35073e-06 1.28331e-05 1.91182e-05 2.80599e-05 4.16056e-05 6.3275e-05 9.90137e-05 0.000160368);
    }
    Table_slave
    {
        Cmu             0.09;
        kappa           0.41;
        E               9.8;
        type            epsilonWallFunction;
        value           nonuniform List<scalar> 9(0.000189277 0.000191153 0.000191363 0.000190355 0.000190261 0.000194409 0.000208049 0.00024003 0.000307628);
    }
    inlet
    {
        type            turbulentMixingLengthDissipationRateInlet;
        mixingLength    0.01;
        phi             phi;
        k               k;
        value           uniform 0.177176;
    }
    outlet
    {
        type            zeroGradient;
    }
}


// ************************************************************************* //
