// -*- C++ -*-
// File generated by PyFoam - sorry for the ugliness

FoamFile
{
 version 2.0;
 format ascii;
 class volScalarField;
 location "1300";
 object T;
}

dimensions [ 0 0 0 1 0 0 0 ];

internalField nonuniform List<scalar> 459
(
  303.383
  303.119
  303.106
  303.103
  303.099
  303.095
  303.091
  303.085
  303.076
  303.065
  303.052
  303.041
  303.034
  303.032
  303.037
  303.119
  303.099
  303.092
  303.094
  303.097
  303.1
  303.104
  303.108
  303.111
  303.115
  303.118
  303.121
  303.125
  303.128
  303.131
  303.135
  303.139
  303.143
  303.162
  303.563
  303.162
  303.139
  303.142
  303.145
  303.146
  303.144
  303.138
  303.122
  303.097
  303.069
  303.045
  303.028
  303.019
  303.017
  303.013
  303.008
  303.121
  303.085
  303.078
  303.08
  303.084
  303.088
  303.089
  303.09
  303.091
  303.092
  303.093
  303.093
  303.094
  303.095
  303.097
  303.1
  303.105
  303.114
  303.145
  303.75
  303.212
  303.175
  303.188
  303.203
  303.214
  303.219
  303.214
  303.188
  303.145
  303.095
  303.054
  303.027
  303.014
  303.012
  303.013
  303.012
  303.074
  303.068
  303.071
  303.079
  303.087
  303.094
  303.094
  303.093
  303.093
  303.093
  303.092
  303.092
  303.091
  303.091
  303.091
  303.093
  303.097
  303.104
  303.138
  303.939
  303.274
  303.212
  303.232
  303.262
  303.291
  303.311
  303.308
  303.268
  303.199
  303.121
  303.061
  303.023
  303.009
  303.009
  303.013
  303.017
  303.027
  303.039
  303.055
  303.073
  303.09
  303.105
  303.117
  303.126
  303.135
  303.142
  303.148
  303.153
  303.157
  303.16
  303.162
  303.163
  303.141
  303.121
  303.112
  303.137
  304.123
  303.352
  303.251
  303.267
  303.31
  303.358
  303.401
  303.399
  303.339
  303.24
  303.135
  303.059
  303.016
  303.001
  303.005
  303.016
  303.028
  303.043
  303.06
  303.081
  303.102
  303.123
  303.14
  303.155
  303.168
  303.178
  303.187
  303.193
  303.198
  303.199
  303.198
  303.194
  303.187
  303.17
  303.145
  303.125
  303.134
  303.207
  303.252
  303.258
  304.289
  303.452
  303.315
  303.307
  303.347
  303.407
  303.473
  303.458
  303.371
  303.248
  303.13
  303.044
  302.999
  302.989
  303.001
  303.023
  303.047
  303.071
  303.095
  303.12
  303.144
  303.166
  303.184
  303.198
  303.21
  303.219
  303.227
  303.232
  303.234
  303.233
  303.228
  303.22
  303.208
  303.191
  303.167
  303.142
  303.137
  303.167
  303.184
  303.219
  304.437
  303.613
  303.468
  303.431
  303.447
  303.501
  303.537
  303.482
  303.356
  303.207
  303.08
  302.997
  302.966
  302.973
  303.004
  303.043
  303.081
  303.114
  303.145
  303.171
  303.194
  303.214
  303.229
  303.241
  303.251
  303.258
  303.263
  303.266
  303.265
  303.262
  303.253
  303.242
  303.228
  303.21
  303.188
  303.164
  303.152
  303.16
  303.169
  303.199
  304.655
  304.036
  303.871
  303.766
  303.716
  303.704
  303.616
  303.449
  303.252
  303.078
  302.963
  302.913
  302.922
  302.966
  303.027
  303.087
  303.136
  303.175
  303.204
  303.227
  303.245
  303.26
  303.271
  303.28
  303.286
  303.29
  303.292
  303.292
  303.29
  303.285
  303.277
  303.265
  303.251
  303.235
  303.218
  303.201
  303.195
  303.208
  303.227
  303.356
  304.965
  304.676
  304.41
  304.18
  303.994
  303.792
  303.471
  303.151
  302.915
  302.792
  302.768
  302.815
  302.906
  303.002
  303.094
  303.167
  303.21
  303.238
  303.258
  303.275
  303.288
  303.298
  303.305
  303.31
  303.313
  303.315
  303.315
  303.314
  303.312
  303.309
  303.307
  303.308
  303.31
  303.317
  303.332
  303.356
  303.389
  303.422
  303.444
  303.499
  297.065
  299.232
  300.369
  300.793
  301.205
  301.615
  302.005
  302.342
  302.616
  302.835
  303.032
  303.142
  303.208
  303.249
  303.273
  303.291
  303.304
  303.314
  303.321
  303.327
  303.331
  303.334
  303.336
  303.337
  303.338
  303.339
  303.34
  303.341
  303.343
  303.346
  303.351
  303.359
  303.373
  303.393
  303.417
  303.44
  303.459
  303.479
  297.496
  299.396
  300.32
  300.99
  301.559
  302.06
  302.477
  302.767
  302.968
  303.106
  303.195
  303.249
  303.281
  303.303
  303.317
  303.328
  303.335
  303.341
  303.345
  303.348
  303.351
  303.353
  303.354
  303.356
  303.357
  303.358
  303.36
  303.361
  303.363
  303.366
  303.37
  303.376
  303.386
  303.399
  303.415
  303.433
  303.431
  303.461
  301.27
  299.526
  299.451
  301.195
  302.054
  302.503
  302.761
  302.939
  303.071
  303.16
  303.224
  303.267
  303.296
  303.314
  303.326
  303.334
  303.34
  303.345
  303.348
  303.351
  303.353
  303.355
  303.357
  303.359
  303.361
  303.362
  303.364
  303.366
  303.368
  303.369
  303.371
  303.373
  303.376
  303.38
  303.385
  303.396
  303.405
  303.411
  303.413
  303.451
)
;

boundaryField
{
  floor
  {
    type wallHeatTransfer;
    Tinf uniform 305.2;
    alphaWall uniform 0.24;
    value nonuniform List<scalar> 29
(
  303.259
  303.521
  303.46
  303.425
  303.425
  303.435
  303.448
  303.467
  303.487
  303.507
  303.526
  303.545
  303.563
  303.58
  303.597
  303.613
  303.63
  303.648
  303.662
  303.702
  303.702
  303.602
  303.553
  303.524
  303.259
  303.521
  303.511
  303.328
  303.219
)
;
  }
  ceiling
  {
    type wallHeatTransfer;
    Tinf uniform 303.2;
    alphaWall uniform 0.24;
    value nonuniform List<scalar> 43
(
  301.397
  299.765
  299.692
  301.321
  302.132
  302.554
  302.794
  302.96
  303.082
  303.164
  303.221
  303.26
  303.284
  303.299
  303.308
  303.313
  303.318
  303.32
  303.323
  303.325
  303.327
  303.329
  303.331
  303.333
  303.335
  303.337
  303.339
  303.342
  303.344
  303.346
  303.349
  303.352
  303.355
  303.36
  303.365
  303.376
  303.385
  303.39
  303.39
  303.423
  304.883
  304.617
  297.843
)
;
  }
  sWall
  {
    type wallHeatTransfer;
    Tinf uniform 315.2;
    alphaWall uniform 0.36;
    value uniform 302.6;
  }
  nWall
  {
    type wallHeatTransfer;
    Tinf uniform 307.2;
    alphaWall uniform 0.36;
    value nonuniform List<scalar> 6
(
  303.987
  303.932
  303.852
  304.015
  303.993
  304.051
)
;
  }
  sideWalls
  {
    type empty;
  }
  glass1
  {
    type wallHeatTransfer;
    Tinf uniform 315.2;
    alphaWall uniform 4.3;
    value nonuniform List<scalar> 9
(
  311.507
  310.868
  310.465
  310.156
  309.899
  309.665
  309.482
  309.547
  309.769
)
;
  }
  glass2
  {
    type wallHeatTransfer;
    Tinf uniform 307.2;
    alphaWall uniform 4.3;
    value nonuniform List<scalar> 2
(
  305.728
  305.833
)
;
  }
  sun
  {
    type wallHeatTransfer;
    Tinf uniform 305.2;
    alphaWall uniform 0.24;
    value nonuniform List<scalar> 14
(
  303.578
  303.328
  303.314
  303.303
  303.294
  303.285
  303.275
  303.266
  303.254
  303.242
  303.232
  303.226
  303.228
  303.238
)
;
  }
  heatsource1
  {
    type fixedGradient;
    gradient uniform 0;
  }
  heatsource2
  {
    type fixedGradient;
    gradient uniform 0;
  }
  Table_master
  {
    type zeroGradient;
  }
  Table_slave
  {
    type zeroGradient;
  }
  inlet
  {
    type fixedValue;
    value uniform 293.15;
  }
  outlet
  {
    type zeroGradient;
  }
} 	// ************************************************************************* //

