// -*- C++ -*-
// File generated by PyFoam - sorry for the ugliness

FoamFile
{
 version 2.0;
 format ascii;
 class volVectorField;
 location "1300";
 object U;
}

dimensions [ 0 1 -1 0 0 0 0 ];

internalField nonuniform List<vector> 459
(
  (0.0348278 0.0857619 0)
  (-0.166793 0.0253364 0)
  (-0.191285 0.0178766 0)
  (-0.222324 0.0122853 0)
  (-0.244962 0.00610401 0)
  (-0.25814 -0.000474011 0)
  (-0.260211 -0.00752293 0)
  (-0.249797 -0.0150745 0)
  (-0.227422 -0.0225094 0)
  (-0.194813 -0.0285241 0)
  (-0.155552 -0.0320206 0)
  (-0.113935 -0.0324451 0)
  (-0.0741477 -0.0300057 0)
  (-0.041433 -0.0259511 0)
  (-0.0297417 -0.0221887 0)
  (-0.00553509 0.00875242 0)
  (-0.0286441 -0.0168262 0)
  (-0.00680928 -0.0265009 0)
  (0.0164591 -0.0202696 0)
  (0.0319119 -0.0138533 0)
  (0.044455 -0.00895852 0)
  (0.0523135 -0.00522098 0)
  (0.0563782 -0.00326423 0)
  (0.0582058 -0.0024771 0)
  (0.0591099 -0.00213618 0)
  (0.0596678 -0.00192498 0)
  (0.0599741 -0.00175476 0)
  (0.0599723 -0.00154731 0)
  (0.059479 -0.00113842 0)
  (0.057974 -0.000164028 0)
  (0.0543397 0.00187862 0)
  (0.0473586 0.0040174 0)
  (0.0413085 0.00564008 0)
  (-0.014193 0.0201932 0)
  (0.209835 0.175755 0)
  (-0.156291 0.0670241 0)
  (-0.15438 0.0529648 0)
  (-0.186592 0.0413665 0)
  (-0.209068 0.0281955 0)
  (-0.222523 0.0133445 0)
  (-0.225286 -0.00353177 0)
  (-0.215781 -0.0219481 0)
  (-0.195116 -0.0394219 0)
  (-0.165441 -0.0528767 0)
  (-0.130496 -0.0601508 0)
  (-0.0943343 -0.0604954 0)
  (-0.0605462 -0.0545148 0)
  (-0.0327057 -0.0438363 0)
  (-0.014899 -0.0308092 0)
  (-0.000827175 -0.0125863 0)
  (-0.0014291 0.0155434 0)
  (0.0626257 0.0359642 0)
  (0.0253997 -0.0178671 0)
  (0.033616 -0.0310512 0)
  (0.0446875 -0.0275563 0)
  (0.0535302 -0.0197531 0)
  (0.0599698 -0.0122905 0)
  (0.0627408 -0.00520682 0)
  (0.0632664 -0.00115278 0)
  (0.0632166 0.000545209 0)
  (0.0633241 0.0013015 0)
  (0.0635249 0.00176747 0)
  (0.0636717 0.00215309 0)
  (0.0637224 0.00262009 0)
  (0.0636345 0.00348013 0)
  (0.0629042 0.00559199 0)
  (0.05923 0.0114776 0)
  (0.0498928 0.0163341 0)
  (0.04582 0.0194196 0)
  (-0.0506889 0.0439289 0)
  (0.370402 0.263086 0)
  (-0.173592 0.106916 0)
  (-0.115991 0.0858004 0)
  (-0.147483 0.0650328 0)
  (-0.167531 0.0433146 0)
  (-0.180125 0.0191778 0)
  (-0.182649 -0.00829833 0)
  (-0.172506 -0.0378339 0)
  (-0.152025 -0.0650077 0)
  (-0.124293 -0.0847416 0)
  (-0.0932751 -0.0942538 0)
  (-0.0625682 -0.0932101 0)
  (-0.0345165 -0.0830393 0)
  (-0.0113026 -0.0658822 0)
  (0.0060282 -0.0430265 0)
  (0.0176205 -0.0163848 0)
  (0.0223888 0.0207877 0)
  (0.110706 -0.0281223 0)
  (0.0742986 -0.0380392 0)
  (0.0687897 -0.0381554 0)
  (0.0703607 -0.0325123 0)
  (0.0717474 -0.0244925 0)
  (0.0730266 -0.0174867 0)
  (0.0717317 -0.0140286 0)
  (0.0672202 -0.00994759 0)
  (0.0639588 -0.00771707 0)
  (0.0624895 -0.00643802 0)
  (0.0618673 -0.00561611 0)
  (0.0615591 -0.00504603 0)
  (0.0615562 -0.00453909 0)
  (0.0622908 -0.00373599 0)
  (0.0648641 -0.000701807 0)
  (0.0628434 0.0160431 0)
  (0.0497751 0.0276304 0)
  (0.0524393 0.035276 0)
  (-0.0827064 0.068645 0)
  (0.515254 0.333375 0)
  (-0.208756 0.142373 0)
  (-0.0751537 0.113796 0)
  (-0.105455 0.0852279 0)
  (-0.120035 0.0574153 0)
  (-0.129478 0.02582 0)
  (-0.129267 -0.012041 0)
  (-0.116084 -0.0533224 0)
  (-0.0950348 -0.0895631 0)
  (-0.0701457 -0.11397 0)
  (-0.0447852 -0.124199 0)
  (-0.0216289 -0.121099 0)
  (-0.00100147 -0.106999 0)
  (0.0161996 -0.0848487 0)
  (0.0305829 -0.0584851 0)
  (0.0458588 -0.0295567 0)
  (0.0676587 0.001876 0)
  (0.0982928 0.0146211 0)
  (0.103865 -0.0238306 0)
  (0.0903194 -0.0338197 0)
  (0.0815839 -0.0326248 0)
  (0.0768273 -0.0282931 0)
  (0.0733443 -0.0221604 0)
  (0.0711235 -0.0144408 0)
  (0.072607 -0.00881528 0)
  (0.0776134 -0.00669882 0)
  (0.0819027 -0.00552026 0)
  (0.0848247 -0.00466291 0)
  (0.0866613 -0.00367302 0)
  (0.0869443 -0.00226862 0)
  (0.0845296 -0.000198466 0)
  (0.0781736 0.00283582 0)
  (0.0654023 0.00736086 0)
  (0.0530645 0.02661 0)
  (0.0407748 0.0428623 0)
  (0.0566436 0.0556109 0)
  (-0.116462 0.0908488 0)
  (0.640588 0.387869 0)
  (-0.251594 0.171417 0)
  (-0.0344156 0.130008 0)
  (-0.0614258 0.0968463 0)
  (-0.06793 0.0656833 0)
  (-0.0714715 0.0292794 0)
  (-0.0630174 -0.0178604 0)
  (-0.04438 -0.07021 0)
  (-0.0239651 -0.112125 0)
  (-0.00469982 -0.137429 0)
  (0.012019 -0.145383 0)
  (0.0247194 -0.138653 0)
  (0.0347347 -0.12169 0)
  (0.042772 -0.0979386 0)
  (0.0501068 -0.0708984 0)
  (0.0587197 -0.0442781 0)
  (0.0713751 -0.024289 0)
  (0.0821218 -0.0224799 0)
  (0.083446 -0.0298149 0)
  (0.0772285 -0.030261 0)
  (0.0692319 -0.0270389 0)
  (0.0627621 -0.0229812 0)
  (0.0579781 -0.0183312 0)
  (0.0552095 -0.012983 0)
  (0.0552663 -0.0074226 0)
  (0.0578003 -0.00473905 0)
  (0.0606881 -0.00375559 0)
  (0.0634397 -0.00294906 0)
  (0.0659394 -0.00131098 0)
  (0.0678299 0.00175571 0)
  (0.0678582 0.0063359 0)
  (0.065429 0.012574 0)
  (0.0599698 0.0211089 0)
  (0.0530005 0.0362876 0)
  (0.042689 0.0542897 0)
  (0.064959 0.0743695 0)
  (-0.0221975 0.103209 0)
  (0.0461189 0.0316287 0)
  (-0.0625743 -0.0347417 0)
  (-0.273097 -0.0574425 0)
  (0.731663 0.433367 0)
  (-0.293302 0.191071 0)
  (-0.00319075 0.126676 0)
  (-0.0165224 0.0982407 0)
  (-0.0125004 0.0682128 0)
  (-0.00786869 0.0272341 0)
  (0.019115 -0.0338764 0)
  (0.0410995 -0.0903454 0)
  (0.0569162 -0.129749 0)
  (0.0667648 -0.150454 0)
  (0.0711973 -0.154251 0)
  (0.0714976 -0.144528 0)
  (0.0691711 -0.125303 0)
  (0.0656556 -0.100525 0)
  (0.0624359 -0.0738926 0)
  (0.0609332 -0.0490302 0)
  (0.062059 -0.0302117 0)
  (0.0628455 -0.0222924 0)
  (0.0596287 -0.0214577 0)
  (0.0527318 -0.0212019 0)
  (0.0449715 -0.0195009 0)
  (0.0385713 -0.0170862 0)
  (0.0340421 -0.0143076 0)
  (0.031643 -0.0112084 0)
  (0.0315802 -0.00839261 0)
  (0.0334609 -0.00733066 0)
  (0.0362517 -0.007202 0)
  (0.0395097 -0.00678148 0)
  (0.0430486 -0.00507197 0)
  (0.0465924 -0.00119559 0)
  (0.0498028 0.00516264 0)
  (0.0514366 0.0136087 0)
  (0.0517909 0.0242913 0)
  (0.0522437 0.0387396 0)
  (0.0509233 0.0565045 0)
  (0.0734728 0.0793126 0)
  (0.0525962 0.0970761 0)
  (0.0934014 0.0678588 0)
  (0.116416 0.0445984 0)
  (-0.129705 -0.00743537 0)
  (0.783109 0.474726 0)
  (-0.314319 0.176677 0)
  (0.0233695 0.0774838 0)
  (0.0416183 0.0752768 0)
  (0.0561304 0.0548943 0)
  (0.0794659 0.00607855 0)
  (0.114664 -0.0583139 0)
  (0.134737 -0.108205 0)
  (0.141892 -0.139071 0)
  (0.138884 -0.152055 0)
  (0.128358 -0.149978 0)
  (0.113168 -0.136482 0)
  (0.0958549 -0.11536 0)
  (0.0786182 -0.0905322 0)
  (0.0631698 -0.0652966 0)
  (0.0507732 -0.0427144 0)
  (0.0419277 -0.0259431 0)
  (0.0352243 -0.0171927 0)
  (0.0285562 -0.0144501 0)
  (0.0214387 -0.0138139 0)
  (0.0147987 -0.0130945 0)
  (0.00955428 -0.0121674 0)
  (0.0059831 -0.0111627 0)
  (0.00421851 -0.01013 0)
  (0.00429596 -0.00945783 0)
  (0.00582678 -0.00970396 0)
  (0.00817938 -0.0103396 0)
  (0.0110948 -0.010512 0)
  (0.0146159 -0.00935635 0)
  (0.0188734 -0.00586496 0)
  (0.0248177 0.000977236 0)
  (0.0308445 0.0102776 0)
  (0.036484 0.0211214 0)
  (0.0436118 0.0340307 0)
  (0.0513297 0.0487358 0)
  (0.0734394 0.0672341 0)
  (0.0864907 0.0748612 0)
  (0.118775 0.0521569 0)
  (0.158548 0.0439753 0)
  (-0.0353998 0.094148 0)
  (0.887632 0.477735 0)
  (-0.0719118 0.156423 0)
  (0.105423 0.00466941 0)
  (0.167728 -0.0136884 0)
  (0.179504 -0.0303457 0)
  (0.213548 -0.0649292 0)
  (0.236272 -0.0985675 0)
  (0.239953 -0.123143 0)
  (0.227076 -0.135962 0)
  (0.202547 -0.13706 0)
  (0.171121 -0.128082 0)
  (0.137013 -0.111637 0)
  (0.103239 -0.0902785 0)
  (0.0722488 -0.0673105 0)
  (0.045585 -0.0452934 0)
  (0.0245659 -0.0266934 0)
  (0.00974548 -0.0141595 0)
  (-6.0203e-05 -0.00835074 0)
  (-0.00698263 -0.00713924 0)
  (-0.0126549 -0.00751653 0)
  (-0.0174292 -0.00804693 0)
  (-0.0211638 -0.00852307 0)
  (-0.0238217 -0.00898877 0)
  (-0.0253853 -0.00952106 0)
  (-0.025925 -0.0102991 0)
  (-0.0257512 -0.011435 0)
  (-0.025229 -0.0126511 0)
  (-0.0244709 -0.0135109 0)
  (-0.0233205 -0.0135294 0)
  (-0.021386 -0.0121317 0)
  (-0.0176917 -0.0085745 0)
  (-0.00877503 -0.00209582 0)
  (0.000148491 0.00640119 0)
  (0.0108266 0.014795 0)
  (0.0225822 0.0219802 0)
  (0.0424492 0.0294119 0)
  (0.0610262 0.0224277 0)
  (0.0804862 -0.00524077 0)
  (0.139813 0.0403578 0)
  (-0.415631 0.207509 0)
  (1.03238 0.430366 0)
  (0.497268 0.285421 0)
  (0.503182 0.192688 0)
  (0.510253 0.122323 0)
  (0.483476 0.0713717 0)
  (0.442497 0.0187898 0)
  (0.39373 -0.0298775 0)
  (0.341302 -0.0652716 0)
  (0.285042 -0.08429 0)
  (0.227263 -0.0885818 0)
  (0.171102 -0.082039 0)
  (0.119428 -0.0687677 0)
  (0.0731754 -0.0513349 0)
  (0.0342269 -0.0332769 0)
  (0.0023942 -0.0169246 0)
  (-0.0193915 -0.00610356 0)
  (-0.0311845 -0.00187422 0)
  (-0.0378103 -0.00113902 0)
  (-0.0421647 -0.00199552 0)
  (-0.0458537 -0.00330083 0)
  (-0.0491782 -0.00460524 0)
  (-0.0521688 -0.00584097 0)
  (-0.054834 -0.00703923 0)
  (-0.0572101 -0.00824313 0)
  (-0.0594234 -0.009497 0)
  (-0.0617434 -0.0107632 0)
  (-0.0644942 -0.0118218 0)
  (-0.0679721 -0.012304 0)
  (-0.0725064 -0.011691 0)
  (-0.0785664 -0.00929514 0)
  (-0.0867664 -0.00429993 0)
  (-0.0971924 0.00391819 0)
  (-0.107794 0.0148629 0)
  (-0.123208 0.0287148 0)
  (-0.147489 0.0455254 0)
  (-0.183159 0.0640575 0)
  (-0.23352 0.0801889 0)
  (-0.290785 0.0912818 0)
  (-0.359535 0.0973385 0)
  (-0.622149 0.0990306 0)
  (-0.150768 0.0850957 0)
  (0.136587 0.06655 0)
  (0.220974 0.0120896 0)
  (0.204626 -0.0245204 0)
  (0.18948 -0.0407659 0)
  (0.167742 -0.0472279 0)
  (0.135975 -0.0469036 0)
  (0.0978139 -0.0413888 0)
  (0.0578788 -0.0322469 0)
  (0.0201695 -0.0206189 0)
  (-0.0180755 -0.00627008 0)
  (-0.0432295 0.00220621 0)
  (-0.0588971 0.00613003 0)
  (-0.0668838 0.00689754 0)
  (-0.0706097 0.00615638 0)
  (-0.0730518 0.00512822 0)
  (-0.0750783 0.00404431 0)
  (-0.0771432 0.00297717 0)
  (-0.0795371 0.00187252 0)
  (-0.0822355 0.000692205 0)
  (-0.085193 -0.000506153 0)
  (-0.0884378 -0.00165208 0)
  (-0.0920377 -0.00265387 0)
  (-0.0960937 -0.00336101 0)
  (-0.10069 -0.00353928 0)
  (-0.10583 -0.00288257 0)
  (-0.111419 -0.00103779 0)
  (-0.117227 0.00235775 0)
  (-0.122653 0.00772047 0)
  (-0.126874 0.0157625 0)
  (-0.130365 0.0276092 0)
  (-0.133393 0.0436525 0)
  (-0.136777 0.0629995 0)
  (-0.141035 0.0819383 0)
  (-0.142959 0.0904831 0)
  (-0.125623 0.0677054 0)
  (-0.0816523 -0.0261233 0)
  (-0.279662 -0.204568 0)
  (-0.0245822 0.234573 0)
  (0.0641354 0.103776 0)
  (0.0402855 0.0228783 0)
  (0.028086 -0.00175001 0)
  (0.021 -0.00857295 0)
  (0.00427106 -0.0116001 0)
  (-0.0202574 -0.00965492 0)
  (-0.0465802 -0.00488431 0)
  (-0.0696004 -8.33415e-05 0)
  (-0.0861073 0.00336161 0)
  (-0.0948898 0.00417877 0)
  (-0.0980604 0.00219853 0)
  (-0.0989071 -0.000647317 0)
  (-0.098622 -0.00388944 0)
  (-0.0983534 -0.00720347 0)
  (-0.0985766 -0.0102476 0)
  (-0.0992995 -0.0128902 0)
  (-0.100428 -0.0149576 0)
  (-0.101835 -0.0163516 0)
  (-0.103513 -0.0171404 0)
  (-0.105489 -0.0174058 0)
  (-0.10776 -0.0172916 0)
  (-0.110329 -0.0169588 0)
  (-0.113152 -0.0163732 0)
  (-0.116105 -0.0154053 0)
  (-0.118947 -0.0138173 0)
  (-0.121307 -0.011239 0)
  (-0.122667 -0.00711875 0)
  (-0.122467 -0.00117752 0)
  (-0.119731 0.00714191 0)
  (-0.113007 0.0187251 0)
  (-0.101016 0.0343444 0)
  (-0.0835001 0.0535749 0)
  (-0.0613776 0.0722817 0)
  (-0.037523 0.0832576 0)
  (0.00261729 0.0675508 0)
  (0.143621 -0.00390843 0)
  (-0.207716 -0.115347 0)
  (0.941147 -0.00299327 0)
  (-0.53442 -0.459406 0)
  (-0.316444 0.0915291 0)
  (-0.225284 -0.0196554 0)
  (-0.17635 -0.0439669 0)
  (-0.160315 -0.0330898 0)
  (-0.157524 -0.0202985 0)
  (-0.159164 -0.00979242 0)
  (-0.16071 -0.000793176 0)
  (-0.159002 0.00679857 0)
  (-0.15492 0.0136197 0)
  (-0.148415 0.0197942 0)
  (-0.140353 0.0250842 0)
  (-0.132165 0.029387 0)
  (-0.124826 0.033305 0)
  (-0.118685 0.0370335 0)
  (-0.113804 0.0406289 0)
  (-0.110033 0.0438963 0)
  (-0.107223 0.0464818 0)
  (-0.105273 0.0481037 0)
  (-0.104093 0.0486516 0)
  (-0.103604 0.0482024 0)
  (-0.103732 0.0469044 0)
  (-0.104402 0.0450592 0)
  (-0.105525 0.0429989 0)
  (-0.10699 0.0408386 0)
  (-0.10862 0.0386681 0)
  (-0.110136 0.0365619 0)
  (-0.111108 0.034581 0)
  (-0.110862 0.032794 0)
  (-0.108164 0.0319429 0)
  (-0.101129 0.0326909 0)
  (-0.0872817 0.0357839 0)
  (-0.0647497 0.0421163 0)
  (-0.0341596 0.0522032 0)
  (0.0147441 0.0658163 0)
  (0.0598169 0.0671225 0)
  (0.10275 0.0520256 0)
  (0.164408 0.0223405 0)
  (-0.216993 -0.0333734 0)
)
;

boundaryField
{
  floor
  {
    type noSlip;
  }
  ceiling
  {
    type noSlip;
  }
  sWall
  {
    type noSlip;
  }
  nWall
  {
    type noSlip;
  }
  sideWalls
  {
    type empty;
  }
  glass1
  {
    type noSlip;
  }
  glass2
  {
    type noSlip;
  }
  sun
  {
    type noSlip;
  }
  heatsource1
  {
    type noSlip;
  }
  heatsource2
  {
    type noSlip;
  }
  Table_master
  {
    type noSlip;
  }
  Table_slave
  {
    type noSlip;
  }
  inlet
  {
    type fixedValue;
    value uniform (0.3 0 0);
  }
  outlet
  {
    type zeroGradient;
  }
} 	// ************************************************************************* //

