/*--------------------------------*- C++ -*----------------------------------*\
  =========                 |
  \\      /  F ield         | OpenFOAM: The Open Source CFD Toolbox
   \\    /   O peration     | Website:  https://openfoam.org
    \\  /    A nd           | Version:  6
     \\/     M anipulation  |
\*---------------------------------------------------------------------------*/
FoamFile
{
    version     2.0;
    format      ascii;
    class       volScalarField;
    location    "200";
    object      nut;
}
// * * * * * * * * * * * * * * * * * * * * * * * * * * * * * * * * * * * * * //

dimensions      [0 2 -1 0 0 0 0];

internalField   nonuniform List<scalar> 
459
(
0.000735575
0.000745483
0.000634041
0.000650667
0.000674973
0.00069937
0.000723304
0.000747111
0.000771643
0.000796508
0.000817821
0.000834366
0.000845337
0.000850161
0.000844243
0.00037539
0.00041083
0.000420763
0.000342951
0.000264822
0.000238446
0.000232326
0.000231342
0.000241533
0.000262324
0.000290372
0.000320855
0.000351396
0.000381259
0.000421899
0.000468267
0.000494212
0.000485099
0.000431135
0.00133253
0.00242807
0.00149209
0.00217463
0.0023837
0.00255379
0.00273099
0.00289874
0.0030338
0.00312266
0.00315685
0.00310411
0.00291168
0.00249421
0.00177193
0.000917559
0.000629945
0.000502698
0.00109752
0.00127441
0.00129155
0.00112133
0.000612851
0.000327009
0.000312473
0.000396231
0.000556535
0.000761172
0.000977902
0.00120335
0.00141068
0.00158792
0.00180271
0.00169389
0.00163064
0.000544494
0.00185448
0.00430238
0.00167195
0.00287098
0.00359311
0.00383094
0.00401316
0.00416807
0.00428365
0.00435506
0.00436451
0.00427212
0.00401577
0.0035151
0.0027309
0.00180347
0.000993811
0.000884621
0.00241633
0.00222558
0.00195687
0.00153347
0.00107637
0.000358128
0.000313461
0.000358124
0.000403398
0.000450236
0.000501078
0.000558976
0.000628914
0.000718847
0.0017443
0.00154391
0.0012231
0.000711457
0.00233149
0.00650158
0.00225522
0.00278789
0.004164
0.00453265
0.00472884
0.00489608
0.00503849
0.00514522
0.00522853
0.00525175
0.0051413
0.00478366
0.00405572
0.0029577
0.00180814
0.00113986
0.00284963
0.00291251
0.00264667
0.00212553
0.00161284
0.00112362
0.000735203
0.0007378
0.000741473
0.000744703
0.000748476
0.000755077
0.00076836
0.000794852
0.000867127
0.00264146
0.00317537
0.00316141
0.0010677
0.00275858
0.00870684
0.00337215
0.00257218
0.00414988
0.00471172
0.00494456
0.00512851
0.00529819
0.0054601
0.00567451
0.00593485
0.00619796
0.00639975
0.00646138
0.00631673
0.0059708
0.00554375
0.00545892
0.0051609
0.0047962
0.00446962
0.00418797
0.00395674
0.00377504
0.00367534
0.00357507
0.00347615
0.00339564
0.00335751
0.00338134
0.00347357
0.00363118
0.00384565
0.00397204
0.00391835
0.00340093
0.00145224
0.00128875
0.0011237
0.00314809
0.0105612
0.0052566
0.00292507
0.00356259
0.004257
0.00463042
0.00486945
0.00503375
0.00518665
0.0054667
0.0058595
0.00633374
0.00683496
0.00728223
0.00758055
0.00764893
0.00748375
0.00718302
0.00680524
0.00642705
0.00609371
0.00580596
0.00554899
0.00530069
0.00504697
0.00478188
0.0045176
0.00428177
0.0041109
0.00403014
0.00403434
0.00408607
0.00413123
0.00413379
0.00404561
0.0037103
0.00300986
0.00225082
0.00116902
0.00349162
0.0117948
0.00807363
0.00476934
0.00345474
0.00354669
0.00404313
0.00443637
0.00458674
0.00471591
0.00494614
0.00529795
0.00578454
0.00638198
0.00700996
0.00754739
0.00786877
0.0079344
0.00780418
0.00756764
0.00730109
0.00704597
0.00680881
0.00657711
0.00632869
0.00604733
0.00572838
0.00537868
0.00502035
0.00469235
0.00443063
0.00424446
0.00410188
0.00397092
0.00379944
0.00352567
0.00309919
0.00256
0.00202237
0.00114489
0.00353643
0.0112641
0.00940564
0.00774693
0.00578844
0.00462488
0.00436016
0.00450942
0.0045486
0.00454788
0.00460052
0.00474054
0.00500604
0.00543412
0.00601721
0.00666698
0.00718982
0.00748713
0.00758891
0.00755755
0.00746033
0.00734592
0.00723654
0.00713242
0.0070181
0.00687344
0.00668129
0.00643387
0.00613645
0.0058206
0.00551424
0.00518602
0.00483329
0.00444339
0.00402757
0.0036116
0.00321545
0.00281975
0.00246517
0.00144759
0.00339622
0.00396455
0.00684754
0.0073027
0.00663583
0.00580373
0.00518185
0.00480197
0.00455927
0.00442067
0.00435971
0.00435656
0.00441667
0.00457139
0.00486239
0.00529583
0.00578923
0.00622563
0.00653922
0.00672735
0.00682479
0.00687419
0.00690984
0.00695291
0.00701178
0.00708359
0.00715029
0.0071934
0.0071873
0.00709115
0.00689202
0.00666551
0.00648222
0.00641077
0.00646051
0.00636017
0.00554855
0.00458225
0.00455825
0.00160231
0.0133419
0.0137001
0.00861193
0.00687248
0.00592966
0.00532714
0.00491506
0.00461548
0.00438465
0.00420573
0.00407348
0.0039946
0.00398845
0.00408069
0.00428124
0.00456391
0.00487461
0.00516165
0.00539913
0.0055881
0.00574547
0.00589352
0.00605412
0.00624624
0.00648069
0.00675127
0.00702439
0.00720419
0.00724426
0.00717075
0.00703922
0.00691341
0.00682129
0.0067029
0.00627331
0.00539188
0.00493738
0.00155878
0.00568961
0.0120766
0.00857471
0.0069364
0.00596391
0.00528728
0.00478531
0.0043941
0.00406185
0.00377383
0.00353025
0.00333164
0.0031804
0.0030822
0.0030448
0.00307363
0.00316618
0.00330939
0.00348293
0.00366625
0.00384522
0.00401574
0.00418444
0.00436791
0.00459007
0.00487372
0.0052249
0.00559114
0.00590147
0.0061013
0.00617429
0.00613649
0.00600816
0.00576873
0.00519524
0.00437685
0.00400089
0.0013695
0.00269795
0.00338033
0.00439487
0.00404207
0.00333056
0.00283819
0.00247901
0.0022023
0.00198041
0.00179711
0.00164519
0.00151707
0.00140686
0.00131095
0.00122705
0.00115374
0.00109008
0.00103548
0.000989449
0.000951467
0.000920857
0.000896784
0.000878362
0.000864829
0.000855758
0.000851272
0.000852245
0.000860356
0.000877932
0.00091243
0.000966341
0.00103397
0.00110186
0.00115441
0.00118046
0.00117421
0.00115527
0.00112505
0.00112257
0.001062
)
;

boundaryField
{
    floor
    {
        type            nutkWallFunction;
        Cmu             0.09;
        kappa           0.41;
        E               9.8;
        value           nonuniform List<scalar> 
29
(
0.00010222
4.35484e-05
4.82149e-05
4.9513e-05
3.92276e-05
2.85868e-05
2.49034e-05
2.40402e-05
2.39001e-05
2.53349e-05
2.82378e-05
3.21054e-05
3.62524e-05
4.03554e-05
4.43232e-05
4.96596e-05
5.56697e-05
5.89997e-05
5.78316e-05
5.08621e-05
5.08621e-05
6.539e-05
8.61367e-05
0.000128653
0.00010222
4.35483e-05
6.00828e-05
0.000107048
0.000137041
)
;
    }
    ceiling
    {
        type            nutkWallFunction;
        Cmu             0.09;
        kappa           0.41;
        E               9.8;
        value           nonuniform List<scalar> 
43
(
0.000308394
0.000379626
0.000482935
0.000447254
0.000374404
0.000323086
0.00028508
0.000255411
0.000231335
0.00021123
0.0001944
0.000180074
0.000167644
0.000156739
0.000147128
0.000138667
0.000131272
0.00012489
0.00011948
0.000114993
0.000111362
0.000108497
0.000106298
0.00010468
0.000103594
0.000103056
0.000103174
0.000104147
0.000106251
0.000110365
0.000116757
0.000124716
0.000132647
0.000138747
0.000141758
0.000141037
0.000138847
0.000135344
0.000135055
0.000127999
0.000381189
0.000439329
0.000611439
)
;
    }
    sWall
    {
        type            nutkWallFunction;
        Cmu             0.09;
        kappa           0.41;
        E               9.8;
        value           uniform 0.000308459;
    }
    nWall
    {
        type            nutkWallFunction;
        Cmu             0.09;
        kappa           0.41;
        E               9.8;
        value           nonuniform List<scalar> 6(0.000135183 0.000140436 0.000137644 0.000184744 0.000163406 0.000128007);
    }
    sideWalls
    {
        type            empty;
    }
    glass1
    {
        type            nutkWallFunction;
        Cmu             0.09;
        kappa           0.41;
        E               9.8;
        value           nonuniform List<scalar> 9(8.90574e-05 0.000159371 0.000217823 0.000269659 0.000315112 0.000355923 0.000391486 0.000396112 0.000381683);
    }
    glass2
    {
        type            nutkWallFunction;
        Cmu             0.09;
        kappa           0.41;
        E               9.8;
        value           nonuniform List<scalar> 2(0.000172309 0.000189687);
    }
    sun
    {
        type            nutkWallFunction;
        Cmu             0.09;
        kappa           0.41;
        E               9.8;
        value           nonuniform List<scalar> 
14
(
8.90809e-05
9.02885e-05
7.65939e-05
7.86541e-05
8.16547e-05
8.46535e-05
8.75832e-05
9.04861e-05
9.34659e-05
9.64747e-05
9.90449e-05
0.000101034
0.000102351
0.000102929
)
;
    }
    heatsource1
    {
        type            nutkWallFunction;
        Cmu             0.09;
        kappa           0.41;
        E               9.8;
        value           nonuniform List<scalar> 3(0.000172744 0.000154182 0.000135172);
    }
    heatsource2
    {
        type            nutkWallFunction;
        Cmu             0.09;
        kappa           0.41;
        E               9.8;
        value           nonuniform List<scalar> 4(0.000110968 7.60896e-05 7.60895e-05 0.000119983);
    }
    Table_master
    {
        type            nutkWallFunction;
        Cmu             0.09;
        kappa           0.41;
        E               9.8;
        value           nonuniform List<scalar> 9(4.12722e-05 3.5271e-05 4.12669e-05 4.72481e-05 5.33473e-05 5.98793e-05 6.72196e-05 7.59646e-05 8.70412e-05);
    }
    Table_slave
    {
        type            nutkWallFunction;
        Cmu             0.09;
        kappa           0.41;
        E               9.8;
        value           nonuniform List<scalar> 9(8.90375e-05 8.93542e-05 8.9802e-05 9.01957e-05 9.06553e-05 9.14582e-05 9.30709e-05 9.62769e-05 0.000104963);
    }
    inlet
    {
        type            calculated;
        value           uniform 0.0133419;
    }
    outlet
    {
        type            calculated;
        value           nonuniform List<scalar> 2(0.00269795 0.00338033);
    }
}


// ************************************************************************* //
