// -*- C++ -*-
// File generated by PyFoam - sorry for the ugliness

FoamFile
{
 version 2.0;
 format ascii;
 class volVectorField;
 location "700";
 object U;
}

dimensions [ 0 1 -1 0 0 0 0 ];

internalField nonuniform List<vector> 459
(
  (0.0288029 0.0874441 0)
  (-0.17082 0.0268296 0)
  (-0.198189 0.0174193 0)
  (-0.228968 0.0104046 0)
  (-0.249091 0.00275698 0)
  (-0.256989 -0.0053756 0)
  (-0.250505 -0.0139694 0)
  (-0.229981 -0.022793 0)
  (-0.19702 -0.0303465 0)
  (-0.155526 -0.035174 0)
  (-0.110656 -0.0364714 0)
  (-0.0676915 -0.0338462 0)
  (-0.0310719 -0.0267177 0)
  (-0.00260198 -0.012518 0)
  (-0.0168674 0.00588021 0)
  (-0.0127407 0.0109252 0)
  (-0.0352846 -0.014653 0)
  (-0.0145065 -0.0256405 0)
  (0.00932769 -0.022793 0)
  (0.027314 -0.0165771 0)
  (0.0423663 -0.0112942 0)
  (0.0524094 -0.00653647 0)
  (0.0580055 -0.00395907 0)
  (0.0606267 -0.00294975 0)
  (0.0619237 -0.00253303 0)
  (0.0627607 -0.0022736 0)
  (0.0633222 -0.00206345 0)
  (0.0635524 -0.00183409 0)
  (0.063255 -0.00140468 0)
  (0.0619007 -0.00041405 0)
  (0.0583362 0.00164827 0)
  (0.0512795 0.00401361 0)
  (0.0434356 0.00660933 0)
  (-0.00718982 0.021519 0)
  (0.200234 0.179156 0)
  (-0.157469 0.0717368 0)
  (-0.159574 0.054256 0)
  (-0.191559 0.0396789 0)
  (-0.211889 0.0229985 0)
  (-0.220441 0.00407965 0)
  (-0.214844 -0.0169465 0)
  (-0.19589 -0.0377701 0)
  (-0.165945 -0.0545762 0)
  (-0.12931 -0.0643872 0)
  (-0.0907835 -0.0662557 0)
  (-0.0546414 -0.0604093 0)
  (-0.0240965 -0.0473089 0)
  (0.000215852 -0.0263194 0)
  (0.0130488 -0.00564689 0)
  (0.0231153 0.00442975 0)
  (0.0186134 0.0204112 0)
  (0.0525076 0.0411163 0)
  (0.0146475 -0.0190882 0)
  (0.0278143 -0.0337471 0)
  (0.0397874 -0.0315458 0)
  (0.0500304 -0.0243424 0)
  (0.0582284 -0.0165606 0)
  (0.0620857 -0.0074683 0)
  (0.0630212 -0.00205154 0)
  (0.0630415 0.000130455 0)
  (0.0631899 0.00102416 0)
  (0.0634496 0.00154022 0)
  (0.0636418 0.00193947 0)
  (0.0637313 0.00242984 0)
  (0.063664 0.00331353 0)
  (0.0629584 0.00543919 0)
  (0.0593622 0.0112344 0)
  (0.0502612 0.0164065 0)
  (0.0447383 0.0209162 0)
  (-0.043988 0.0459435 0)
  (0.357865 0.267863 0)
  (-0.171114 0.113345 0)
  (-0.119975 0.0874121 0)
  (-0.151116 0.0620766 0)
  (-0.169672 0.0345955 0)
  (-0.177583 0.00365588 0)
  (-0.170807 -0.0302388 0)
  (-0.15134 -0.0628458 0)
  (-0.12295 -0.0876 0)
  (-0.0905832 -0.100378 0)
  (-0.0583618 -0.100923 0)
  (-0.0290925 -0.0905167 0)
  (-0.00457825 -0.0709649 0)
  (0.0155654 -0.0439336 0)
  (0.0294921 -0.0172362 0)
  (0.03684 0.00694881 0)
  (0.0373895 0.0421217 0)
  (0.107962 -0.0123172 0)
  (0.0739468 -0.0324322 0)
  (0.0684423 -0.0389324 0)
  (0.069677 -0.0364879 0)
  (0.0711922 -0.0297731 0)
  (0.0732202 -0.0233067 0)
  (0.0723356 -0.0182437 0)
  (0.066267 -0.0124039 0)
  (0.0616975 -0.0092311 0)
  (0.0596185 -0.00743995 0)
  (0.0586926 -0.0062981 0)
  (0.0581288 -0.00552227 0)
  (0.0578563 -0.00490188 0)
  (0.0583483 -0.0039993 0)
  (0.0607147 -0.000828901 0)
  (0.0587493 0.0156929 0)
  (0.0463856 0.0272887 0)
  (0.0487597 0.0359891 0)
  (-0.0783355 0.0704594 0)
  (0.501199 0.339115 0)
  (-0.202817 0.149753 0)
  (-0.078055 0.115961 0)
  (-0.107486 0.0817102 0)
  (-0.121469 0.0458125 0)
  (-0.125884 0.00367433 0)
  (-0.113743 -0.0437588 0)
  (-0.0921538 -0.087515 0)
  (-0.0658588 -0.118162 0)
  (-0.0395635 -0.131737 0)
  (-0.0156649 -0.129932 0)
  (0.00536785 -0.114823 0)
  (0.0221323 -0.0907379 0)
  (0.0366361 -0.0612072 0)
  (0.0500742 -0.0306749 0)
  (0.0647487 -0.00140684 0)
  (0.0840914 0.0311763 0)
  (0.114106 0.0358701 0)
  (0.114488 -0.00959558 0)
  (0.100198 -0.0280248 0)
  (0.0899497 -0.0327976 0)
  (0.082784 -0.031536 0)
  (0.0768536 -0.0266829 0)
  (0.0721251 -0.0193667 0)
  (0.0719183 -0.0113912 0)
  (0.076901 -0.0078317 0)
  (0.0807916 -0.00588169 0)
  (0.082627 -0.00462421 0)
  (0.0831858 -0.00344319 0)
  (0.082182 -0.00196053 0)
  (0.078885 5.72401e-05 0)
  (0.072022 0.00297996 0)
  (0.0589063 0.00740668 0)
  (0.0469065 0.0261235 0)
  (0.0354758 0.0416505 0)
  (0.0522194 0.0542798 0)
  (-0.115126 0.0911571 0)
  (0.626491 0.393977 0)
  (-0.243415 0.178779 0)
  (-0.0362883 0.132628 0)
  (-0.0611389 0.0932638 0)
  (-0.0677289 0.0524406 0)
  (-0.0625702 0.000817749 0)
  (-0.0402891 -0.0605712 0)
  (-0.0173287 -0.111445 0)
  (0.0039807 -0.143175 0)
  (0.0208211 -0.15351 0)
  (0.0334888 -0.14745 0)
  (0.0428667 -0.129345 0)
  (0.0499787 -0.103155 0)
  (0.0563073 -0.0727399 0)
  (0.0632603 -0.0424625 0)
  (0.0724924 -0.0164169 0)
  (0.0861163 3.74414e-05 0)
  (0.0959487 -0.00831993 0)
  (0.0953759 -0.0203855 0)
  (0.0882072 -0.0250713 0)
  (0.0788288 -0.0254862 0)
  (0.0701002 -0.0237503 0)
  (0.0626636 -0.0201109 0)
  (0.0571128 -0.0145497 0)
  (0.0548427 -0.00710636 0)
  (0.0556754 -0.00315553 0)
  (0.0569566 -0.00162976 0)
  (0.0580514 -0.000706389 0)
  (0.0590871 0.00078928 0)
  (0.0597988 0.0033706 0)
  (0.0592661 0.00730958 0)
  (0.056858 0.012927 0)
  (0.0518402 0.0208592 0)
  (0.045668 0.0351243 0)
  (0.0364415 0.0519069 0)
  (0.0605892 0.071015 0)
  (-0.0250853 0.101161 0)
  (0.0465086 0.0307454 0)
  (-0.0603286 -0.0330711 0)
  (-0.269984 -0.0556898 0)
  (0.719158 0.439136 0)
  (-0.28439 0.197384 0)
  (-0.00376812 0.128933 0)
  (-0.0126227 0.0937885 0)
  (-0.00847733 0.0509026 0)
  (0.0202418 -0.0162577 0)
  (0.04885 -0.0839641 0)
  (0.0685487 -0.131355 0)
  (0.0800214 -0.156685 0)
  (0.0844762 -0.162344 0)
  (0.0838011 -0.152514 0)
  (0.0798034 -0.131735 0)
  (0.074409 -0.104401 0)
  (0.0693941 -0.0743736 0)
  (0.0662556 -0.0456878 0)
  (0.0660806 -0.0222159 0)
  (0.0691367 -0.00776356 0)
  (0.0709789 -0.00635141 0)
  (0.0679191 -0.010464 0)
  (0.0608309 -0.0142923 0)
  (0.0522641 -0.015888 0)
  (0.044214 -0.0155114 0)
  (0.0374056 -0.0134939 0)
  (0.0323883 -0.0100788 0)
  (0.0298308 -0.00604452 0)
  (0.0296493 -0.00400471 0)
  (0.0306954 -0.00349377 0)
  (0.0324689 -0.00318359 0)
  (0.0348493 -0.00196257 0)
  (0.037884 0.00105776 0)
  (0.0406631 0.00621687 0)
  (0.0426464 0.0135505 0)
  (0.0438456 0.0232553 0)
  (0.0454053 0.0365349 0)
  (0.0453306 0.0528229 0)
  (0.069493 0.0744568 0)
  (0.049759 0.0926771 0)
  (0.0921366 0.0649737 0)
  (0.114841 0.0433308 0)
  (-0.126768 -0.00589691 0)
  (0.776714 0.480017 0)
  (-0.305171 0.181341 0)
  (0.0264098 0.0766525 0)
  (0.0506458 0.0634024 0)
  (0.0724085 0.0247226 0)
  (0.120128 -0.049259 0)
  (0.148267 -0.108001 0)
  (0.159813 -0.144024 0)
  (0.157991 -0.159233 0)
  (0.146377 -0.157318 0)
  (0.128644 -0.142526 0)
  (0.108095 -0.119387 0)
  (0.0876649 -0.0920929 0)
  (0.0694359 -0.0637878 0)
  (0.055001 -0.0379014 0)
  (0.04519 -0.0177538 0)
  (0.0397195 -0.00562934 0)
  (0.036111 -0.00251168 0)
  (0.0315808 -0.00437109 0)
  (0.0255447 -0.00711549 0)
  (0.0188772 -0.00871603 0)
  (0.0125688 -0.00898526 0)
  (0.00719681 -0.00817887 0)
  (0.00329287 -0.00661725 0)
  (0.00135626 -0.00501203 0)
  (0.00130414 -0.0046009 0)
  (0.00247863 -0.0051432 0)
  (0.00453584 -0.00573845 0)
  (0.00747394 -0.00545167 0)
  (0.0114594 -0.00324441 0)
  (0.0174493 0.00194803 0)
  (0.0237719 0.00964663 0)
  (0.0304086 0.0191191 0)
  (0.0387432 0.0306022 0)
  (0.0478121 0.043667 0)
  (0.0710828 0.0609029 0)
  (0.0853972 0.0687386 0)
  (0.117956 0.0482326 0)
  (0.156934 0.041835 0)
  (-0.0337152 0.091179 0)
  (0.883236 0.479687 0)
  (-0.0595112 0.159532 0)
  (0.113806 -0.00237474 0)
  (0.182727 -0.0445028 0)
  (0.230739 -0.0751572 0)
  (0.258183 -0.107183 0)
  (0.265533 -0.131955 0)
  (0.254082 -0.144283 0)
  (0.227934 -0.143968 0)
  (0.192661 -0.132977 0)
  (0.153376 -0.113943 0)
  (0.114181 -0.090222 0)
  (0.0784392 -0.065155 0)
  (0.0478274 -0.0407529 0)
  (0.0243595 -0.0198947 0)
  (0.00861853 -0.00546043 0)
  (-0.000584032 0.00165022 0)
  (-0.00499486 0.00246765 0)
  (-0.00838211 0.00043392 0)
  (-0.0121838 -0.0018956 0)
  (-0.0165487 -0.00344317 0)
  (-0.0207954 -0.00419413 0)
  (-0.0244843 -0.00437361 0)
  (-0.0271993 -0.00431078 0)
  (-0.0286713 -0.00449206 0)
  (-0.0290534 -0.005388 0)
  (-0.0287723 -0.00683719 0)
  (-0.0280605 -0.0083484 0)
  (-0.0268577 -0.00937328 0)
  (-0.0248121 -0.00929355 0)
  (-0.0210412 -0.00735352 0)
  (-0.0131578 -0.00288934 0)
  (-0.00301377 0.00352655 0)
  (0.00883532 0.0106428 0)
  (0.0216283 0.016198 0)
  (0.0422055 0.0223541 0)
  (0.0615571 0.0169726 0)
  (0.0799677 -0.00345197 0)
  (0.136381 0.048337 0)
  (-0.43131 0.203206 0)
  (1.03162 0.428777 0)
  (0.496221 0.283512 0)
  (0.504435 0.182538 0)
  (0.525131 0.100895 0)
  (0.496947 0.0363781 0)
  (0.441697 -0.0206462 0)
  (0.382103 -0.0616169 0)
  (0.319336 -0.0831876 0)
  (0.253895 -0.0877126 0)
  (0.189509 -0.080057 0)
  (0.12941 -0.0645734 0)
  (0.0761873 -0.0453623 0)
  (0.0319422 -0.0258116 0)
  (-0.00483606 -0.00784701 0)
  (-0.0269484 0.00238035 0)
  (-0.0374842 0.00629488 0)
  (-0.0417661 0.00683954 0)
  (-0.043974 0.00544041 0)
  (-0.0459576 0.00328942 0)
  (-0.0482847 0.00128999 0)
  (-0.050783 -0.000237083 0)
  (-0.0534262 -0.00133397 0)
  (-0.0560201 -0.00217756 0)
  (-0.0583311 -0.00301272 0)
  (-0.0603178 -0.00405871 0)
  (-0.0622239 -0.00541104 0)
  (-0.0644559 -0.00687532 0)
  (-0.0674034 -0.00807085 0)
  (-0.0714402 -0.00849572 0)
  (-0.0769722 -0.00749914 0)
  (-0.0844936 -0.00428897 0)
  (-0.0941214 0.00176432 0)
  (-0.104878 0.0105418 0)
  (-0.11891 0.0220434 0)
  (-0.140705 0.0363448 0)
  (-0.172335 0.0528916 0)
  (-0.217524 0.0687835 0)
  (-0.272754 0.0815052 0)
  (-0.347118 0.089115 0)
  (-0.608798 0.084945 0)
  (-0.122028 0.0665466 0)
  (0.119852 0.02449 0)
  (0.186881 -0.0406239 0)
  (0.171906 -0.0586379 0)
  (0.150197 -0.0565335 0)
  (0.120103 -0.0482077 0)
  (0.0820273 -0.036808 0)
  (0.0414689 -0.0232661 0)
  (-0.00132408 -0.00766578 0)
  (-0.0368372 0.00434591 0)
  (-0.0587403 0.0106188 0)
  (-0.0703165 0.0129127 0)
  (-0.0751557 0.0126414 0)
  (-0.0770607 0.0116389 0)
  (-0.0777016 0.0105417 0)
  (-0.0782037 0.00939032 0)
  (-0.0791454 0.00836822 0)
  (-0.0806449 0.00772313 0)
  (-0.0825275 0.00752653 0)
  (-0.0845897 0.0076346 0)
  (-0.0866426 0.00777046 0)
  (-0.0887098 0.0076975 0)
  (-0.0909085 0.00725234 0)
  (-0.0934564 0.00641295 0)
  (-0.0965419 0.00542677 0)
  (-0.100217 0.00476292 0)
  (-0.104461 0.00483453 0)
  (-0.109097 0.00604633 0)
  (-0.113617 0.00905038 0)
  (-0.117527 0.0145305 0)
  (-0.120931 0.0234988 0)
  (-0.123758 0.0364796 0)
  (-0.126299 0.0530688 0)
  (-0.128183 0.0710891 0)
  (-0.126442 0.0840064 0)
  (-0.109086 0.0774437 0)
  (-0.0687492 0.0235917 0)
  (-0.193664 -0.177159 0)
  (0.0112367 0.217065 0)
  (0.0559124 0.0749269 0)
  (0.0222573 -0.00197201 0)
  (-0.00226357 -0.0189155 0)
  (-0.0294245 -0.0127685 0)
  (-0.0570354 -0.00687277 0)
  (-0.0820315 -0.00141889 0)
  (-0.100692 0.00347925 0)
  (-0.110702 0.00603853 0)
  (-0.114338 0.00553089 0)
  (-0.114477 0.0032726 0)
  (-0.112392 0.000554715 0)
  (-0.109448 -0.00254458 0)
  (-0.106644 -0.00576488 0)
  (-0.104367 -0.00903295 0)
  (-0.102835 -0.0125033 0)
  (-0.102133 -0.0162375 0)
  (-0.102187 -0.0200781 0)
  (-0.102791 -0.0237454 0)
  (-0.103719 -0.0269575 0)
  (-0.104806 -0.0294936 0)
  (-0.105984 -0.0312059 0)
  (-0.10725 -0.0319993 0)
  (-0.108619 -0.0317762 0)
  (-0.110072 -0.0304701 0)
  (-0.111481 -0.0280488 0)
  (-0.112572 -0.0243357 0)
  (-0.113022 -0.0190951 0)
  (-0.112385 -0.0122409 0)
  (-0.109818 -0.0034291 0)
  (-0.104144 0.00786035 0)
  (-0.0941327 0.0221468 0)
  (-0.0790441 0.0390512 0)
  (-0.0589522 0.0552914 0)
  (-0.0363759 0.0636812 0)
  (0.0334855 0.0312094 0)
  (0.146811 -0.0409497 0)
  (-0.0474447 -0.0682562 0)
  (-0.0893276 -0.343117 0)
  (-0.435629 -0.123348 0)
  (-0.308558 0.0846946 0)
  (-0.247358 -0.0149723 0)
  (-0.206729 -0.0215039 0)
  (-0.199363 -0.00669819 0)
  (-0.199381 0.00461219 0)
  (-0.19789 0.0127514 0)
  (-0.193867 0.0200987 0)
  (-0.186721 0.0270687 0)
  (-0.177004 0.0332865 0)
  (-0.166171 0.0384164 0)
  (-0.155621 0.0428629 0)
  (-0.146083 0.0471364 0)
  (-0.13781 0.0515314 0)
  (-0.130692 0.0563362 0)
  (-0.124475 0.0616804 0)
  (-0.118987 0.0675166 0)
  (-0.114149 0.0736196 0)
  (-0.109923 0.079594 0)
  (-0.106272 0.0849553 0)
  (-0.103163 0.0892656 0)
  (-0.100571 0.092223 0)
  (-0.0984886 0.0936601 0)
  (-0.0969241 0.0934898 0)
  (-0.0958804 0.0916764 0)
  (-0.0953133 0.0882949 0)
  (-0.0950885 0.0835844 0)
  (-0.0949041 0.0778958 0)
  (-0.0941636 0.0717893 0)
  (-0.0918516 0.066104 0)
  (-0.0863846 0.0616876 0)
  (-0.075661 0.0594341 0)
  (-0.0579866 0.0602579 0)
  (-0.03362 0.0646576 0)
  (0.000518151 0.0712036 0)
  (0.0342705 0.0670369 0)
  (0.0855709 0.0365313 0)
  (0.121541 0.00095021 0)
  (-0.502005 0.0772652 0)
)
;

boundaryField
{
  floor
  {
    type noSlip;
  }
  ceiling
  {
    type noSlip;
  }
  sWall
  {
    type noSlip;
  }
  nWall
  {
    type noSlip;
  }
  sideWalls
  {
    type empty;
  }
  glass1
  {
    type noSlip;
  }
  glass2
  {
    type noSlip;
  }
  sun
  {
    type noSlip;
  }
  heatsource1
  {
    type noSlip;
  }
  heatsource2
  {
    type noSlip;
  }
  Table_master
  {
    type noSlip;
  }
  Table_slave
  {
    type noSlip;
  }
  inlet
  {
    type fixedValue;
    value uniform (0.3 0 0);
  }
  outlet
  {
    type zeroGradient;
  }
} 	// ************************************************************************* //

