/*--------------------------------*- C++ -*----------------------------------*\
  =========                 |
  \\      /  F ield         | OpenFOAM: The Open Source CFD Toolbox
   \\    /   O peration     | Website:  https://openfoam.org
    \\  /    A nd           | Version:  6
     \\/     M anipulation  |
\*---------------------------------------------------------------------------*/
FoamFile
{
    version     2.0;
    format      ascii;
    class       volScalarField;
    location    "1100";
    object      alphat;
}
// * * * * * * * * * * * * * * * * * * * * * * * * * * * * * * * * * * * * * //

dimensions      [1 -1 -1 0 0 0 0];

internalField   nonuniform List<scalar> 
459
(
0.00123316
0.00134496
0.00136995
0.00143508
0.00149541
0.00155225
0.00160864
0.00166267
0.00170066
0.00171535
0.00169974
0.00164888
0.00156054
0.00143759
0.00129389
0.000537008
0.000640558
0.000722759
0.000728917
0.000707883
0.000677829
0.000636323
0.000594029
0.000555529
0.000521412
0.000491262
0.000464535
0.000440804
0.000419573
0.000400079
0.000381356
0.000362087
0.000350736
0.000321785
0.00167995
0.00397197
0.00375252
0.00435073
0.00493619
0.0055242
0.00603718
0.0064357
0.006807
0.00711663
0.00732171
0.00737754
0.00723074
0.00675451
0.00541116
0.00131577
0.000810314
0.00056062
0.00117239
0.00163752
0.00198879
0.00219544
0.00220578
0.00174934
0.00150429
0.00132983
0.00119636
0.00109072
0.00100501
0.000931948
0.000864171
0.000798942
0.000741318
0.000690393
0.000827554
0.00043041
0.00205153
0.00538851
0.00456935
0.00569109
0.0062036
0.00657767
0.00687198
0.00713179
0.00743405
0.00776118
0.00807469
0.00831512
0.0084302
0.00833578
0.00777342
0.00597197
0.00135235
0.00105355
0.00152741
0.0019821
0.00242269
0.00274989
0.00271793
0.000904261
0.000800681
0.000716456
0.000648013
0.000592014
0.000545788
0.000507352
0.000475416
0.000449405
0.000484414
0.000556826
0.000937772
0.000504245
0.0024086
0.00690214
0.00450845
0.00593864
0.00632323
0.00641725
0.00649895
0.00665045
0.00690674
0.00724746
0.00763808
0.00799356
0.00825804
0.0083596
0.00823828
0.00759858
0.00512804
0.00158243
0.00189526
0.00241127
0.00297268
0.00347027
0.00381254
0.00363496
0.00102352
0.000937873
0.000877091
0.000830981
0.000791493
0.000754163
0.000718131
0.000679971
0.000635305
0.000595616
0.000600269
0.00109509
0.000562224
0.00277252
0.00887845
0.00487674
0.00566006
0.00618707
0.00613077
0.00608563
0.00620574
0.00644878
0.00679651
0.0072285
0.00761978
0.00789103
0.00799166
0.00792347
0.00766073
0.00700808
0.00593079
0.0055559
0.00548431
0.00552462
0.00557712
0.00557841
0.00540602
0.00461626
0.00423458
0.0040147
0.00384342
0.00365906
0.00339219
0.00301714
0.00255423
0.0020373
0.00152317
0.00112534
0.00111361
0.000764535
0.000695216
0.00083672
0.000939501
0.00315885
0.0110451
0.00672062
0.00547018
0.00598058
0.00614468
0.00599192
0.00610788
0.00631119
0.00663462
0.00705226
0.00745946
0.0077288
0.00778345
0.0076401
0.00739639
0.00716219
0.00700574
0.00699866
0.0070133
0.00696886
0.00685764
0.00668575
0.00644164
0.00608056
0.00575842
0.00547276
0.00519751
0.00491647
0.00461446
0.00422466
0.00372859
0.00312641
0.00245647
0.00185393
0.00136298
0.00105413
0.000905209
0.0012905
0.000983104
0.0035218
0.0126095
0.00965903
0.00695643
0.00647686
0.00652165
0.00637477
0.00629358
0.00639215
0.00669669
0.00713446
0.00756029
0.00781531
0.00781072
0.00758504
0.00731288
0.00722646
0.00740079
0.00762598
0.00768775
0.00755658
0.00729073
0.00694112
0.00654225
0.00612778
0.00575233
0.00541637
0.00510758
0.00482321
0.00456874
0.00434328
0.00402792
0.00356653
0.00299233
0.00243112
0.00191176
0.00155093
0.00145132
0.00149281
0.00112813
0.00359828
0.011443
0.0099221
0.00877866
0.00807231
0.00732616
0.00668951
0.00641822
0.00653313
0.00693787
0.007463
0.00790861
0.0080981
0.00797029
0.00763084
0.00735454
0.00741378
0.00771512
0.00782784
0.0076505
0.00726989
0.00677128
0.00622784
0.00570725
0.00525992
0.0048985
0.004604
0.00436191
0.00417107
0.00403811
0.0039715
0.00394551
0.00372594
0.00336309
0.0030388
0.00288196
0.00302755
0.0035231
0.00431116
0.00174738
0.00350833
0.0041943
0.00474232
0.00491997
0.00494087
0.00504928
0.00537222
0.0059393
0.00669968
0.0075029
0.00815865
0.0085016
0.00841724
0.00797459
0.00748378
0.00735342
0.00738377
0.00734844
0.00709331
0.0066232
0.00602596
0.00539797
0.00482675
0.00436408
0.00401444
0.00375122
0.0035441
0.00337315
0.00322594
0.00309244
0.00296378
0.00283911
0.00273922
0.0026658
0.00263974
0.00265139
0.00263021
0.00251456
0.00234327
0.00163082
0.00217989
0.00385156
0.0052852
0.00647755
0.00743942
0.00829746
0.0089677
0.00930192
0.00924978
0.00883294
0.00809564
0.0072385
0.00668793
0.00646153
0.00623402
0.00585573
0.00533463
0.00474835
0.00417424
0.00368169
0.00330889
0.00304608
0.00286466
0.00273747
0.00264642
0.0025814
0.00253719
0.00251177
0.00250814
0.00252974
0.00256114
0.00259877
0.00263331
0.00263522
0.00255791
0.00238855
0.00214158
0.00133623
0.00252905
0.0053603
0.00729662
0.00819796
0.00879021
0.00918409
0.00915183
0.00855507
0.00763884
0.00665261
0.00581673
0.00520364
0.00479042
0.00442874
0.00400585
0.00354229
0.00309895
0.00272925
0.00245732
0.00227564
0.00215772
0.00208584
0.00205293
0.00204948
0.00206971
0.00210981
0.00216612
0.00223355
0.00231849
0.00241823
0.00252994
0.00264606
0.00274862
0.00281775
0.00279621
0.0028133
0.00276068
0.00135789
0.00216001
0.00227477
0.00235969
0.0024266
0.00219103
0.00200315
0.0019093
0.00181896
0.00168983
0.00153295
0.0013535
0.00117544
0.00101777
0.000892868
0.000803059
0.000740795
0.000697546
0.000668302
0.000650774
0.000643569
0.000645153
0.000653935
0.000668689
0.000688649
0.000712643
0.000740601
0.000772667
0.000809211
0.000850947
0.000899211
0.000953402
0.00101362
0.0010806
0.001155
0.00123665
0.00133615
0.00136559
0.00133011
0.00124568
0.0011549
)
;

boundaryField
{
    floor
    {
        type            compressible::alphatWallFunction;
        Prt             0.85;
        value           nonuniform List<scalar> 
29
(
0.000183047
7.48816e-05
9.04217e-05
0.000102538
0.000103439
0.000100359
9.59378e-05
8.9793e-05
8.34807e-05
7.76864e-05
7.25101e-05
6.79004e-05
6.37842e-05
6.01043e-05
5.67907e-05
5.37293e-05
5.07708e-05
4.77064e-05
4.58915e-05
4.12271e-05
4.12265e-05
5.84849e-05
6.98898e-05
7.86979e-05
0.000183045
7.48807e-05
7.84549e-05
0.000149813
0.000222037
)
;
    }
    ceiling
    {
        type            compressible::alphatWallFunction;
        Prt             0.85;
        value           nonuniform List<scalar> 
43
(
0.00029777
0.000312551
0.00032344
0.000332105
0.000301939
0.000277613
0.000265372
0.000253523
0.000236464
0.00021554
0.000191304
0.000166894
0.000144923
0.000127235
0.000114338
0.000105296
9.89616e-05
9.46516e-05
9.20573e-05
9.09884e-05
9.12237e-05
9.25261e-05
9.47094e-05
9.76536e-05
0.000101179
0.000105269
0.000109937
0.000115229
0.000121238
0.000128143
0.000135845
0.000144344
0.000153727
0.000164073
0.000175338
0.000188953
0.00019296
0.00018813
0.00017658
0.000164063
0.00046759
0.000551021
0.000344907
)
;
    }
    sWall
    {
        type            compressible::alphatWallFunction;
        Prt             0.85;
        value           uniform 0.000296549;
    }
    nWall
    {
        type            compressible::alphatWallFunction;
        Prt             0.85;
        value           nonuniform List<scalar> 6(0.000133547 0.00013971 0.00016 0.000188633 0.00019158 0.000163735);
    }
    sideWalls
    {
        type            empty;
    }
    glass1
    {
        type            compressible::alphatWallFunction;
        Prt             0.85;
        value           nonuniform List<scalar> 9(0.000170417 0.000229908 0.000278175 0.000323759 0.000369547 0.000417514 0.00046207 0.00047153 0.000460783);
    }
    glass2
    {
        type            compressible::alphatWallFunction;
        Prt             0.85;
        value           nonuniform List<scalar> 2(0.000242302 0.000226966);
    }
    sun
    {
        type            compressible::alphatWallFunction;
        Prt             0.85;
        value           nonuniform List<scalar> 
14
(
0.000174741
0.000190019
0.000193415
0.00020224
0.000210373
0.000218003
0.000225542
0.000232738
0.000237781
0.000239727
0.000237658
0.0002309
0.000219109
0.000202575
)
;
    }
    heatsource1
    {
        type            compressible::alphatWallFunction;
        Prt             0.85;
        value           nonuniform List<scalar> 3(9.8614e-05 0.000119187 0.000133868);
    }
    heatsource2
    {
        type            compressible::alphatWallFunction;
        Prt             0.85;
        value           nonuniform List<scalar> 4(0.000186167 0.000115382 0.000115381 0.00019115);
    }
    Table_master
    {
        type            compressible::alphatWallFunction;
        Prt             0.85;
        value           nonuniform List<scalar> 9(0.000128854 0.000113988 0.00010173 9.16402e-05 8.32882e-05 7.63201e-05 7.04705e-05 6.55675e-05 6.15433e-05);
    }
    Table_slave
    {
        type            compressible::alphatWallFunction;
        Prt             0.85;
        value           nonuniform List<scalar> 9(0.000145728 0.000133637 0.000124978 0.000118362 0.000112661 0.00010724 0.000101978 9.63689e-05 8.97551e-05);
    }
    inlet
    {
        type            fixedValue;
        value           uniform 1.94e-05;
    }
    outlet
    {
        type            zeroGradient;
    }
}


// ************************************************************************* //
