/*--------------------------------*- C++ -*----------------------------------*\
  =========                 |
  \\      /  F ield         | OpenFOAM: The Open Source CFD Toolbox
   \\    /   O peration     | Website:  https://openfoam.org
    \\  /    A nd           | Version:  6
     \\/     M anipulation  |
\*---------------------------------------------------------------------------*/
FoamFile
{
    version     2.0;
    format      ascii;
    class       volScalarField;
    location    "1100";
    object      epsilon;
}
// * * * * * * * * * * * * * * * * * * * * * * * * * * * * * * * * * * * * * //

dimensions      [0 2 -3 0 0 0 0];

internalField   nonuniform List<scalar> 
459
(
0.000424102
0.000548792
0.000579872
0.000666561
0.000754178
0.000843457
0.00093872
0.00103647
0.00110905
0.0011379
0.00110699
0.00101044
0.000856521
0.000669604
0.000488237
3.49324e-05
5.92759e-05
8.5144e-05
8.73405e-05
7.99984e-05
7.02381e-05
5.81115e-05
4.72789e-05
3.86705e-05
3.19755e-05
2.67442e-05
2.2613e-05
1.9322e-05
1.6663e-05
1.44472e-05
1.25127e-05
1.07107e-05
9.73509e-06
7.51928e-06
0.00107423
0.0015765
0.000515781
0.000498936
0.000521133
0.000559999
0.000619786
0.000699492
0.00077591
0.000823713
0.000822648
0.000766787
0.000664564
0.000538242
0.000434187
0.000513336
0.000119893
3.97495e-05
9.33467e-05
0.000103863
9.72895e-05
8.48631e-05
7.24272e-05
6.62472e-05
5.36325e-05
4.23811e-05
3.34922e-05
2.66628e-05
2.1439e-05
1.74401e-05
1.43912e-05
1.21531e-05
1.07733e-05
1.01744e-05
2.67344e-05
1.79921e-05
0.0019601
0.00388725
0.000634836
0.00047313
0.000493572
0.000553203
0.000644112
0.000760066
0.00086735
0.00093166
0.000935306
0.000879018
0.000774684
0.000647844
0.000529124
0.000470696
0.000557384
0.000263712
0.000206553
0.000164144
0.000131593
0.000106415
9.11203e-05
0.000166775
0.000115778
8.29495e-05
6.13753e-05
4.6799e-05
3.66699e-05
2.94555e-05
2.42357e-05
2.04714e-05
1.5663e-05
1.3183e-05
5.10532e-05
2.89307e-05
0.0031782
0.00809738
0.00100267
0.000475243
0.000478725
0.000562342
0.000699243
0.000872947
0.00101007
0.00107672
0.00106887
0.000997048
0.000872947
0.000726383
0.000597228
0.000513097
0.000493884
0.000893217
0.000517213
0.000317787
0.000216579
0.000158647
0.000122536
0.000105584
0.000241945
0.000186166
0.000152277
0.00012951
0.000111917
9.68208e-05
8.35988e-05
7.09692e-05
5.78827e-05
3.4565e-05
2.24758e-05
8.58609e-05
4.01043e-05
0.00485656
0.0144902
0.00198426
0.000554093
0.00048006
0.000590635
0.000836434
0.00109932
0.00124694
0.00129091
0.00125054
0.00114421
0.000986586
0.000803604
0.000626962
0.00048261
0.000384293
0.000343116
0.000281662
0.000225992
0.000181295
0.000146306
0.000119257
0.000100539
9.70742e-05
9.10044e-05
8.51639e-05
7.93092e-05
7.28649e-05
6.56541e-05
5.83998e-05
5.14826e-05
4.5106e-05
3.62839e-05
2.79155e-05
6.09926e-05
4.66874e-05
7.58868e-05
0.000132355
0.000187379
0.00719501
0.0215811
0.00448415
0.00103167
0.000670414
0.00077862
0.0012789
0.00155013
0.00163124
0.00160631
0.00151099
0.00135424
0.00114358
0.000903666
0.000670796
0.000479571
0.000348654
0.000275513
0.000231617
0.000196621
0.000164698
0.000136938
0.000114592
9.88715e-05
9.11612e-05
8.82503e-05
8.69051e-05
8.50847e-05
8.1535e-05
7.52724e-05
6.60957e-05
5.64266e-05
4.7559e-05
3.96255e-05
3.4435e-05
4.58436e-05
4.81123e-05
5.8614e-05
0.000244839
0.000214627
0.00998628
0.0258449
0.00937911
0.00342193
0.00217992
0.00214265
0.0023709
0.00235754
0.00223248
0.00206661
0.00186944
0.00162734
0.0013363
0.00102092
0.000722934
0.000486033
0.000331485
0.000248492
0.000204721
0.000173639
0.000146333
0.000123533
0.000106772
9.69004e-05
9.39717e-05
9.58156e-05
9.95124e-05
0.000103317
0.000105974
0.000105707
9.91282e-05
8.77344e-05
7.63916e-05
6.68068e-05
6.30278e-05
7.07809e-05
9.06335e-05
0.000145611
0.000334367
0.00032427
0.0106748
0.028845
0.0156588
0.00995543
0.00703873
0.00544521
0.00431794
0.00355896
0.00304191
0.00265666
0.00231166
0.001945
0.00153695
0.00111983
0.00074117
0.000457858
0.000289828
0.000207655
0.000168383
0.000142297
0.000121632
0.000106764
9.81783e-05
9.57257e-05
9.86899e-05
0.000105711
0.000115554
0.000127835
0.000142634
0.000159834
0.000178354
0.000190336
0.000200425
0.000222419
0.000268081
0.000404948
0.000751602
0.0014209
0.00411428
0.00120701
0.00992505
0.0169111
0.0135699
0.0102472
0.00781437
0.00615473
0.00503311
0.00426531
0.0037106
0.00324219
0.00276269
0.00222563
0.00163838
0.00108699
0.000615202
0.000326542
0.000206674
0.000153949
0.000126537
0.000108454
9.61953e-05
8.93393e-05
8.75999e-05
9.0471e-05
9.7368e-05
0.000107853
0.000121971
0.000140466
0.00016476
0.000196945
0.000239827
0.000297401
0.000376301
0.000494381
0.000667694
0.000901566
0.00116705
0.00139635
0.00157316
0.000982679
0.00497614
0.00668596
0.00670747
0.00620856
0.00551991
0.00485967
0.00420866
0.00350527
0.00273524
0.00192047
0.00105313
0.00055619
0.000294497
0.000173466
0.000121384
9.60579e-05
8.1891e-05
7.34514e-05
6.88428e-05
6.75521e-05
6.92565e-05
7.36031e-05
8.0407e-05
8.97556e-05
0.000102092
0.000118278
0.00013969
0.00016842
0.000207757
0.000262825
0.00033906
0.000443664
0.000579815
0.000734158
0.000864834
0.000917166
0.000855674
0.000540488
0.00345205
0.00676233
0.0066595
0.00534305
0.00450035
0.0038189
0.00296562
0.0020661
0.00130712
0.000760397
0.000413625
0.000229359
0.000137052
9.3804e-05
7.34488e-05
6.3094e-05
5.7716e-05
5.54298e-05
5.54523e-05
5.73715e-05
6.09179e-05
6.60862e-05
7.30292e-05
8.20422e-05
9.36491e-05
0.000108689
0.000128465
0.000154974
0.000191003
0.000240216
0.000307618
0.000398152
0.000512194
0.000641332
0.000735922
0.000830854
0.000768791
0.000567146
0.00219541
0.00256246
0.00286015
0.00316564
0.00235032
0.00180398
0.00156603
0.00135646
0.00108897
0.000813679
0.000560408
0.000367212
0.000238445
0.000161018
0.000117168
9.198e-05
7.67968e-05
6.75401e-05
6.23659e-05
6.03187e-05
6.07666e-05
6.32831e-05
6.76651e-05
7.39082e-05
8.1907e-05
9.19315e-05
0.000104399
0.000119925
0.000139456
0.000164559
0.000196142
0.000235712
0.000285598
0.000348762
0.000428098
0.000540023
0.000576565
0.000532809
0.000437665
0.000348918
)
;

boundaryField
{
    floor
    {
        Cmu             0.09;
        kappa           0.41;
        E               9.8;
        type            epsilonWallFunction;
        value           nonuniform List<scalar> 
29
(
0.000488237
3.49324e-05
5.92759e-05
8.5144e-05
8.73405e-05
7.99984e-05
7.02381e-05
5.81115e-05
4.72789e-05
3.86705e-05
3.19755e-05
2.67442e-05
2.2613e-05
1.9322e-05
1.6663e-05
1.44472e-05
1.25127e-05
1.07107e-05
9.73509e-06
7.51928e-06
7.51928e-06
1.79921e-05
2.89307e-05
4.01043e-05
0.000488237
3.49324e-05
3.97495e-05
0.000263712
0.000893217
)
;
    }
    ceiling
    {
        Cmu             0.09;
        kappa           0.41;
        E               9.8;
        type            epsilonWallFunction;
        value           nonuniform List<scalar> 
43
(
0.00219541
0.00256246
0.00286015
0.00316564
0.00235032
0.00180398
0.00156603
0.00135646
0.00108897
0.000813679
0.000560408
0.000367212
0.000238445
0.000161018
0.000117168
9.198e-05
7.67968e-05
6.75401e-05
6.23659e-05
6.03187e-05
6.07666e-05
6.32831e-05
6.76651e-05
7.39082e-05
8.1907e-05
9.19315e-05
0.000104399
0.000119925
0.000139456
0.000164559
0.000196142
0.000235712
0.000285598
0.000348762
0.000428098
0.000540023
0.000576565
0.000532809
0.000437665
0.000348918
0.00992505
0.0169111
0.00345205
)
;
    }
    sWall
    {
        Cmu             0.09;
        kappa           0.41;
        E               9.8;
        type            epsilonWallFunction;
        value           uniform 0.00219541;
    }
    nWall
    {
        Cmu             0.09;
        kappa           0.41;
        E               9.8;
        type            epsilonWallFunction;
        value           nonuniform List<scalar> 6(0.000187379 0.000214627 0.00032427 0.000540488 0.000567146 0.000348918);
    }
    sideWalls
    {
        type            empty;
    }
    glass1
    {
        Cmu             0.09;
        kappa           0.41;
        E               9.8;
        type            epsilonWallFunction;
        value           nonuniform List<scalar> 9(0.000424102 0.00107423 0.0019601 0.0031782 0.00485656 0.00719501 0.00998628 0.0106748 0.00992505);
    }
    glass2
    {
        Cmu             0.09;
        kappa           0.41;
        E               9.8;
        type            epsilonWallFunction;
        value           nonuniform List<scalar> 2(0.00120701 0.000982679);
    }
    sun
    {
        Cmu             0.09;
        kappa           0.41;
        E               9.8;
        type            epsilonWallFunction;
        value           nonuniform List<scalar> 
14
(
0.000424102
0.000548792
0.000579872
0.000666561
0.000754178
0.000843457
0.00093872
0.00103647
0.00110905
0.0011379
0.00110699
0.00101044
0.000856521
0.000669604
)
;
    }
    heatsource1
    {
        Cmu             0.09;
        kappa           0.41;
        E               9.8;
        type            epsilonWallFunction;
        value           nonuniform List<scalar> 3(7.58868e-05 0.000132355 0.000187379);
    }
    heatsource2
    {
        Cmu             0.09;
        kappa           0.41;
        E               9.8;
        type            epsilonWallFunction;
        value           nonuniform List<scalar> 4(0.000513336 0.000119893 0.000119893 0.000557384);
    }
    Table_master
    {
        Cmu             0.09;
        kappa           0.41;
        E               9.8;
        type            epsilonWallFunction;
        value           nonuniform List<scalar> 9(0.000166775 0.000115778 8.29495e-05 6.13753e-05 4.6799e-05 3.66699e-05 2.94555e-05 2.42357e-05 2.04714e-05);
    }
    Table_slave
    {
        Cmu             0.09;
        kappa           0.41;
        E               9.8;
        type            epsilonWallFunction;
        value           nonuniform List<scalar> 9(0.000241945 0.000186166 0.000152277 0.00012951 0.000111917 9.68208e-05 8.35988e-05 7.09692e-05 5.78827e-05);
    }
    inlet
    {
        type            turbulentMixingLengthDissipationRateInlet;
        mixingLength    0.01;
        phi             phi;
        k               k;
        value           uniform 0.000101881;
    }
    outlet
    {
        type            zeroGradient;
    }
}


// ************************************************************************* //
