// -*- C++ -*-
// File generated by PyFoam - sorry for the ugliness

FoamFile
{
 version 2.0;
 format ascii;
 class volVectorField;
 location "300";
 object U;
}

dimensions [ 0 1 -1 0 0 0 0 ];

internalField nonuniform List<vector> 459
(
  (0.108647 0.064196 0)
  (-0.133744 -0.00272183 0)
  (-0.101885 -0.000372372 0)
  (-0.105701 0.00223797 0)
  (-0.111355 0.00271649 0)
  (-0.117119 0.00211124 0)
  (-0.121741 0.000855705 0)
  (-0.124387 -0.000904757 0)
  (-0.124363 -0.00314131 0)
  (-0.120958 -0.0059329 0)
  (-0.113192 -0.00935754 0)
  (-0.099657 -0.0135863 0)
  (-0.0797645 -0.0193422 0)
  (-0.0592746 -0.0279625 0)
  (-0.0603774 -0.0382304 0)
  (0.0277206 0.0101451 0)
  (-0.0310558 -0.00724932 0)
  (-0.0131851 -0.00736011 0)
  (-0.00713392 -0.00131486 0)
  (-0.00783589 0.00255791 0)
  (-0.0123861 0.00183547 0)
  (-0.0123309 -0.0029615 0)
  (-0.0053557 -0.00699083 0)
  (0.00573867 -0.00872164 0)
  (0.0164859 -0.00798962 0)
  (0.0247255 -0.0064669 0)
  (0.0306977 -0.00499864 0)
  (0.0348037 -0.00369933 0)
  (0.0374768 -0.00216673 0)
  (0.038869 -0.000834716 0)
  (0.0394167 -0.00117551 0)
  (0.040475 -0.00327189 0)
  (0.0445876 -0.000617073 0)
  (-0.00923715 0.0174858 0)
  (0.309219 0.14153 0)
  (-0.159504 0.00851272 0)
  (-0.0946819 0.00418668 0)
  (-0.104462 0.00807203 0)
  (-0.111383 0.0092431 0)
  (-0.117555 0.00834614 0)
  (-0.122379 0.00605982 0)
  (-0.125349 0.00266688 0)
  (-0.125916 -0.00176689 0)
  (-0.123565 -0.00726219 0)
  (-0.117706 -0.0137726 0)
  (-0.107561 -0.0212913 0)
  (-0.0928249 -0.0303434 0)
  (-0.0750476 -0.041934 0)
  (-0.0577173 -0.0545155 0)
  (-0.0410461 -0.0592405 0)
  (0.0290799 0.00637736 0)
  (0.128417 0.025727 0)
  (-0.0171381 0.000266157 0)
  (-0.00696094 -0.00590693 0)
  (-0.00398193 -0.00281694 0)
  (0.000947171 0.00179411 0)
  (0.00157308 0.0108526 0)
  (-0.00108177 -0.00195947 0)
  (-2.75633e-05 -0.0121112 0)
  (0.00113393 -0.0137643 0)
  (0.00232442 -0.0111548 0)
  (0.00285821 -0.00742064 0)
  (0.00276514 -0.00396599 0)
  (0.00205758 -0.00101012 0)
  (-0.00041373 0.00103273 0)
  (-0.00192061 -0.000811719 0)
  (-0.0016469 -0.00708824 0)
  (0.00447504 -0.0116137 0)
  (0.0279166 4.9154e-05 0)
  (-0.0771496 0.0429243 0)
  (0.471889 0.21588 0)
  (-0.203043 0.0325263 0)
  (-0.0796788 0.0156815 0)
  (-0.0976334 0.0157132 0)
  (-0.106146 0.0156479 0)
  (-0.112785 0.0134552 0)
  (-0.117978 0.00949394 0)
  (-0.121546 0.00400123 0)
  (-0.123183 -0.00291286 0)
  (-0.122524 -0.011199 0)
  (-0.119521 -0.0208245 0)
  (-0.114068 -0.0316453 0)
  (-0.10643 -0.0436065 0)
  (-0.0974492 -0.0561135 0)
  (-0.0883063 -0.0661977 0)
  (-0.0815908 -0.0682761 0)
  (-0.0860296 -0.0611179 0)
  (0.11312 0.0303658 0)
  (-0.047079 0.00982138 0)
  (-0.0341153 0.00228564 0)
  (-0.0345351 -0.00426379 0)
  (-0.0304122 -0.00939733 0)
  (-0.0259566 -0.0126732 0)
  (0.0265141 -0.00404588 0)
  (0.00287648 -0.0147074 0)
  (-0.0161462 -0.0154016 0)
  (-0.0286874 -0.011922 0)
  (-0.0373148 -0.00890166 0)
  (-0.0423951 -0.0070069 0)
  (-0.0448665 -0.00582459 0)
  (-0.0450926 -0.00512173 0)
  (-0.0434143 -0.00549288 0)
  (-0.0360512 -0.00490062 0)
  (-0.0400422 0.00427624 0)
  (-0.0626712 0.0179458 0)
  (-0.145467 0.0352612 0)
  (0.600393 0.276822 0)
  (-0.243866 0.0618427 0)
  (-0.0614696 0.0304852 0)
  (-0.0874287 0.0253193 0)
  (-0.0976549 0.0231923 0)
  (-0.103987 0.0194821 0)
  (-0.108772 0.0140946 0)
  (-0.112157 0.00705312 0)
  (-0.114145 -0.00159619 0)
  (-0.114499 -0.0116478 0)
  (-0.113856 -0.0227909 0)
  (-0.112778 -0.0346645 0)
  (-0.112092 -0.0467761 0)
  (-0.112808 -0.0578315 0)
  (-0.11637 -0.0647383 0)
  (-0.125781 -0.0618116 0)
  (-0.14113 -0.0385793 0)
  (-0.134544 0.0187937 0)
  (-0.0857369 0.0194924 0)
  (-0.0962538 0.0134967 0)
  (-0.0846816 0.00218354 0)
  (-0.0833991 -0.00650259 0)
  (-0.084449 -0.0136382 0)
  (-0.0877364 -0.0177394 0)
  (-0.0847576 -0.0116169 0)
  (-0.0727945 -0.0103482 0)
  (-0.0618485 -0.0102231 0)
  (-0.0515009 -0.00990425 0)
  (-0.0419805 -0.0091816 0)
  (-0.033663 -0.00804162 0)
  (-0.0266002 -0.00671111 0)
  (-0.0203739 -0.00565746 0)
  (-0.0148064 -0.00521848 0)
  (-0.0137078 -0.00688504 0)
  (-0.00411234 -0.00156447 0)
  (0.0163504 0.000841232 0)
  (-0.10162 5.80285e-05 0)
  (0.699494 0.326644 0)
  (-0.276801 0.0939886 0)
  (-0.0441967 0.046218 0)
  (-0.0740225 0.0356272 0)
  (-0.0861437 0.0303095 0)
  (-0.091259 0.024517 0)
  (-0.0942602 0.0175952 0)
  (-0.0958158 0.00931653 0)
  (-0.096239 -0.000422167 0)
  (-0.0956813 -0.0112641 0)
  (-0.0952425 -0.022425 0)
  (-0.0958179 -0.03347 0)
  (-0.0982258 -0.0439866 0)
  (-0.103062 -0.0531023 0)
  (-0.110711 -0.0592319 0)
  (-0.120833 -0.0599321 0)
  (-0.129664 -0.050834 0)
  (-0.130797 -0.0273824 0)
  (-0.120225 -0.00517383 0)
  (-0.107279 0.00241539 0)
  (-0.09618 -0.0022824 0)
  (-0.090707 -0.00805342 0)
  (-0.0882918 -0.0132827 0)
  (-0.0871131 -0.0161236 0)
  (-0.0840891 -0.0148578 0)
  (-0.0787022 -0.014597 0)
  (-0.0728696 -0.0143248 0)
  (-0.0671895 -0.0136587 0)
  (-0.0619412 -0.0123955 0)
  (-0.0572756 -0.0106763 0)
  (-0.0530437 -0.00905565 0)
  (-0.0487003 -0.00843505 0)
  (-0.0433741 -0.00980619 0)
  (-0.0353819 -0.0137 0)
  (-0.0211833 -0.0174057 0)
  (0.00818473 -0.0215132 0)
  (0.039332 -0.0268915 0)
  (0.084403 -0.0366628 0)
  (0.123579 -0.00843853 0)
  (-0.0375064 0.0522059 0)
  (0.760369 0.371285 0)
  (-0.302918 0.123199 0)
  (-0.0322127 0.05528 0)
  (-0.0536278 0.0463364 0)
  (-0.0687374 0.0373936 0)
  (-0.0732526 0.0277669 0)
  (-0.0736211 0.0185531 0)
  (-0.071947 0.00903678 0)
  (-0.0688365 -0.00137098 0)
  (-0.0658591 -0.0122091 0)
  (-0.0641618 -0.0222448 0)
  (-0.0646864 -0.0312583 0)
  (-0.0679634 -0.0392214 0)
  (-0.0740492 -0.0456403 0)
  (-0.0825607 -0.0492865 0)
  (-0.092259 -0.0482314 0)
  (-0.100026 -0.0405911 0)
  (-0.102288 -0.0275625 0)
  (-0.0979286 -0.0150056 0)
  (-0.0900559 -0.00901943 0)
  (-0.0829667 -0.00936788 0)
  (-0.0786984 -0.0121553 0)
  (-0.0766891 -0.0154013 0)
  (-0.075892 -0.0175147 0)
  (-0.074949 -0.0179157 0)
  (-0.073521 -0.0180333 0)
  (-0.0721308 -0.0177398 0)
  (-0.0711432 -0.0167595 0)
  (-0.0708075 -0.0150322 0)
  (-0.0712323 -0.0129263 0)
  (-0.0722879 -0.0113219 0)
  (-0.0736307 -0.0114442 0)
  (-0.074661 -0.0145631 0)
  (-0.0738881 -0.0215823 0)
  (-0.0684943 -0.0327503 0)
  (-0.0553847 -0.0491524 0)
  (-0.0363119 -0.0705243 0)
  (-0.0148646 -0.0836732 0)
  (0.089473 -0.00953151 0)
  (-0.0798388 0.1149 0)
  (0.776868 0.413047 0)
  (-0.312542 0.122674 0)
  (-0.013308 0.0301639 0)
  (-0.00595498 0.0543304 0)
  (-0.029089 0.048697 0)
  (-0.0397318 0.0287245 0)
  (-0.0393711 0.0145976 0)
  (-0.0351882 0.00363551 0)
  (-0.028124 -0.0068739 0)
  (-0.0235555 -0.0161477 0)
  (-0.0212777 -0.0235139 0)
  (-0.0219791 -0.0293412 0)
  (-0.0258997 -0.0342549 0)
  (-0.032753 -0.0382853 0)
  (-0.0417288 -0.0406319 0)
  (-0.0513883 -0.0398324 0)
  (-0.0593219 -0.0347781 0)
  (-0.063313 -0.0266889 0)
  (-0.0628317 -0.0188136 0)
  (-0.0596698 -0.014323 0)
  (-0.0564074 -0.0133993 0)
  (-0.0544904 -0.0143924 0)
  (-0.0540426 -0.0160518 0)
  (-0.0546396 -0.0173395 0)
  (-0.0556617 -0.0178362 0)
  (-0.0569174 -0.0177565 0)
  (-0.0586425 -0.0169009 0)
  (-0.0611785 -0.0149967 0)
  (-0.065026 -0.0120356 0)
  (-0.070807 -0.00864738 0)
  (-0.078968 -0.00617531 0)
  (-0.0894426 -0.00603448 0)
  (-0.101925 -0.00958386 0)
  (-0.114842 -0.0175813 0)
  (-0.127417 -0.0318904 0)
  (-0.13829 -0.0542409 0)
  (-0.143639 -0.0808506 0)
  (-0.137029 -0.091473 0)
  (-0.117167 -0.0348991 0)
  (-0.155617 0.210544 0)
  (0.876403 0.435139 0)
  (-0.117462 0.0980993 0)
  (0.0699413 -0.0319823 0)
  (0.110153 0.0285472 0)
  (0.0705889 0.0437682 0)
  (0.0413337 0.0218638 0)
  (0.0338403 0.00260189 0)
  (0.0328741 -0.0090888 0)
  (0.034649 -0.0163942 0)
  (0.0350865 -0.0216573 0)
  (0.0338158 -0.0250866 0)
  (0.0305893 -0.0271962 0)
  (0.0251182 -0.0287217 0)
  (0.0173961 -0.0300874 0)
  (0.00789853 -0.0310793 0)
  (-0.00248987 -0.0307718 0)
  (-0.011365 -0.028128 0)
  (-0.0173106 -0.0236116 0)
  (-0.0200347 -0.01895 0)
  (-0.0205764 -0.0158084 0)
  (-0.0205359 -0.0145328 0)
  (-0.020987 -0.0145148 0)
  (-0.0222678 -0.0150899 0)
  (-0.0242789 -0.0156266 0)
  (-0.0267188 -0.0157404 0)
  (-0.0294072 -0.0152553 0)
  (-0.0323308 -0.0138143 0)
  (-0.0355596 -0.010962 0)
  (-0.0393561 -0.00633399 0)
  (-0.0442109 6.50794e-05 0)
  (-0.0511823 0.00746577 0)
  (-0.0637358 0.0135338 0)
  (-0.0842488 0.0146263 0)
  (-0.114372 0.0062911 0)
  (-0.152315 -0.0129677 0)
  (-0.193271 -0.0402411 0)
  (-0.23041 -0.0690592 0)
  (-0.26592 -0.0923625 0)
  (-0.330675 -0.0974611 0)
  (-0.595535 -0.0611566 0)
  (1.0151 0.403465 0)
  (0.485175 0.241543 0)
  (0.383619 0.168165 0)
  (0.365641 0.162354 0)
  (0.260226 0.130077 0)
  (0.192986 0.0841818 0)
  (0.163635 0.0469588 0)
  (0.14616 0.0213157 0)
  (0.128611 0.00320391 0)
  (0.112777 -0.00882647 0)
  (0.100272 -0.0156774 0)
  (0.0899181 -0.018949 0)
  (0.0804825 -0.0201423 0)
  (0.0710804 -0.0203446 0)
  (0.0612636 -0.0201675 0)
  (0.0511634 -0.0197677 0)
  (0.0417356 -0.0187648 0)
  (0.0340566 -0.0169415 0)
  (0.028616 -0.0147794 0)
  (0.0249765 -0.0130183 0)
  (0.0221971 -0.0119949 0)
  (0.0195039 -0.0116106 0)
  (0.0165153 -0.0116228 0)
  (0.0131572 -0.0117253 0)
  (0.00955409 -0.0116418 0)
  (0.00588084 -0.0111274 0)
  (0.00232922 -0.00982252 0)
  (-0.000867341 -0.0072437 0)
  (-0.00338835 -0.00294209 0)
  (-0.00477663 0.0034721 0)
  (-0.00554018 0.012153 0)
  (-0.00593107 0.0222509 0)
  (-0.00684526 0.0310338 0)
  (-0.0091151 0.0346369 0)
  (-0.0117208 0.02993 0)
  (-0.0152834 0.0153887 0)
  (-0.0245567 -0.00725258 0)
  (-0.00921484 -0.0386062 0)
  (0.00798465 -0.12933 0)
  (-0.510944 -0.244904 0)
  (-1.28129 0.125622 0)
  (0.181865 0.178045 0)
  (0.115914 0.126309 0)
  (0.122643 0.0825586 0)
  (0.14217 0.0497866 0)
  (0.151602 0.0275389 0)
  (0.151254 0.0132976 0)
  (0.146564 0.00429879 0)
  (0.140194 -0.00157471 0)
  (0.133185 -0.00498754 0)
  (0.125797 -0.00647963 0)
  (0.118178 -0.00666044 0)
  (0.11035 -0.00614135 0)
  (0.102306 -0.00545656 0)
  (0.0942534 -0.00486677 0)
  (0.0866634 -0.00439995 0)
  (0.0799735 -0.00407947 0)
  (0.0742482 -0.00398615 0)
  (0.0692056 -0.00415316 0)
  (0.0644968 -0.00453248 0)
  (0.0598834 -0.00503497 0)
  (0.055266 -0.00553065 0)
  (0.0506685 -0.00586135 0)
  (0.046203 -0.00583565 0)
  (0.0420725 -0.0051792 0)
  (0.0386209 -0.00353381 0)
  (0.0363781 -0.000505565 0)
  (0.0359705 0.00420427 0)
  (0.037773 0.0107389 0)
  (0.0423458 0.0183764 0)
  (0.049319 0.0246226 0)
  (0.0573537 0.0256754 0)
  (0.0648848 0.0186915 0)
  (0.0712643 0.00408744 0)
  (0.0736455 -0.0135011 0)
  (0.0797422 -0.0308461 0)
  (0.141558 -0.0790368 0)
  (-0.154007 -0.178829 0)
  (-0.592384 0.137248 0)
  (0.215643 0.0856035 0)
  (0.0827058 0.0515254 0)
  (0.0996274 0.0352996 0)
  (0.134693 0.017691 0)
  (0.155943 0.002078 0)
  (0.164414 -0.0104089 0)
  (0.166411 -0.0204825 0)
  (0.165141 -0.0277493 0)
  (0.161863 -0.0328681 0)
  (0.157357 -0.0365297 0)
  (0.152228 -0.0392416 0)
  (0.146858 -0.0413233 0)
  (0.14136 -0.0429028 0)
  (0.135682 -0.0439425 0)
  (0.129799 -0.0443387 0)
  (0.123817 -0.0440455 0)
  (0.117909 -0.0431274 0)
  (0.112206 -0.0417248 0)
  (0.106767 -0.0399992 0)
  (0.101598 -0.0380914 0)
  (0.0966831 -0.0360898 0)
  (0.0920199 -0.0340211 0)
  (0.0876498 -0.0318509 0)
  (0.0836998 -0.0294804 0)
  (0.0804468 -0.0267508 0)
  (0.0784355 -0.0234159 0)
  (0.0782969 -0.0185953 0)
  (0.0806318 -0.0122286 0)
  (0.0861732 -0.00526746 0)
  (0.0947668 0.000328206 0)
  (0.104908 0.00186944 0)
  (0.113992 -0.00262365 0)
  (0.119677 -0.0125287 0)
  (0.117752 -0.024944 0)
  (0.106729 -0.0401919 0)
  (0.144486 -0.0700304 0)
  (-0.220338 -0.118214 0)
  (0.655872 0.0537296 0)
  (-0.0945791 -0.166252 0)
  (-0.250063 0.167694 0)
  (0.189266 0.0746145 0)
  (0.132565 0.0630558 0)
  (0.128874 0.0649766 0)
  (0.153555 0.0657684 0)
  (0.172224 0.0681629 0)
  (0.1798 0.072871 0)
  (0.180718 0.0794553 0)
  (0.178524 0.0862395 0)
  (0.174972 0.0930229 0)
  (0.170834 0.099843 0)
  (0.166629 0.106557 0)
  (0.16277 0.11286 0)
  (0.159497 0.118324 0)
  (0.156875 0.122464 0)
  (0.154842 0.124847 0)
  (0.153257 0.125228 0)
  (0.15193 0.123649 0)
  (0.150658 0.12043 0)
  (0.149271 0.116036 0)
  (0.147665 0.110937 0)
  (0.145807 0.105504 0)
  (0.143735 0.0999769 0)
  (0.141551 0.0944691 0)
  (0.139422 0.0889933 0)
  (0.137591 0.0835027 0)
  (0.136479 0.0779158 0)
  (0.136442 0.0714227 0)
  (0.138284 0.0640662 0)
  (0.142732 0.0565217 0)
  (0.149806 0.0494145 0)
  (0.158219 0.0428459 0)
  (0.165266 0.0365451 0)
  (0.167141 0.0298584 0)
  (0.159841 0.0212454 0)
  (0.140412 0.0104807 0)
  (0.165012 -0.00717969 0)
  (-0.25335 -0.0386144 0)
)
;

boundaryField
{
  floor
  {
    type noSlip;
  }
  ceiling
  {
    type noSlip;
  }
  sWall
  {
    type noSlip;
  }
  nWall
  {
    type noSlip;
  }
  sideWalls
  {
    type empty;
  }
  glass1
  {
    type noSlip;
  }
  glass2
  {
    type noSlip;
  }
  sun
  {
    type noSlip;
  }
  heatsource1
  {
    type noSlip;
  }
  heatsource2
  {
    type noSlip;
  }
  Table_master
  {
    type noSlip;
  }
  Table_slave
  {
    type noSlip;
  }
  inlet
  {
    type fixedValue;
    value uniform (0.0382683 -0.092388 0);
  }
  outlet
  {
    type zeroGradient;
  }
} 	// ************************************************************************* //

