/*--------------------------------*- C++ -*----------------------------------*\
  =========                 |
  \\      /  F ield         | OpenFOAM: The Open Source CFD Toolbox
   \\    /   O peration     | Website:  https://openfoam.org
    \\  /    A nd           | Version:  6
     \\/     M anipulation  |
\*---------------------------------------------------------------------------*/
FoamFile
{
    version     2.0;
    format      ascii;
    class       volScalarField;
    location    "1000";
    object      epsilon;
}
// * * * * * * * * * * * * * * * * * * * * * * * * * * * * * * * * * * * * * //

dimensions      [0 2 -3 0 0 0 0];

internalField   nonuniform List<scalar> 
459
(
0.000444032
0.000576814
0.000611072
0.000703442
0.000797376
0.000893914
0.000998236
0.00110113
0.00117435
0.00119769
0.00115527
0.00104294
0.000869819
0.00066157
0.000464189
3.67721e-05
6.20424e-05
9.0305e-05
9.51537e-05
8.81944e-05
7.80163e-05
6.44856e-05
5.22774e-05
4.25919e-05
3.50872e-05
2.92456e-05
2.465e-05
2.1e-05
1.80605e-05
1.5618e-05
1.3493e-05
1.15223e-05
1.04111e-05
7.99465e-06
0.00111526
0.00161651
0.00054128
0.000524555
0.00054954
0.000593577
0.000661324
0.00074767
0.000826274
0.000869874
0.00085929
0.000792009
0.000678547
0.000542352
0.000431679
0.000496083
0.000135744
4.07354e-05
9.42499e-05
0.000107395
0.000102053
9.01499e-05
7.78711e-05
7.23072e-05
5.85121e-05
4.60883e-05
3.62851e-05
2.8778e-05
2.30582e-05
1.86934e-05
1.53718e-05
1.2925e-05
1.14038e-05
1.07248e-05
2.72637e-05
1.86179e-05
0.00202214
0.00394006
0.000663201
0.000498803
0.000523474
0.000591365
0.000693785
0.000819155
0.000927528
0.000984945
0.00097664
0.000907843
0.000790831
0.000652637
0.000531325
0.000470242
0.00057547
0.000254054
0.000205993
0.000167614
0.000136889
0.000112284
9.76937e-05
0.000183798
0.000126056
8.93223e-05
6.54545e-05
4.94925e-05
3.85e-05
3.07342e-05
2.51637e-05
2.11954e-05
1.61634e-05
1.3616e-05
5.21648e-05
2.97423e-05
0.00325906
0.00815519
0.00103866
0.000503522
0.000512658
0.00060977
0.000767278
0.00095143
0.00108408
0.00113924
0.00111663
0.00103083
0.000890276
0.000736035
0.000603154
0.000518724
0.0005022
0.00090724
0.000530501
0.000329865
0.000227352
0.000168337
0.000131276
0.000114491
0.000268036
0.000204351
0.000165823
0.000139985
0.0001201
0.000103239
8.85348e-05
7.45935e-05
6.0294e-05
3.55406e-05
2.29987e-05
8.89465e-05
4.10077e-05
0.00495302
0.0145429
0.00203651
0.000589639
0.000521612
0.000656382
0.000947523
0.00120672
0.00133709
0.00136308
0.00130537
0.00118168
0.00100756
0.000812659
0.000630194
0.000485833
0.000391756
0.000355861
0.000295964
0.000240546
0.000195355
0.000159137
0.000130373
0.000110056
0.000106484
9.93181e-05
9.23019e-05
8.53186e-05
7.78322e-05
6.97286e-05
6.16563e-05
5.40026e-05
4.69508e-05
3.73548e-05
2.85214e-05
6.29653e-05
4.77058e-05
7.69352e-05
0.000133906
0.000190145
0.00730392
0.0216334
0.00457134
0.00109524
0.00073879
0.000900673
0.00145544
0.00168537
0.00173589
0.00168923
0.00157471
0.00139683
0.00116539
0.000909542
0.00066901
0.000478465
0.00035317
0.000286415
0.000246564
0.000213149
0.00018086
0.000151364
0.000126557
0.000108332
9.87435e-05
9.44364e-05
9.19799e-05
8.91931e-05
8.48091e-05
7.78577e-05
6.81785e-05
5.8105e-05
4.89205e-05
4.06557e-05
3.52692e-05
4.71577e-05
4.95294e-05
6.00275e-05
0.00024771
0.000218876
0.0100842
0.0259008
0.00950668
0.00358078
0.00237631
0.00247077
0.00258457
0.00250508
0.00234554
0.00215819
0.00194045
0.00167366
0.00135743
0.0010224
0.000715064
0.000480406
0.000334204
0.000259652
0.000220762
0.000190946
0.00016252
0.000137238
0.000117464
0.000104739
9.96221e-05
9.99823e-05
0.00010263
0.000105647
0.000107757
0.000107197
0.000100542
8.92146e-05
7.80301e-05
6.86183e-05
6.5221e-05
7.39087e-05
9.56897e-05
0.000154908
0.000350639
0.000340687
0.0107565
0.0287096
0.0156648
0.0100527
0.00725519
0.0055946
0.00443895
0.00366923
0.0031471
0.00275283
0.00238876
0.00199235
0.00155408
0.00111346
0.000723644
0.000447398
0.000291993
0.000219667
0.000184415
0.000157954
0.000135109
0.000117335
0.000105829
0.000100903
0.000102056
0.000107868
0.000116929
0.000128771
0.00014347
0.000160926
0.000180049
0.00019321
0.000204713
0.000229105
0.000279091
0.000425992
0.00079489
0.00149604
0.00424607
0.00123623
0.00999043
0.0169564
0.0135895
0.0102788
0.00786697
0.00623232
0.00513246
0.00438366
0.00383805
0.0033592
0.00284804
0.00226252
0.00163823
0.00106083
0.000574392
0.000318476
0.00021247
0.000164967
0.000138709
0.000119734
0.000105299
9.59636e-05
9.19653e-05
9.30675e-05
9.87456e-05
0.000108479
0.000122225
0.000140719
0.000165432
0.000198544
0.00024299
0.000302943
0.000385201
0.000507235
0.000684922
0.000922325
0.0011889
0.00141648
0.00159378
0.000998869
0.00489243
0.0065874
0.00675553
0.00628413
0.0056298
0.00499833
0.0043377
0.00358662
0.0027488
0.00182077
0.000985331
0.000524905
0.000286329
0.000180029
0.000131117
0.00010588
9.04815e-05
8.02002e-05
7.38774e-05
7.10454e-05
7.14851e-05
7.49359e-05
8.11817e-05
9.026e-05
0.000102587
0.000119036
0.000141022
0.000170702
0.000211459
0.000268497
0.000347396
0.000455333
0.000595148
0.00075264
0.000885081
0.000938491
0.000871529
0.000550351
0.00339077
0.00676767
0.00675935
0.00542976
0.00455083
0.00378831
0.00287152
0.00196142
0.00122812
0.00071326
0.00040295
0.000231992
0.000145768
0.000104526
8.35905e-05
7.1919e-05
6.50273e-05
6.1286e-05
6.00837e-05
6.10623e-05
6.39523e-05
6.86321e-05
7.52262e-05
8.40397e-05
9.55773e-05
0.00011068
0.000130671
0.000157591
0.000194332
0.0002447
0.000313808
0.000406555
0.000522963
0.000655051
0.000748876
0.00084077
0.000785499
0.000577887
0.00216702
0.0025285
0.00281954
0.00312942
0.00234782
0.00183968
0.00163341
0.00140427
0.00112279
0.000827523
0.000573564
0.00038477
0.000259591
0.000182648
0.000137106
0.000109067
9.06195e-05
7.81063e-05
6.99977e-05
6.55361e-05
6.41254e-05
6.52534e-05
6.85784e-05
7.40118e-05
8.15735e-05
9.12934e-05
0.000103585
0.000119085
0.000138786
0.000164345
0.000196681
0.000237395
0.000288922
0.000354322
0.000436386
0.00055404
0.000587344
0.000539909
0.000444066
0.00035303
)
;

boundaryField
{
    floor
    {
        Cmu             0.09;
        kappa           0.41;
        E               9.8;
        type            epsilonWallFunction;
        value           nonuniform List<scalar> 
29
(
0.000464189
3.67721e-05
6.20424e-05
9.0305e-05
9.51537e-05
8.81944e-05
7.80163e-05
6.44856e-05
5.22774e-05
4.25919e-05
3.50872e-05
2.92456e-05
2.465e-05
2.1e-05
1.80605e-05
1.5618e-05
1.3493e-05
1.15223e-05
1.04111e-05
7.99465e-06
7.99465e-06
1.86179e-05
2.97423e-05
4.10077e-05
0.000464189
3.67721e-05
4.07354e-05
0.000254054
0.00090724
)
;
    }
    ceiling
    {
        Cmu             0.09;
        kappa           0.41;
        E               9.8;
        type            epsilonWallFunction;
        value           nonuniform List<scalar> 
43
(
0.00216702
0.0025285
0.00281954
0.00312942
0.00234782
0.00183968
0.00163341
0.00140427
0.00112279
0.000827523
0.000573564
0.00038477
0.000259591
0.000182648
0.000137106
0.000109067
9.06195e-05
7.81063e-05
6.99977e-05
6.55361e-05
6.41254e-05
6.52534e-05
6.85784e-05
7.40118e-05
8.15735e-05
9.12934e-05
0.000103585
0.000119085
0.000138786
0.000164345
0.000196681
0.000237395
0.000288922
0.000354322
0.000436386
0.00055404
0.000587344
0.000539909
0.000444066
0.00035303
0.00999043
0.0169564
0.00339077
)
;
    }
    sWall
    {
        Cmu             0.09;
        kappa           0.41;
        E               9.8;
        type            epsilonWallFunction;
        value           uniform 0.00216702;
    }
    nWall
    {
        Cmu             0.09;
        kappa           0.41;
        E               9.8;
        type            epsilonWallFunction;
        value           nonuniform List<scalar> 6(0.000190145 0.000218876 0.000340687 0.000550351 0.000577887 0.00035303);
    }
    sideWalls
    {
        type            empty;
    }
    glass1
    {
        Cmu             0.09;
        kappa           0.41;
        E               9.8;
        type            epsilonWallFunction;
        value           nonuniform List<scalar> 9(0.000444032 0.00111526 0.00202214 0.00325906 0.00495302 0.00730392 0.0100842 0.0107565 0.00999043);
    }
    glass2
    {
        Cmu             0.09;
        kappa           0.41;
        E               9.8;
        type            epsilonWallFunction;
        value           nonuniform List<scalar> 2(0.00123623 0.000998869);
    }
    sun
    {
        Cmu             0.09;
        kappa           0.41;
        E               9.8;
        type            epsilonWallFunction;
        value           nonuniform List<scalar> 
14
(
0.000444032
0.000576814
0.000611072
0.000703442
0.000797376
0.000893914
0.000998236
0.00110113
0.00117435
0.00119769
0.00115527
0.00104294
0.000869819
0.00066157
)
;
    }
    heatsource1
    {
        Cmu             0.09;
        kappa           0.41;
        E               9.8;
        type            epsilonWallFunction;
        value           nonuniform List<scalar> 3(7.69352e-05 0.000133906 0.000190145);
    }
    heatsource2
    {
        Cmu             0.09;
        kappa           0.41;
        E               9.8;
        type            epsilonWallFunction;
        value           nonuniform List<scalar> 4(0.000496083 0.000135744 0.000135744 0.00057547);
    }
    Table_master
    {
        Cmu             0.09;
        kappa           0.41;
        E               9.8;
        type            epsilonWallFunction;
        value           nonuniform List<scalar> 9(0.000183798 0.000126056 8.93223e-05 6.54545e-05 4.94925e-05 3.85e-05 3.07342e-05 2.51637e-05 2.11954e-05);
    }
    Table_slave
    {
        Cmu             0.09;
        kappa           0.41;
        E               9.8;
        type            epsilonWallFunction;
        value           nonuniform List<scalar> 9(0.000268036 0.000204351 0.000165823 0.000139985 0.0001201 0.000103239 8.85348e-05 7.45935e-05 6.0294e-05);
    }
    inlet
    {
        type            turbulentMixingLengthDissipationRateInlet;
        mixingLength    0.01;
        phi             phi;
        k               k;
        value           uniform 0.000101881;
    }
    outlet
    {
        type            zeroGradient;
    }
}


// ************************************************************************* //
