/*--------------------------------*- C++ -*----------------------------------*\
  =========                 |
  \\      /  F ield         | OpenFOAM: The Open Source CFD Toolbox
   \\    /   O peration     | Website:  https://openfoam.org
    \\  /    A nd           | Version:  6
     \\/     M anipulation  |
\*---------------------------------------------------------------------------*/
FoamFile
{
    version     2.0;
    format      ascii;
    class       surfaceScalarField;
    location    "500";
    object      phi;
}
// * * * * * * * * * * * * * * * * * * * * * * * * * * * * * * * * * * * * * //

dimensions      [1 0 -1 0 0 0 0];

internalField   nonuniform List<scalar> 
852
(
-0.00207012
0.0021214
-0.00205257
-1.73416e-05
-0.00185499
-0.000197369
-0.00173066
-0.000124115
-0.00165001
-8.04435e-05
-0.00159156
-5.8243e-05
-0.00154423
-4.71301e-05
-0.00149909
-4.49296e-05
-0.00144643
-5.24512e-05
-0.00137416
-7.20531e-05
-0.00126759
-0.000106361
-0.00110866
-0.000158707
-0.000870213
-0.000238222
-0.000506243
-0.000363739
-0.000506168
-0.000199548
0.000202145
-0.000154834
-4.45903e-05
-5.40497e-05
-0.000100655
2.89967e-05
-8.29228e-05
0.000138431
-0.000109307
0.000276149
-0.000137593
0.000382047
-0.000105787
0.000469071
-8.69186e-05
0.000533708
-6.45316e-05
0.000583584
-4.97695e-05
0.000628624
-4.49313e-05
0.000671909
-4.3174e-05
0.000686729
-1.47099e-05
0.000673323
1.35151e-05
0.000640318
3.31127e-05
0.000593718
4.67044e-05
0.000584784
9.03091e-06
0.000483934
0.000100936
0.00048678
-0.00147888
0.00372864
-0.00184026
0.000344268
-0.00184258
-0.000194819
-0.00180888
-0.000157583
-0.00176805
-0.000121044
-0.00172665
-9.94186e-05
-0.00168798
-8.5572e-05
-0.00165113
-8.15493e-05
-0.00161149
-9.18579e-05
-0.00156077
-0.000122548
-0.00148664
-0.000180253
-0.00137278
-0.000272328
-0.00120328
-0.000407471
-0.000977628
-0.000589141
-0.000695112
-0.000788425
0.000132073
-0.000826972
0.000132262
0.000501792
-0.00029536
0.000405515
5.19033e-05
0.00019189
0.000113168
5.3489e-05
5.56472e-05
-3.52192e-05
-2.04332e-05
-0.000141079
-3.15802e-05
-6.70598e-05
-0.000179661
-3.48402e-05
-0.000119003
-2.68182e-05
-7.24317e-05
-3.41796e-05
-4.22971e-05
-5.8682e-05
-2.03227e-05
-0.000105365
3.61353e-06
-0.000161335
4.13559e-05
-0.000217834
7.0097e-05
-0.000277273
9.26317e-05
-0.000377703
0.000147218
-0.00053666
0.000168067
-0.000599546
0.000163907
-0.000106989
-0.00104291
0.00495819
-0.00151921
0.000820807
-0.00168175
-3.20279e-05
-0.00173874
-0.000100342
-0.00174372
-0.00011582
-0.00172596
-0.000116938
-0.00170303
-0.000108264
-0.00168347
-0.000100862
-0.00166974
-0.00010535
-0.00165946
-0.000132591
-0.00164658
-0.000192882
-0.00162315
-0.000295512
-0.0015839
-0.000446467
-0.00153305
-0.000639735
-0.00147883
-0.000842376
-0.00129854
-0.00100698
-0.00116601
-0.000655721
0.000363501
-0.000753483
0.000149909
-0.000730493
9.04169e-05
-0.000713465
3.8849e-05
-0.000718016
-1.56665e-05
-0.000643204
-0.000106192
-0.00082254
-0.000941242
-0.0010134
-0.00105545
-0.00107555
-0.00107171
-0.00103012
-0.000959778
-0.000866883
-0.000590661
-0.000128863
-0.00030449
-0.000118001
8.11625e-05
-0.000221673
-2.72863e-05
-0.00068344
0.00587562
-0.00113976
0.00127738
-0.00135117
0.000179645
-0.00149222
4.09726e-05
-0.00157521
-3.2569e-05
-0.00160032
-9.15765e-05
-0.00159911
-0.000109223
-0.0015953
-0.000104427
-0.00160313
-9.72722e-05
-0.00162902
-0.000106451
-0.00167564
-0.000146015
-0.00174559
-0.000225305
-0.00184586
-0.000345934
-0.00198858
-0.000496751
-0.00217816
-0.00065252
-0.00241513
-0.000769737
-0.00287927
-0.000701586
-0.00256702
-0.000313396
-0.00217451
-2.87317e-05
-0.002101
7.66895e-05
-0.00210202
9.17401e-05
-0.00213692
7.40437e-05
-0.00218086
2.85751e-05
-0.00226384
-2.29113e-05
-0.00223503
-2.86543e-05
-0.00218882
-4.60486e-05
-0.00212569
-6.29727e-05
-0.00204938
-7.61582e-05
-0.0019603
-8.89356e-05
-0.00185613
-0.000104016
-0.0017315
-0.000124489
-0.00157552
-0.000155844
-0.0013662
-0.000209189
-0.00118481
-0.000309994
-0.000906985
-0.000395563
-0.000652579
-0.000475824
-0.000687213
-0.000387314
0.00653788
-0.000757562
0.0016479
-0.000804091
0.000226471
-0.000920208
0.000157386
-0.00113382
0.000181325
-0.0012868
6.1668e-05
-0.00134382
-5.19521e-05
-0.00135918
-8.88029e-05
-0.00137529
-8.09123e-05
-0.00140923
-7.22542e-05
-0.0014701
-8.48966e-05
-0.00156363
-0.000131509
-0.00169434
-0.000214968
-0.00186399
-0.000326826
-0.00207119
-0.00044505
-0.00231922
-0.00052142
-0.00255087
-0.00046964
-0.00257286
-0.000291113
-0.00248266
-0.000118631
-0.0023874
-1.82658e-05
-0.00231994
2.45974e-05
-0.0022742
2.8615e-05
-0.00224837
3.06109e-06
-0.00223969
-3.12638e-05
-0.00221088
-5.71405e-05
-0.00217555
-8.10605e-05
-0.00213571
-0.000102484
-0.00209017
-0.000121365
-0.00203908
-0.000139698
-0.00198259
-0.000160183
-0.00192027
-0.000186478
-0.0018513
-0.000224493
-0.00177788
-0.000282283
-0.00172709
-0.000360462
-0.00166963
-0.0004527
-0.00157849
-0.000566646
-0.00160701
-0.000658391
-0.000994773
-0.000612165
-0.000384147
-0.000610618
-0.000370927
-0.000293605
0.00714275
-0.000451348
0.00180593
-0.000102495
-0.000122041
-2.16024e-05
7.68233e-05
-0.000312016
0.000472046
-0.000666948
0.000416884
-0.000878077
0.000159445
-0.000960431
-6.18473e-06
-0.000996586
-4.44939e-05
-0.00103122
-3.7354e-05
-0.00108448
-3.13743e-05
-0.00116753
-4.81958e-05
-0.00128653
-9.56986e-05
-0.00144279
-0.000170298
-0.00163278
-0.000254781
-0.00184181
-0.000312092
-0.00201298
-0.000298177
-0.00208773
-0.00021606
-0.00208246
-0.000123587
-0.00204282
-5.75914e-05
-0.00199513
-2.2776e-05
-0.00195061
-1.55821e-05
-0.00191753
-2.96835e-05
-0.00189479
-5.36682e-05
-0.0018729
-7.86899e-05
-0.00185012
-0.000103507
-0.00182547
-0.000126788
-0.00179798
-0.000148504
-0.00176763
-0.000169691
-0.00173528
-0.00019218
-0.00170256
-0.000218849
-0.00167261
-0.000254084
-0.00165157
-0.000302967
-0.0016433
-0.000368374
-0.0016418
-0.000453841
-0.0016518
-0.000556297
-0.00166242
-0.000647408
-0.00149908
-0.000775132
-0.00100163
-0.00110767
-0.00136412
-0.000629168
0.00811614
5.40595e-05
0.00112301
0.000971103
-0.00103872
0.0011185
-7.02171e-05
0.000706611
0.000884273
0.00024091
0.000882887
-0.000115735
0.000516369
-0.000334801
0.000213152
-0.000444061
6.50391e-05
-0.000499645
1.8507e-05
-0.000545348
1.46091e-05
-0.000606279
1.30159e-05
-0.000695073
-6.62418e-06
-0.000816179
-4.89072e-05
-0.000966333
-0.000104337
-0.00112873
-0.000149399
-0.00126628
-0.000160321
-0.00134819
-0.000133839
-0.0013771
-9.4357e-05
-0.00137281
-6.15514e-05
-0.00135247
-4.27929e-05
-0.00132816
-3.9551e-05
-0.00130756
-4.99446e-05
-0.00129215
-6.8726e-05
-0.00127954
-9.09487e-05
-0.00126812
-0.000114573
-0.00125628
-0.000138257
-0.00124268
-0.000161744
-0.00122644
-0.000185557
-0.00120738
-0.000210861
-0.00118623
-0.000239614
-0.00116526
-0.000274675
-0.00114839
-0.000319454
-0.0011386
-0.00037778
-0.00113778
-0.000454274
-0.00114771
-0.000545992
-0.00115868
-0.000636069
-0.00115329
-0.000780146
-0.000998009
-0.00126258
-0.00235501
0.00166352
0.0068414
0.00280833
-2.14677e-05
0.00307111
-0.0013011
0.00238019
0.000621099
0.00157264
0.00169218
0.00104659
0.00140924
0.00070409
0.000859149
0.000463895
0.000453622
0.000306127
0.000223089
0.000213865
0.000111062
0.000161491
6.7284e-05
0.000119886
5.49249e-05
6.5663e-05
4.79085e-05
-1.40013e-05
3.10693e-05
-0.000118199
1.71688e-07
-0.000233662
-3.36204e-05
-0.000338606
-5.50556e-05
-0.000413258
-5.88614e-05
-0.000454951
-5.23319e-05
-0.000471488
-4.46764e-05
-0.000472735
-4.12028e-05
-0.000467535
-4.44023e-05
-0.000461928
-5.51976e-05
-0.000458523
-7.17719e-05
-0.000457411
-9.16956e-05
-0.000458418
-0.000113196
-0.000460693
-0.000135605
-0.000462963
-0.000159091
-0.000463882
-0.000184248
-0.000462279
-0.000212069
-0.000457405
-0.000244088
-0.000449223
-0.000282452
-0.000438423
-0.000329847
-0.000426211
-0.000389582
-0.000415066
-0.000465009
-0.000407415
-0.000553236
-0.000404723
-0.000638357
-0.00043249
-0.000751982
-0.000456905
-0.00123778
-0.00278012
0.00725932
0.00721823
0.0053345
0.000583125
0.00265132
0.00330474
0.0016397
0.00270416
0.00128776
0.00176148
0.00116748
0.000979715
0.00110497
0.000516416
0.00105794
0.000270439
0.0010258
0.000143533
0.00100841
8.50089e-05
0.000997331
6.63487e-05
0.000982271
6.33168e-05
0.000953088
6.0601e-05
0.000902159
5.1453e-05
0.000833063
3.58285e-05
0.000759952
1.84101e-05
0.000697525
3.92016e-06
0.000652109
-6.56021e-06
0.000622185
-1.43943e-05
0.000603091
-2.17473e-05
0.000589621
-3.05675e-05
0.000578431
-4.36391e-05
0.000567105
-6.0073e-05
0.000554492
-7.87052e-05
0.000539096
-9.74183e-05
0.000520661
-0.000116782
0.000499901
-0.000137938
0.000477918
-0.000161867
0.00045594
-0.000189687
0.000435174
-0.000222912
0.000416737
-0.0002636
0.000401717
-0.000314409
0.000391097
-0.00037854
0.000385547
-0.000459037
0.000388024
-0.000555288
0.000410892
-0.000660803
0.000463059
-0.000803732
0.000420805
-0.00119512
-0.00232711
-0.00408093
0.00251396
-0.00235969
0.00158401
-0.000435813
0.000780693
0.000718512
0.000607521
0.00130656
0.00039202
0.00161194
0.000211414
0.00178451
9.82681e-05
0.0018922
3.62476e-05
0.00196473
1.28918e-05
0.00201066
2.08357e-05
0.0020354
3.89916e-05
0.00204138
5.50227e-05
0.00202996
6.32741e-05
0.0020033
6.28892e-05
0.0019658
5.63047e-05
0.00192319
4.69244e-05
0.00188074
3.62708e-05
0.00184147
2.52631e-05
0.00180629
1.3821e-05
0.00177496
1.15695e-06
0.00174589
-1.41899e-05
0.00171681
-3.0595e-05
0.00168642
-4.79298e-05
0.00165247
-6.30744e-05
0.0016145
-7.84136e-05
0.00157268
-9.57165e-05
0.0015273
-0.000116086
0.00147871
-0.000140682
0.00142719
-0.000170985
0.00137296
-0.000208953
0.00131609
-0.000257113
0.00125649
-0.00031852
0.00119415
-0.000396268
0.00113098
-0.000491698
0.00107335
-0.000602741
0.00100763
-0.000737597
0.000781503
-0.00096857
-0.00153935
-0.000476131
0.00296165
0.00108052
2.7909e-05
0.00172105
0.000140668
0.00224565
8.34159e-05
0.00269514
-5.69625e-05
0.00299896
-9.18819e-05
0.00316412
-6.63602e-05
0.00322617
-2.52753e-05
0.00322299
1.65778e-05
0.00319095
5.33782e-05
0.00315293
7.75008e-05
0.00311905
8.9371e-05
0.00309126
9.15276e-05
0.00306732
8.72743e-05
0.00304446
7.96046e-05
0.00302119
7.06202e-05
0.00299671
6.11779e-05
0.0029708
5.15932e-05
0.0029432
4.1827e-05
0.00291317
3.15982e-05
0.0028774
2.1994e-05
0.00283537
1.18393e-05
0.00278654
1.30766e-06
0.00273255
-8.67903e-06
0.00267392
-1.93848e-05
0.00261001
-3.1394e-05
0.00253968
-4.53525e-05
0.00246148
-6.20746e-05
0.00237352
-8.2609e-05
0.00227332
-0.000108339
0.0021577
-0.00014107
0.00202272
-0.00018312
0.00186429
-0.000237422
0.0016807
-0.00030768
0.0014774
-0.000399018
0.001258
-0.000517774
0.000953552
-0.000663706
-0.000579994
0.00447809
0.00198664
0.00490174
0.00488163
0.00496992
0.0049955
0.00487503
0.00471444
0.00457501
0.00447355
0.00441243
0.00438821
0.00438934
0.00440406
0.00442276
0.00443892
0.00444898
0.00445147
0.0044458
0.00443173
0.00440896
0.00437697
0.0043363
0.00428634
0.00422668
0.00415785
0.0040791
0.0039891
0.00388585
0.00376653
0.00362728
0.00346287
0.00326625
0.00302803
0.00273591
0.00237386
0.00192069
0.00134883
0.000631108
)
;

boundaryField
{
    floor
    {
        type            calculated;
        value           nonuniform List<scalar> 
29
(
0
0
0
0
0
0
0
0
0
0
0
0
0
0
0
0
0
0
0
0
-2.77133e-06
-5.67349e-06
1.49719e-06
7.60953e-06
1.59423e-07
-2.48447e-06
-4.05848e-06
-2.89172e-06
1.42793e-06
)
;
    }
    ceiling
    {
        type            calculated;
        value           nonuniform List<scalar> 
43
(
0.00013438
0.000106853
4.70786e-05
4.85848e-05
5.29656e-05
5.84321e-05
6.41042e-05
6.93075e-05
7.36627e-05
7.67715e-05
7.82834e-05
7.81565e-05
7.69267e-05
7.51881e-05
7.33527e-05
7.16171e-05
7.00383e-05
6.8611e-05
6.73149e-05
6.61305e-05
6.50428e-05
6.40393e-05
6.3102e-05
6.22239e-05
6.1398e-05
6.05763e-05
5.9779e-05
5.90229e-05
5.83148e-05
5.76556e-05
5.7045e-05
5.64827e-05
5.59701e-05
5.55109e-05
5.51118e-05
5.47875e-05
5.45676e-05
5.45008e-05
5.44338e-05
5.89835e-05
2.24512e-05
1.99015e-05
2.91448e-05
)
;
    }
    sWall
    {
        type            calculated;
        value           uniform -7.83598e-05;
    }
    nWall
    {
        type            calculated;
        value           nonuniform List<scalar> 6(-1.28401e-05 -7.96054e-06 -6.73485e-06 -5.85035e-06 -5.3792e-06 -7.45577e-06);
    }
    sideWalls
    {
        type            empty;
        value           nonuniform 0();
    }
    glass1
    {
        type            calculated;
        value           nonuniform List<scalar> 9(-5.10867e-05 -0.000128161 -0.000186437 -0.000233787 -0.000274746 -0.000311046 -0.000343997 -0.000388551 -0.000440138);
    }
    glass2
    {
        type            calculated;
        value           nonuniform List<scalar> 2(-3.14121e-05 -3.18027e-05);
    }
    sun
    {
        type            calculated;
        value           uniform 0;
    }
    heatsource1
    {
        type            calculated;
        value           nonuniform List<scalar> 3(1.99865e-07 2.00174e-07 2.00679e-07);
    }
    heatsource2
    {
        type            calculated;
        value           nonuniform List<scalar> 4(5.03902e-08 5.05699e-08 0 0);
    }
    Table_master
    {
        type            calculated;
        value           nonuniform List<scalar> 9(-1.52188e-07 -1.52089e-07 -1.51996e-07 -1.51919e-07 -1.51852e-07 -1.51792e-07 -1.51727e-07 -1.5165e-07 -1.51538e-07);
    }
    Table_slave
    {
        type            calculated;
        value           nonuniform List<scalar> 9(1.50214e-07 1.50207e-07 1.50204e-07 1.50206e-07 1.50213e-07 1.50224e-07 1.5024e-07 1.50264e-07 1.50286e-07);
    }
    inlet
    {
        type            calculated;
        value           uniform 0.00215088;
    }
    outlet
    {
        type            calculated;
        value           nonuniform List<scalar> 2(-0.00453371 0.00238502);
    }
}


// ************************************************************************* //
