// -*- C++ -*-
// File generated by PyFoam - sorry for the ugliness

FoamFile
{
 version 2.0;
 format ascii;
 class volVectorField;
 location "400";
 object U;
}

dimensions [ 0 1 -1 0 0 0 0 ];

internalField nonuniform List<vector> 459
(
  (0.0774129 0.0769725 0)
  (-0.151813 0.0116687 0)
  (-0.155212 0.0134521 0)
  (-0.182154 0.0114166 0)
  (-0.20603 0.00832997 0)
  (-0.226208 0.00478213 0)
  (-0.241901 0.000819403 0)
  (-0.252326 -0.0036565 0)
  (-0.256537 -0.00880499 0)
  (-0.25319 -0.0148523 0)
  (-0.240568 -0.0224366 0)
  (-0.215732 -0.0320941 0)
  (-0.177053 -0.0457206 0)
  (-0.134538 -0.0672782 0)
  (-0.124366 -0.0975372 0)
  (0.0785075 -0.0455524 0)
  (0.056053 -0.027798 0)
  (0.0694586 -0.0168147 0)
  (0.0826699 -0.0110668 0)
  (0.0895636 -0.00784411 0)
  (0.0929593 -0.00547968 0)
  (0.0944833 -0.00338662 0)
  (0.0939275 -0.00206256 0)
  (0.0922794 -0.00139597 0)
  (0.0904275 -0.0010364 0)
  (0.0886516 -0.000783261 0)
  (0.0868826 -0.00055489 0)
  (0.0849521 -0.000265446 0)
  (0.0825499 0.000263643 0)
  (0.0789773 0.00143177 0)
  (0.0728465 0.00380065 0)
  (0.0626532 0.00650597 0)
  (0.0521773 0.00896847 0)
  (-0.00996286 0.0260272 0)
  (0.284763 0.164995 0)
  (-0.165962 0.039619 0)
  (-0.134287 0.0436373 0)
  (-0.166278 0.0400419 0)
  (-0.191005 0.0352342 0)
  (-0.211728 0.0296018 0)
  (-0.22803 0.022958 0)
  (-0.239328 0.0149743 0)
  (-0.244775 0.00527272 0)
  (-0.243143 -0.00651188 0)
  (-0.233791 -0.0199027 0)
  (-0.215818 -0.034736 0)
  (-0.190376 -0.0524304 0)
  (-0.163911 -0.0755214 0)
  (-0.142401 -0.096386 0)
  (-0.106869 -0.0804989 0)
  (-0.0672891 -0.0666376 0)
  (0.0763866 -0.063527 0)
  (0.0352974 -0.0303136 0)
  (0.0447914 -0.0134438 0)
  (0.0560139 -0.0076138 0)
  (0.0631718 -0.00541235 0)
  (0.0681097 -0.00296889 0)
  (0.0715073 0.00146728 0)
  (0.0721855 0.00377676 0)
  (0.0720313 0.00443247 0)
  (0.0720905 0.00448372 0)
  (0.072338 0.00442244 0)
  (0.0725698 0.00441924 0)
  (0.0727122 0.00464869 0)
  (0.0727082 0.00549039 0)
  (0.0719753 0.00791004 0)
  (0.0678793 0.0146691 0)
  (0.0572939 0.0207016 0)
  (0.0523778 0.0248496 0)
  (-0.0564152 0.0543047 0)
  (0.467741 0.251427 0)
  (-0.209972 0.0729981 0)
  (-0.105229 0.0742058 0)
  (-0.142884 0.0642142 0)
  (-0.165348 0.0546709 0)
  (-0.184615 0.0441291 0)
  (-0.200152 0.0319864 0)
  (-0.211467 0.017829 0)
  (-0.217677 0.00142262 0)
  (-0.217385 -0.0170567 0)
  (-0.210179 -0.0374117 0)
  (-0.19655 -0.0588113 0)
  (-0.178502 -0.0807953 0)
  (-0.159282 -0.102298 0)
  (-0.137953 -0.116845 0)
  (-0.110644 -0.116719 0)
  (-0.101885 -0.125753 0)
  (0.0437158 -0.0749254 0)
  (0.0061541 -0.0404119 0)
  (0.0194435 -0.0244247 0)
  (0.0314705 -0.0181575 0)
  (0.0407958 -0.014852 0)
  (0.0479459 -0.0121265 0)
  (0.0534576 -0.00800669 0)
  (0.0532353 -0.00513493 0)
  (0.0528468 -0.00382224 0)
  (0.0538484 -0.0032309 0)
  (0.0554837 -0.00289084 0)
  (0.0572014 -0.00261869 0)
  (0.0590461 -0.00224255 0)
  (0.0616134 -0.00137937 0)
  (0.0663487 0.00208355 0)
  (0.0655858 0.0205888 0)
  (0.0520621 0.033605 0)
  (0.0584174 0.0417897 0)
  (-0.0985583 0.0825061 0)
  (0.623459 0.323462 0)
  (-0.264715 0.108683 0)
  (-0.0696945 0.102081 0)
  (-0.114953 0.0865262 0)
  (-0.132282 0.0744191 0)
  (-0.148265 0.0613199 0)
  (-0.161811 0.046167 0)
  (-0.172426 0.0282252 0)
  (-0.179052 0.00690818 0)
  (-0.179817 -0.0177604 0)
  (-0.174238 -0.0444466 0)
  (-0.164153 -0.0710616 0)
  (-0.151883 -0.0957722 0)
  (-0.139862 -0.116545 0)
  (-0.128796 -0.130034 0)
  (-0.121256 -0.134375 0)
  (-0.120696 -0.122201 0)
  (-0.0921576 -0.0543753 0)
  (-0.0236295 -0.0823938 0)
  (-0.0114947 -0.0573747 0)
  (0.00291458 -0.0390862 0)
  (0.0150754 -0.0292418 0)
  (0.024262 -0.0234395 0)
  (0.0311861 -0.0181967 0)
  (0.0401292 -0.0138724 0)
  (0.0538072 -0.0121991 0)
  (0.0661992 -0.0108515 0)
  (0.0766375 -0.00939645 0)
  (0.0847884 -0.00747683 0)
  (0.0897463 -0.00491532 0)
  (0.0899673 -0.00168833 0)
  (0.0840353 0.00247309 0)
  (0.0698013 0.00817549 0)
  (0.0555194 0.0306549 0)
  (0.0411956 0.0494264 0)
  (0.0643014 0.0630547 0)
  (-0.146476 0.105927 0)
  (0.752161 0.382248 0)
  (-0.317874 0.143736 0)
  (-0.0307841 0.120853 0)
  (-0.0839588 0.102379 0)
  (-0.0945592 0.0891074 0)
  (-0.105576 0.0743113 0)
  (-0.115318 0.0568782 0)
  (-0.123512 0.035897 0)
  (-0.129166 0.0105164 0)
  (-0.12953 -0.0193029 0)
  (-0.124026 -0.0509742 0)
  (-0.115944 -0.0806249 0)
  (-0.107397 -0.105756 0)
  (-0.100126 -0.125191 0)
  (-0.0947855 -0.138379 0)
  (-0.0913729 -0.145272 0)
  (-0.0843956 -0.141014 0)
  (-0.0619419 -0.115955 0)
  (-0.0326483 -0.104207 0)
  (-0.0165459 -0.0722673 0)
  (-0.00613853 -0.0520104 0)
  (0.00402461 -0.0394904 0)
  (0.0123218 -0.0320619 0)
  (0.0202093 -0.0263029 0)
  (0.0295797 -0.0210774 0)
  (0.0403174 -0.0181459 0)
  (0.0505043 -0.0160673 0)
  (0.0597402 -0.0134927 0)
  (0.0676391 -0.00947724 0)
  (0.0733804 -0.00337517 0)
  (0.0757692 0.00454833 0)
  (0.0732853 0.0135991 0)
  (0.0660133 0.0242399 0)
  (0.0564935 0.0419749 0)
  (0.0420715 0.0628434 0)
  (0.0722358 0.0851938 0)
  (-0.0440851 0.120185 0)
  (0.0446757 0.0188645 0)
  (-0.0775652 -0.042749 0)
  (-0.293714 -0.0666584 0)
  (0.842275 0.434126 0)
  (-0.363364 0.173602 0)
  (0.00259601 0.124231 0)
  (-0.0496921 0.111781 0)
  (-0.0542149 0.0983195 0)
  (-0.0598047 0.0823252 0)
  (-0.0643158 0.0636543 0)
  (-0.0682232 0.0411773 0)
  (-0.0712674 0.0134189 0)
  (-0.0681003 -0.0208782 0)
  (-0.0614227 -0.057059 0)
  (-0.0554407 -0.0880585 0)
  (-0.0510295 -0.112018 0)
  (-0.0490312 -0.129186 0)
  (-0.0495896 -0.140441 0)
  (-0.0517307 -0.14615 0)
  (-0.0514376 -0.145034 0)
  (-0.040507 -0.138516 0)
  (-0.0265748 -0.120831 0)
  (-0.0154262 -0.0819291 0)
  (-0.010396 -0.0597111 0)
  (-0.00475248 -0.0470307 0)
  (0.000794255 -0.0390855 0)
  (0.00670772 -0.0336614 0)
  (0.0135053 -0.0297283 0)
  (0.0210558 -0.027421 0)
  (0.0287854 -0.0254724 0)
  (0.0364708 -0.0226075 0)
  (0.0439088 -0.0176672 0)
  (0.0506519 -0.00955758 0)
  (0.0566497 0.0021201 0)
  (0.0585206 0.0153602 0)
  (0.0573748 0.0294793 0)
  (0.0559001 0.0466362 0)
  (0.0508377 0.0671069 0)
  (0.0804573 0.0933035 0)
  (0.0451012 0.114504 0)
  (0.0987783 0.072298 0)
  (0.125618 0.0456289 0)
  (-0.149661 -0.0163351 0)
  (0.864972 0.480438 0)
  (-0.386641 0.167892 0)
  (0.0240555 0.0869745 0)
  (-0.00212831 0.115663 0)
  (-0.00727965 0.108136 0)
  (-0.0107377 0.0867735 0)
  (-0.0104883 0.0653928 0)
  (-0.00889537 0.0424519 0)
  (-0.00860085 0.0135411 0)
  (0.00644496 -0.0280048 0)
  (0.0135097 -0.0645251 0)
  (0.015496 -0.0926423 0)
  (0.0138697 -0.113005 0)
  (0.00889932 -0.126902 0)
  (0.00100054 -0.135901 0)
  (-0.00846134 -0.141102 0)
  (-0.0176838 -0.143883 0)
  (-0.0177257 -0.147318 0)
  (-0.0159606 -0.130611 0)
  (-0.0114085 -0.0854619 0)
  (-0.0130711 -0.0619976 0)
  (-0.0125868 -0.0496455 0)
  (-0.011544 -0.0424195 0)
  (-0.00972307 -0.0379046 0)
  (-0.00701394 -0.0350979 0)
  (-0.00354661 -0.0334595 0)
  (0.000585063 -0.0320084 0)
  (0.00527837 -0.0296395 0)
  (0.0106125 -0.0251667 0)
  (0.0167984 -0.0171432 0)
  (0.0245176 -0.00412034 0)
  (0.0338005 0.0120623 0)
  (0.0395534 0.0275669 0)
  (0.0462491 0.0434437 0)
  (0.0520987 0.0602949 0)
  (0.0795499 0.081961 0)
  (0.0894295 0.0898415 0)
  (0.129293 0.0558183 0)
  (0.174155 0.0420349 0)
  (-0.0319285 0.096902 0)
  (0.963874 0.499419 0)
  (-0.143514 0.150115 0)
  (0.0815996 0.023673 0)
  (0.11232 0.0596402 0)
  (0.0856825 0.0794732 0)
  (0.0683704 0.0651211 0)
  (0.0663553 0.0419566 0)
  (0.0708178 0.0174471 0)
  (0.0793034 -0.0137586 0)
  (0.096525 -0.0433491 0)
  (0.100096 -0.0690207 0)
  (0.0948023 -0.0897743 0)
  (0.0840542 -0.10522 0)
  (0.0694632 -0.115813 0)
  (0.0522965 -0.122684 0)
  (0.0340389 -0.127448 0)
  (0.0146993 -0.132869 0)
  (0.00470226 -0.144043 0)
  (-0.00483639 -0.132507 0)
  (-0.00633053 -0.0824912 0)
  (-0.0157821 -0.0588073 0)
  (-0.0211671 -0.0477903 0)
  (-0.025147 -0.0415897 0)
  (-0.0281521 -0.0379071 0)
  (-0.0303652 -0.0358735 0)
  (-0.0319686 -0.0348215 0)
  (-0.033061 -0.0339716 0)
  (-0.0335497 -0.0325018 0)
  (-0.0331372 -0.0296188 0)
  (-0.0312711 -0.0245589 0)
  (-0.0265477 -0.0165742 0)
  (-0.0135268 -0.00474249 0)
  (-0.000756314 0.00966007 0)
  (0.0117108 0.0220471 0)
  (0.0234736 0.0309578 0)
  (0.0475653 0.041264 0)
  (0.0673848 0.0331603 0)
  (0.087441 -0.00411236 0)
  (0.151311 0.045536 0)
  (-0.480226 0.22932 0)
  (1.09092 0.459614 0)
  (0.532267 0.307704 0)
  (0.524146 0.24642 0)
  (0.476981 0.204114 0)
  (0.387894 0.173779 0)
  (0.315306 0.132645 0)
  (0.274677 0.0889101 0)
  (0.254037 0.0492688 0)
  (0.243126 0.0134395 0)
  (0.224561 -0.0204138 0)
  (0.20249 -0.0487457 0)
  (0.178284 -0.0700159 0)
  (0.152418 -0.0846834 0)
  (0.125219 -0.0941363 0)
  (0.0971985 -0.100088 0)
  (0.0690635 -0.104589 0)
  (0.0403665 -0.1113 0)
  (0.0234846 -0.127503 0)
  (0.0037562 -0.123275 0)
  (-0.00178397 -0.0715213 0)
  (-0.019763 -0.0499223 0)
  (-0.0311118 -0.0421231 0)
  (-0.0396938 -0.0377625 0)
  (-0.0473098 -0.0349611 0)
  (-0.0545774 -0.0332857 0)
  (-0.0618037 -0.0322242 0)
  (-0.0692151 -0.0310964 0)
  (-0.0769481 -0.0291151 0)
  (-0.0851413 -0.025446 0)
  (-0.0940653 -0.0192731 0)
  (-0.104117 -0.00985314 0)
  (-0.115413 0.00326066 0)
  (-0.125482 0.0190862 0)
  (-0.141142 0.0371002 0)
  (-0.16858 0.0569085 0)
  (-0.209601 0.0765632 0)
  (-0.269179 0.0901213 0)
  (-0.337333 0.0946545 0)
  (-0.411505 0.0916732 0)
  (-0.684454 0.0810581 0)
  (-0.167531 0.171294 0)
  (0.182801 0.207861 0)
  (0.264784 0.183425 0)
  (0.262057 0.142687 0)
  (0.263934 0.0983639 0)
  (0.267624 0.0566829 0)
  (0.266233 0.0207341 0)
  (0.256628 -0.00857127 0)
  (0.238542 -0.0304894 0)
  (0.214559 -0.0459231 0)
  (0.186555 -0.0560912 0)
  (0.156025 -0.0622512 0)
  (0.124028 -0.065675 0)
  (0.0910521 -0.0680103 0)
  (0.0567609 -0.0733979 0)
  (0.0365468 -0.0949607 0)
  (0.00246183 -0.0977781 0)
  (-0.00441024 -0.0424551 0)
  (-0.0284936 -0.0289458 0)
  (-0.0436665 -0.0267513 0)
  (-0.0542963 -0.0259175 0)
  (-0.0641616 -0.0256235 0)
  (-0.0741987 -0.0257466 0)
  (-0.0846498 -0.0259231 0)
  (-0.0956663 -0.0256322 0)
  (-0.107159 -0.0241699 0)
  (-0.118707 -0.0206445 0)
  (-0.129482 -0.0140639 0)
  (-0.138232 -0.00349499 0)
  (-0.143678 0.0113195 0)
  (-0.146584 0.0299775 0)
  (-0.148595 0.0526115 0)
  (-0.151599 0.0777378 0)
  (-0.156592 0.100316 0)
  (-0.160349 0.107872 0)
  (-0.142529 0.077351 0)
  (-0.0856238 -0.0338339 0)
  (-0.293847 -0.238798 0)
  (-0.0938502 0.293037 0)
  (0.0902561 0.210089 0)
  (0.118079 0.150905 0)
  (0.153991 0.116565 0)
  (0.190445 0.083221 0)
  (0.217294 0.0541207 0)
  (0.230208 0.0326103 0)
  (0.230269 0.0192198 0)
  (0.220929 0.00940471 0)
  (0.204717 0.00174894 0)
  (0.183654 -0.00395996 0)
  (0.159144 -0.00784492 0)
  (0.132134 -0.0101831 0)
  (0.102968 -0.0122692 0)
  (0.0711386 -0.0218502 0)
  (0.0476255 -0.0654116 0)
  (-0.0169886 -0.074954 0)
  (-0.0307535 0.0244327 0)
  (-0.0498527 0.037858 0)
  (-0.063252 0.0328387 0)
  (-0.0729088 0.0346679 0)
  (-0.0815203 0.0378323 0)
  (-0.0895939 0.0397401 0)
  (-0.0972966 0.0405511 0)
  (-0.104744 0.0406143 0)
  (-0.111892 0.0401183 0)
  (-0.118527 0.0391248 0)
  (-0.124201 0.0375007 0)
  (-0.127844 0.0351036 0)
  (-0.12746 0.0359781 0)
  (-0.120879 0.042695 0)
  (-0.107099 0.0561611 0)
  (-0.0869753 0.0757826 0)
  (-0.062489 0.0960257 0)
  (-0.0372552 0.10746 0)
  (0.00829209 0.0883273 0)
  (0.145534 0.0078646 0)
  (-0.206166 -0.153433 0)
  (-0.229812 -0.406112 0)
  (-0.487618 -0.101522 0)
  (-0.338762 0.191161 0)
  (-0.169827 0.082721 0)
  (-0.061589 0.0421175 0)
  (0.0566564 0.0216521 0)
  (0.118421 -0.00263557 0)
  (0.165475 -0.0256577 0)
  (0.193123 -0.0463267 0)
  (0.203741 -0.0653147 0)
  (0.20232 -0.0811117 0)
  (0.192323 -0.0943172 0)
  (0.176346 -0.106291 0)
  (0.156383 -0.118142 0)
  (0.133941 -0.130951 0)
  (0.109938 -0.146032 0)
  (0.0834913 -0.165896 0)
  (0.0560801 -0.195621 0)
  (-0.0513252 -0.199478 0)
  (-0.0700739 -0.183116 0)
  (-0.0731801 -0.178933 0)
  (-0.0820445 -0.17691 0)
  (-0.0924179 -0.173789 0)
  (-0.101752 -0.169957 0)
  (-0.109981 -0.165321 0)
  (-0.117294 -0.159569 0)
  (-0.123639 -0.152428 0)
  (-0.128729 -0.143602 0)
  (-0.132072 -0.132652 0)
  (-0.132992 -0.118877 0)
  (-0.130502 -0.101564 0)
  (-0.122601 -0.0832057 0)
  (-0.105798 -0.0634164 0)
  (-0.0775086 -0.0415134 0)
  (-0.0392498 -0.0166343 0)
  (0.0257824 0.0142851 0)
  (0.0816304 0.0146188 0)
  (0.134846 -0.011937 0)
  (0.186109 -0.0605195 0)
  (-0.156512 -0.135133 0)
)
;

boundaryField
{
  floor
  {
    type noSlip;
  }
  ceiling
  {
    type noSlip;
  }
  sWall
  {
    type noSlip;
  }
  nWall
  {
    type noSlip;
  }
  sideWalls
  {
    type empty;
  }
  glass1
  {
    type noSlip;
  }
  glass2
  {
    type noSlip;
  }
  sun
  {
    type noSlip;
  }
  heatsource1
  {
    type noSlip;
  }
  heatsource2
  {
    type noSlip;
  }
  Table_master
  {
    type noSlip;
  }
  Table_slave
  {
    type noSlip;
  }
  inlet
  {
    type fixedValue;
    value uniform (0.3 0 0);
  }
  outlet
  {
    type zeroGradient;
  }
} 	// ************************************************************************* //

