/*--------------------------------*- C++ -*----------------------------------*\
  =========                 |
  \\      /  F ield         | OpenFOAM: The Open Source CFD Toolbox
   \\    /   O peration     | Website:  https://openfoam.org
    \\  /    A nd           | Version:  6
     \\/     M anipulation  |
\*---------------------------------------------------------------------------*/
FoamFile
{
    version     2.0;
    format      ascii;
    class       volScalarField;
    location    "1000";
    object      alphat;
}
// * * * * * * * * * * * * * * * * * * * * * * * * * * * * * * * * * * * * * //

dimensions      [1 -1 -1 0 0 0 0];

internalField   nonuniform List<scalar> 
459
(
0.00121291
0.00132105
0.00134428
0.00140732
0.00146537
0.00151966
0.00157294
0.00162588
0.0016643
0.0016814
0.00167021
0.00162552
0.00154563
0.00143489
0.00131014
0.000526913
0.000630324
0.000707666
0.000707035
0.000683596
0.000652603
0.000612706
0.000572701
0.00053636
0.000504124
0.000475592
0.000450249
0.000427718
0.000407519
0.000388934
0.000371035
0.000352536
0.000342115
0.000314318
0.00165753
0.00387121
0.00364382
0.00422334
0.00478571
0.00535509
0.00586367
0.00624541
0.00660497
0.00690936
0.00711413
0.00716976
0.00701396
0.00650216
0.00506004
0.00132919
0.000766389
0.000555241
0.00112819
0.00154989
0.0018589
0.00203304
0.00204027
0.00165018
0.00143041
0.00127138
0.00114855
0.00105061
0.000970753
0.000902123
0.000838325
0.000777155
0.000723513
0.000675115
0.000810542
0.000424912
0.00202848
0.00525303
0.00442217
0.0055424
0.00604717
0.00641331
0.00669928
0.00693772
0.00721918
0.00752758
0.00782623
0.00805578
0.00816053
0.00806734
0.00754846
0.00585645
0.00133087
0.00106433
0.00149833
0.00189706
0.00227135
0.00254403
0.00251532
0.000871625
0.000774977
0.000696102
0.000631737
0.000578861
0.000535047
0.000498483
0.000467956
0.000442873
0.000475513
0.000544085
0.000914814
0.000498881
0.00238623
0.00675785
0.00434675
0.0057923
0.00618891
0.0062799
0.00634219
0.00646705
0.00669783
0.00701203
0.00738087
0.00772144
0.00797523
0.00808647
0.00798336
0.00741352
0.00521583
0.00156774
0.00186562
0.00233669
0.0028278
0.00325039
0.0035393
0.00338655
0.000984499
0.000905238
0.000849138
0.000806725
0.00077036
0.000735724
0.000702195
0.000666493
0.000624412
0.00058649
0.000588617
0.00106508
0.00055697
0.00275151
0.00873235
0.00470094
0.0054957
0.00605781
0.00600388
0.00592957
0.00601403
0.00623889
0.00655774
0.0069675
0.00734852
0.00762027
0.00772648
0.00766141
0.00740361
0.00677889
0.00569778
0.00529725
0.00518336
0.00517903
0.00519947
0.00519265
0.00505253
0.00436944
0.00404527
0.00386271
0.00371908
0.00355766
0.00331337
0.00296026
0.00251757
0.00201738
0.00151226
0.00111503
0.00109025
0.000754594
0.000690892
0.000832547
0.000934005
0.00313944
0.0108982
0.00652166
0.00524897
0.00578606
0.00597202
0.00579636
0.0059003
0.00609839
0.00639879
0.00678975
0.0071839
0.00745959
0.00752901
0.00738767
0.00711529
0.00682308
0.00659897
0.00653717
0.0065178
0.00646106
0.00635929
0.00621695
0.00602218
0.00573217
0.00547413
0.00524162
0.00501105
0.00476814
0.0044995
0.00413987
0.00367097
0.00309172
0.00243696
0.00183885
0.00134255
0.00103577
0.000888561
0.00126882
0.000975848
0.00350636
0.0124756
0.00946753
0.00668825
0.00613985
0.00625906
0.00615805
0.00610272
0.00618814
0.00645715
0.00686043
0.00727144
0.00753813
0.00755521
0.00732896
0.00700067
0.00679711
0.0068521
0.00702035
0.00707548
0.00696323
0.00673139
0.0064282
0.00609105
0.00575411
0.0054571
0.00519074
0.00494018
0.00470212
0.00448216
0.00428031
0.00397861
0.00352722
0.00296256
0.00240648
0.00188487
0.0015214
0.00141409
0.00145024
0.00111074
0.00358522
0.0113853
0.00983225
0.00863688
0.00784762
0.00720907
0.00659156
0.00628397
0.00633667
0.00667823
0.0071601
0.00759487
0.00780824
0.00770782
0.00735157
0.00697312
0.00686474
0.00706134
0.00717106
0.0070072
0.00665345
0.00620216
0.00573219
0.00530719
0.00496058
0.00468725
0.00446197
0.00427086
0.00411496
0.0040038
0.00394955
0.00392889
0.00369274
0.00332517
0.00299193
0.00282044
0.00294209
0.00341255
0.00420304
0.00173341
0.00349721
0.00418659
0.00473908
0.00492873
0.0049643
0.00502637
0.00527651
0.00575161
0.0064213
0.0071632
0.0077999
0.008164
0.00813991
0.0077261
0.00714339
0.00686179
0.00679003
0.00671932
0.00646031
0.00600802
0.00545929
0.00491916
0.00446074
0.00410887
0.00384872
0.00364922
0.00348405
0.00333839
0.00320398
0.00307401
0.00294223
0.00281044
0.00270246
0.00262218
0.00259285
0.00260623
0.00259193
0.00248596
0.00232119
0.00162184
0.00221034
0.00388273
0.00518795
0.00624531
0.007101
0.00786565
0.00851258
0.00889829
0.00892022
0.00856686
0.00787497
0.00696657
0.00626153
0.00593498
0.005676
0.00529584
0.00480332
0.00427257
0.00378332
0.00339713
0.00311893
0.00292534
0.00278846
0.00268728
0.00260959
0.00254961
0.00250518
0.00247655
0.0024683
0.0024851
0.00251181
0.00254589
0.00257902
0.00258221
0.0025083
0.00234138
0.0020997
0.00132932
0.00254194
0.00528554
0.00705467
0.00791295
0.00844976
0.00876056
0.00887128
0.00846516
0.00760194
0.00655906
0.00560923
0.0048923
0.00440483
0.00401545
0.00359011
0.00315594
0.00277662
0.00248655
0.00228812
0.00215492
0.0020685
0.0020218
0.00200421
0.00200943
0.00203395
0.00207536
0.00213093
0.00219628
0.00227815
0.00237411
0.00248178
0.00259449
0.00269524
0.00276267
0.00274449
0.00276398
0.00272076
0.00135083
0.00217029
0.00228593
0.00237217
0.00244013
0.00219737
0.00199193
0.00187752
0.0017903
0.00166763
0.00151372
0.00133893
0.00115525
0.000988811
0.000857768
0.000764979
0.000704085
0.000665823
0.000643653
0.000633586
0.000632945
0.000639688
0.00065225
0.000669794
0.000690973
0.00071564
0.000743843
0.000775788
0.00081188
0.000852844
0.000899986
0.000952812
0.00101145
0.00107666
0.00114921
0.00122909
0.00132532
0.00135752
0.00132422
0.00123975
0.00115037
)
;

boundaryField
{
    floor
    {
        type            compressible::alphatWallFunction;
        Prt             0.85;
        value           nonuniform List<scalar> 
29
(
0.000185269
7.33486e-05
8.89015e-05
0.000100327
0.000100234
9.6788e-05
9.22089e-05
8.62749e-05
8.0277e-05
7.47834e-05
6.98716e-05
6.5491e-05
6.15724e-05
5.8065e-05
5.49005e-05
5.1971e-05
4.91326e-05
4.61803e-05
4.45084e-05
4.00158e-05
4.00152e-05
5.76272e-05
6.90699e-05
7.79058e-05
0.000185267
7.33477e-05
7.76435e-05
0.000151321
0.000220073
)
;
    }
    ceiling
    {
        type            compressible::alphatWallFunction;
        Prt             0.85;
        value           nonuniform List<scalar> 
43
(
0.000299099
0.000313985
0.000325037
0.00033383
0.000302755
0.000276149
0.000261204
0.000249744
0.000233513
0.000212956
0.000189319
0.000164098
0.000140842
0.00012221
0.000108814
9.99185e-05
9.42817e-05
9.09979e-05
8.95026e-05
8.94079e-05
9.04109e-05
9.22754e-05
9.48718e-05
9.79951e-05
0.000101618
0.000105742
0.00011039
0.000115614
0.00012151
0.000128254
0.000135761
0.000144038
0.000153177
0.00016327
0.000174299
0.000187477
0.000191862
0.000187328
0.000175765
0.000163434
0.000466227
0.000550094
0.000346551
)
;
    }
    sWall
    {
        type            compressible::alphatWallFunction;
        Prt             0.85;
        value           uniform 0.000297878;
    }
    nWall
    {
        type            compressible::alphatWallFunction;
        Prt             0.85;
        value           nonuniform List<scalar> 6(0.000132768 0.000138687 0.000157585 0.000187692 0.000190619 0.000163106);
    }
    sideWalls
    {
        type            empty;
    }
    glass1
    {
        type            compressible::alphatWallFunction;
        Prt             0.85;
        value           nonuniform List<scalar> 9(0.00016769 0.000226987 0.000275235 0.000320954 0.000366952 0.000415152 0.000460218 0.000469969 0.000459454);
    }
    glass2
    {
        type            compressible::alphatWallFunction;
        Prt             0.85;
        value           nonuniform List<scalar> 2(0.000240466 0.000225777);
    }
    sun
    {
        type            compressible::alphatWallFunction;
        Prt             0.85;
        value           nonuniform List<scalar> 
14
(
0.000171956
0.000186762
0.000189926
0.000198486
0.000206329
0.000213633
0.000220773
0.000227841
0.000232955
0.000235225
0.000233738
0.000227791
0.000217114
0.000202212
)
;
    }
    heatsource1
    {
        type            compressible::alphatWallFunction;
        Prt             0.85;
        value           nonuniform List<scalar> 3(9.7978e-05 0.000118587 0.000133088);
    }
    heatsource2
    {
        type            compressible::alphatWallFunction;
        Prt             0.85;
        value           nonuniform List<scalar> 4(0.000187997 0.000109017 0.000109016 0.000188222);
    }
    Table_master
    {
        type            compressible::alphatWallFunction;
        Prt             0.85;
        value           nonuniform List<scalar> 9(0.000124191 0.000110263 9.87408e-05 8.92213e-05 8.13118e-05 7.46902e-05 6.91123e-05 6.44159e-05 6.05278e-05);
    }
    Table_slave
    {
        type            compressible::alphatWallFunction;
        Prt             0.85;
        value           nonuniform List<scalar> 9(0.000140233 0.000128995 0.000120971 0.000114863 0.000109595 0.00010455 9.9639e-05 9.43783e-05 8.81331e-05);
    }
    inlet
    {
        type            fixedValue;
        value           uniform 1.94e-05;
    }
    outlet
    {
        type            zeroGradient;
    }
}


// ************************************************************************* //
