/*--------------------------------*- C++ -*----------------------------------*\
  =========                 |
  \\      /  F ield         | OpenFOAM: The Open Source CFD Toolbox
   \\    /   O peration     | Website:  https://openfoam.org
    \\  /    A nd           | Version:  6
     \\/     M anipulation  |
\*---------------------------------------------------------------------------*/
FoamFile
{
    version     2.0;
    format      ascii;
    class       volScalarField;
    location    "1000";
    object      epsilon;
}
// * * * * * * * * * * * * * * * * * * * * * * * * * * * * * * * * * * * * * //

dimensions      [0 2 -3 0 0 0 0];

internalField   nonuniform List<scalar> 
459
(
0.000403704
0.000520245
0.0005481
0.000628865
0.000709908
0.000791732
0.000877929
0.000969535
0.00103983
0.00107208
0.00105069
0.000968482
0.000832526
0.000666073
0.000507041
3.30082e-05
5.64955e-05
7.99414e-05
7.97277e-05
7.20602e-05
6.26984e-05
5.18896e-05
4.23764e-05
3.48117e-05
2.89057e-05
2.4271e-05
2.05948e-05
1.76558e-05
1.52711e-05
1.3276e-05
1.15266e-05
9.8874e-06
9.03664e-06
7.00939e-06
0.00103222
0.00153399
0.000489447
0.000472113
0.000491213
0.000524884
0.000576955
0.000649568
0.000722425
0.000772546
0.000779384
0.000734204
0.000643109
0.0005262
0.000435264
0.000529393
0.000101462
3.86272e-05
9.2053e-05
9.98467e-05
9.20006e-05
7.90767e-05
6.65347e-05
5.98173e-05
4.84094e-05
3.8368e-05
3.04341e-05
2.43205e-05
1.96261e-05
1.60221e-05
1.32699e-05
1.12613e-05
1.00457e-05
9.55272e-06
2.60543e-05
1.73153e-05
0.00189557
0.00382554
0.00060519
0.000446629
0.000462833
0.000514561
0.000594474
0.000700042
0.000803809
0.000872411
0.000886165
0.000841785
0.000750469
0.000631644
0.000523857
0.000467854
0.00053141
0.00027196
0.000205691
0.000159436
0.000125248
9.96709e-05
8.3867e-05
0.000149389
0.000105002
7.60937e-05
5.68773e-05
4.37574e-05
3.45545e-05
2.79433e-05
2.31176e-05
1.95958e-05
1.50322e-05
1.26479e-05
4.95664e-05
2.80235e-05
0.00309179
0.00801795
0.00096352
0.00044669
0.000445052
0.000516327
0.000634368
0.000794397
0.000931986
0.00100691
0.00101197
0.000953295
0.000845938
0.000707694
0.000584747
0.000502386
0.000481074
0.000868839
0.000498309
0.000302184
0.000203326
0.000147104
0.000112373
9.56408e-05
0.000215342
0.000167419
0.000138191
0.000118507
0.000103198
8.98976e-05
7.81607e-05
6.68359e-05
5.49588e-05
3.31573e-05
2.16635e-05
8.20832e-05
3.89989e-05
0.00474903
0.0143981
0.00192278
0.000518203
0.000439754
0.000528536
0.000732324
0.000990702
0.001151
0.00120955
0.00118526
0.00109495
0.00095422
0.000784572
0.00061626
0.00047405
0.000372773
0.000326731
0.000264261
0.000208832
0.00016506
0.000131661
0.000106646
8.98607e-05
8.6856e-05
8.20454e-05
7.74659e-05
7.27755e-05
6.73802e-05
6.1079e-05
5.46549e-05
4.84814e-05
4.27803e-05
3.47376e-05
2.69162e-05
5.85034e-05
4.52843e-05
7.44897e-05
0.0001304
0.000184132
0.00706626
0.0214731
0.00437548
0.000964887
0.000603506
0.000665172
0.00110076
0.00140812
0.00151737
0.00151227
0.00143442
0.00129731
0.00110785
0.000886078
0.000664276
0.000475234
0.000340427
0.000261743
0.000214254
0.000177961
0.000146642
0.00012088
0.000101293
8.83856e-05
8.28191e-05
8.14608e-05
8.12942e-05
8.04411e-05
7.7684e-05
7.20507e-05
6.33838e-05
5.41571e-05
4.56496e-05
3.80875e-05
3.31625e-05
4.41046e-05
4.63419e-05
5.69318e-05
0.000241161
0.000209937
0.00985974
0.025722
0.00922347
0.00325746
0.0019853
0.00180823
0.00214096
0.00219387
0.00210449
0.00195986
0.0017819
0.00156299
0.00129824
0.00100568
0.000721718
0.000486266
0.00032555
0.000234991
0.00018659
0.00015441
0.000128496
0.000108536
9.51501e-05
8.84177e-05
8.78559e-05
9.12603e-05
9.60033e-05
0.000100528
0.000103614
0.000103487
9.67976e-05
8.5405e-05
7.40285e-05
6.43915e-05
6.03866e-05
6.74257e-05
8.57567e-05
0.000137221
0.000319515
0.00030954
0.0105634
0.0289099
0.0156133
0.00985072
0.00680272
0.00525971
0.00416738
0.00342571
0.00291717
0.00254079
0.00221294
0.00187396
0.0014995
0.00111059
0.000749652
0.000463554
0.000285263
0.000193751
0.000150467
0.000125118
0.000107097
9.55297e-05
9.01349e-05
9.0291e-05
9.51061e-05
0.000103316
0.000113871
0.000126477
0.000141212
0.000157942
0.00017559
0.000185995
0.000194805
0.000214721
0.000256574
0.000384732
0.000712024
0.00135257
0.00398766
0.00117837
0.0098349
0.0168248
0.0135226
0.0102001
0.00774594
0.00606218
0.00491801
0.00413094
0.00356438
0.00310067
0.00264747
0.00215426
0.00161679
0.00109797
0.000650706
0.000330994
0.000198693
0.000141057
0.000112705
9.63602e-05
8.67653e-05
8.26516e-05
8.32532e-05
8.78552e-05
9.58907e-05
0.000107035
0.000121416
0.000139782
0.000163504
0.000194589
0.000235739
0.000290863
0.000366417
0.000480827
0.000650017
0.00088053
0.0011449
0.00137564
0.00155193
0.000966595
0.00504951
0.00677306
0.00663065
0.00609379
0.00538093
0.00469507
0.00404785
0.00338401
0.00267803
0.00194219
0.00115835
0.000595403
0.00030427
0.000166878
0.000110945
8.61064e-05
7.36719e-05
6.70686e-05
6.42604e-05
6.45813e-05
6.74877e-05
7.26202e-05
7.98576e-05
8.93477e-05
0.000101558
0.000117344
0.000138055
0.000165735
0.000203603
0.00025668
0.00033031
0.000431769
0.000564545
0.000716126
0.000845555
0.000897732
0.000841645
0.000532151
0.00350837
0.00675733
0.00656265
0.00525909
0.00442881
0.00380997
0.00302616
0.00216553
0.00139038
0.00080862
0.000428546
0.000229321
0.000130253
8.50107e-05
6.54318e-05
5.66962e-05
5.29828e-05
5.2108e-05
5.32205e-05
5.5844e-05
5.98614e-05
6.53154e-05
7.23649e-05
8.13366e-05
9.27658e-05
0.000107487
0.000126785
0.000152616
0.00018768
0.000235521
0.000301052
0.000389268
0.000500867
0.000627191
0.000722363
0.000819991
0.000754528
0.000558341
0.00222703
0.00260051
0.00290592
0.00321793
0.00236958
0.00177305
0.00148863
0.00129296
0.00104639
0.000783314
0.000542429
0.000348566
0.000218629
0.00014274
0.000101258
7.89565e-05
6.67756e-05
6.03283e-05
5.75447e-05
5.73732e-05
5.9229e-05
6.27896e-05
6.79958e-05
7.46542e-05
8.29406e-05
9.31405e-05
0.000105666
0.000121113
0.000140389
0.000164983
0.000195778
0.000234198
0.000282491
0.000343542
0.0004203
0.000527004
0.000566407
0.000525774
0.000431446
0.000344825
)
;

boundaryField
{
    floor
    {
        Cmu             0.09;
        kappa           0.41;
        E               9.8;
        type            epsilonWallFunction;
        value           nonuniform List<scalar> 
29
(
0.000507041
3.30082e-05
5.64955e-05
7.99414e-05
7.97277e-05
7.20602e-05
6.26984e-05
5.18896e-05
4.23764e-05
3.48117e-05
2.89057e-05
2.4271e-05
2.05948e-05
1.76558e-05
1.52711e-05
1.3276e-05
1.15266e-05
9.8874e-06
9.03664e-06
7.00939e-06
7.00939e-06
1.73153e-05
2.80235e-05
3.89989e-05
0.000507041
3.30082e-05
3.86272e-05
0.00027196
0.000868839
)
;
    }
    ceiling
    {
        Cmu             0.09;
        kappa           0.41;
        E               9.8;
        type            epsilonWallFunction;
        value           nonuniform List<scalar> 
43
(
0.00222703
0.00260051
0.00290592
0.00321793
0.00236958
0.00177305
0.00148863
0.00129296
0.00104639
0.000783314
0.000542429
0.000348566
0.000218629
0.00014274
0.000101258
7.89565e-05
6.67756e-05
6.03283e-05
5.75447e-05
5.73732e-05
5.9229e-05
6.27896e-05
6.79958e-05
7.46542e-05
8.29406e-05
9.31405e-05
0.000105666
0.000121113
0.000140389
0.000164983
0.000195778
0.000234198
0.000282491
0.000343542
0.0004203
0.000527004
0.000566407
0.000525774
0.000431446
0.000344825
0.0098349
0.0168248
0.00350837
)
;
    }
    sWall
    {
        Cmu             0.09;
        kappa           0.41;
        E               9.8;
        type            epsilonWallFunction;
        value           uniform 0.00222703;
    }
    nWall
    {
        Cmu             0.09;
        kappa           0.41;
        E               9.8;
        type            epsilonWallFunction;
        value           nonuniform List<scalar> 6(0.000184132 0.000209937 0.00030954 0.000532151 0.000558341 0.000344825);
    }
    sideWalls
    {
        type            empty;
    }
    glass1
    {
        Cmu             0.09;
        kappa           0.41;
        E               9.8;
        type            epsilonWallFunction;
        value           nonuniform List<scalar> 9(0.000403704 0.00103222 0.00189557 0.00309179 0.00474903 0.00706626 0.00985974 0.0105634 0.0098349);
    }
    glass2
    {
        Cmu             0.09;
        kappa           0.41;
        E               9.8;
        type            epsilonWallFunction;
        value           nonuniform List<scalar> 2(0.00117837 0.000966595);
    }
    sun
    {
        Cmu             0.09;
        kappa           0.41;
        E               9.8;
        type            epsilonWallFunction;
        value           nonuniform List<scalar> 
14
(
0.000403704
0.000520245
0.0005481
0.000628865
0.000709908
0.000791732
0.000877929
0.000969535
0.00103983
0.00107208
0.00105069
0.000968482
0.000832526
0.000666073
)
;
    }
    heatsource1
    {
        Cmu             0.09;
        kappa           0.41;
        E               9.8;
        type            epsilonWallFunction;
        value           nonuniform List<scalar> 3(7.44897e-05 0.0001304 0.000184132);
    }
    heatsource2
    {
        Cmu             0.09;
        kappa           0.41;
        E               9.8;
        type            epsilonWallFunction;
        value           nonuniform List<scalar> 4(0.000529393 0.000101462 0.000101462 0.00053141);
    }
    Table_master
    {
        Cmu             0.09;
        kappa           0.41;
        E               9.8;
        type            epsilonWallFunction;
        value           nonuniform List<scalar> 9(0.000149389 0.000105002 7.60937e-05 5.68773e-05 4.37574e-05 3.45545e-05 2.79433e-05 2.31176e-05 1.95958e-05);
    }
    Table_slave
    {
        Cmu             0.09;
        kappa           0.41;
        E               9.8;
        type            epsilonWallFunction;
        value           nonuniform List<scalar> 9(0.000215342 0.000167419 0.000138191 0.000118507 0.000103198 8.98976e-05 7.81607e-05 6.68359e-05 5.49588e-05);
    }
    inlet
    {
        type            turbulentMixingLengthDissipationRateInlet;
        mixingLength    0.01;
        phi             phi;
        k               k;
        value           uniform 0.000101881;
    }
    outlet
    {
        type            zeroGradient;
    }
}


// ************************************************************************* //
