/*--------------------------------*- C++ -*----------------------------------*\
  =========                 |
  \\      /  F ield         | OpenFOAM: The Open Source CFD Toolbox
   \\    /   O peration     | Website:  https://openfoam.org
    \\  /    A nd           | Version:  6
     \\/     M anipulation  |
\*---------------------------------------------------------------------------*/
FoamFile
{
    version     2.0;
    format      ascii;
    class       volScalarField;
    location    "1000";
    object      nut;
}
// * * * * * * * * * * * * * * * * * * * * * * * * * * * * * * * * * * * * * //

dimensions      [0 2 -1 0 0 0 0];

internalField   nonuniform List<scalar> 
459
(
0.00105784
0.00115223
0.00117309
0.00122858
0.0012799
0.00132814
0.00137584
0.00142199
0.00145467
0.00146773
0.00145517
0.00141265
0.00133841
0.00123538
0.00111648
0.000459448
0.000548349
0.000617735
0.000621414
0.000602888
0.000576956
0.000541721
0.000505926
0.000473338
0.000444438
0.000418877
0.000396198
0.000376058
0.000358023
0.000341452
0.000325523
0.00030912
0.000299755
0.000275292
0.00144359
0.0033979
0.0032064
0.00371695
0.00421526
0.00471687
0.00515737
0.00549626
0.00581274
0.00607755
0.0062535
0.00630072
0.00617115
0.00575065
0.00456351
0.00113395
0.000685583
0.000481062
0.000997959
0.00138837
0.00168207
0.00185372
0.0018628
0.00148467
0.0012795
0.00113288
0.00102046
0.000931284
0.00085882
0.000796739
0.000739125
0.000683758
0.00063494
0.000591406
0.000709232
0.000369984
0.00176521
0.00461112
0.0039013
0.00486787
0.00530714
0.00562707
0.00587828
0.00609656
0.00635116
0.00662738
0.00689299
0.00709617
0.00719147
0.007109
0.00663383
0.00510809
0.00115716
0.000908508
0.00130714
0.00168587
0.00205127
0.00232244
0.00229626
0.000769908
0.000682425
0.000611246
0.000553354
0.000505946
0.000466776
0.00043418
0.000407066
0.000384944
0.000414857
0.000476425
0.000802374
0.00043402
0.00207493
0.00591458
0.00384624
0.00508262
0.00541658
0.00549653
0.00556218
0.00568588
0.00589944
0.00618474
0.00651515
0.00681599
0.00703983
0.00712882
0.00702763
0.00649264
0.00443349
0.00135598
0.0016232
0.00205854
0.00252733
0.00294053
0.003225
0.00307682
0.000871169
0.000799131
0.000748167
0.000709613
0.000676594
0.000645171
0.000614822
0.000582618
0.000544822
0.000511123
0.000514469
0.000936908
0.00048421
0.00239095
0.00761851
0.00416076
0.00483917
0.00530077
0.00525205
0.00520689
0.00530186
0.00550535
0.0057949
0.00616089
0.00649334
0.00672587
0.00681309
0.00675471
0.00652981
0.00597499
0.00504615
0.00471891
0.00464981
0.00467683
0.00471734
0.00471876
0.0045781
0.00391976
0.00360394
0.00342301
0.00328157
0.0031279
0.00290455
0.0025867
0.00219245
0.00175095
0.00131055
0.000967823
0.000953124
0.000657925
0.000599324
0.000721215
0.000809642
0.00272651
0.0094875
0.00574306
0.00466241
0.00510855
0.0052526
0.00511649
0.00521388
0.00538566
0.00565597
0.00600661
0.00635222
0.00658452
0.00663455
0.00651164
0.00629594
0.00608236
0.00593373
0.00591711
0.0059239
0.00588456
0.00579224
0.00565139
0.00545137
0.00515405
0.00488866
0.00465252
0.00442403
0.00419006
0.00393885
0.00361239
0.00319365
0.00268239
0.0021107
0.00159363
0.00116743
0.000904567
0.000777817
0.00110954
0.000846901
0.00304256
0.010844
0.00827849
0.00592922
0.00549895
0.00555501
0.00544182
0.00537686
0.00545577
0.00570611
0.00607164
0.00643265
0.00665405
0.006655
0.00646081
0.00621452
0.00611529
0.00624171
0.00642585
0.0064791
0.0063708
0.00614893
0.00585643
0.00552354
0.00518018
0.00487127
0.00459555
0.00434202
0.00410809
0.00389835
0.00371208
0.00344799
0.00305672
0.00256716
0.00208654
0.00163871
0.0013291
0.00124345
0.00127974
0.000970502
0.0031115
0.00987037
0.00854291
0.00753818
0.00690534
0.00628942
0.00574287
0.00549616
0.00557538
0.00590412
0.0063423
0.00672173
0.00689047
0.00678734
0.00649139
0.00623135
0.00624738
0.00648899
0.00658769
0.00643832
0.00611552
0.00569414
0.00523873
0.00480787
0.00444252
0.00415003
0.0039125
0.00371723
0.00356328
0.00345651
0.00340461
0.0033862
0.00319849
0.00288731
0.00260766
0.00247103
0.00259482
0.00302128
0.00370318
0.00150566
0.00303719
0.0036288
0.00410127
0.00425559
0.00427551
0.00435251
0.00460631
0.00506428
0.00568974
0.00636122
0.00691897
0.00722069
0.00716529
0.00679208
0.00634603
0.0062049
0.00621239
0.00617823
0.00595862
0.00555652
0.00504977
0.00452448
0.0040547
0.00368017
0.00340025
0.00319033
0.00302461
0.00288667
0.00276643
0.00265571
0.00254734
0.00244072
0.00235463
0.00229121
0.00226898
0.00227985
0.00226301
0.00216481
0.00201804
0.00140606
0.00184938
0.0032842
0.00448281
0.00547298
0.00627247
0.00698866
0.00756826
0.00787607
0.00785651
0.00752129
0.00691133
0.00615717
0.00564497
0.00543224
0.00523241
0.00490798
0.00446397
0.00396739
0.00348733
0.00308501
0.0027862
0.00257848
0.00243626
0.00233685
0.00226559
0.00221446
0.00217947
0.00215926
0.00215662
0.00217533
0.00220213
0.00223422
0.00226383
0.00226559
0.00219916
0.00205296
0.00184008
0.00115138
0.00213917
0.00454391
0.00615383
0.00692338
0.00742453
0.00775317
0.00779414
0.00731926
0.00654134
0.00567913
0.00493794
0.00438682
0.00401598
0.00370246
0.0033383
0.00294177
0.00256853
0.00226405
0.00204619
0.00190277
0.00181174
0.00176028
0.00174023
0.00174385
0.00176658
0.0018054
0.0018573
0.00191794
0.0019928
0.00207975
0.00217648
0.00227668
0.00236513
0.00242471
0.00240683
0.00242162
0.00237289
0.00116979
0.00197441
0.00197671
0.00201354
0.00208593
0.00188348
0.00171644
0.00163013
0.00155334
0.00144345
0.00131161
0.00115743
0.00100249
0.000864264
0.000754598
0.000676095
0.000622534
0.000586394
0.000563067
0.000550212
0.000546277
0.00054971
0.000559039
0.000573278
0.000591498
0.000613014
0.000637789
0.00066596
0.000697854
0.000734094
0.000775835
0.000822646
0.000874584
0.000932279
0.000996336
0.00106664
0.00115233
0.00117812
0.00114784
0.0010748
0.000996532
)
;

boundaryField
{
    floor
    {
        type            nutkWallFunction;
        Cmu             0.09;
        kappa           0.41;
        E               9.8;
        value           nonuniform List<scalar> 
29
(
0.000134341
5.45004e-05
6.58549e-05
7.45583e-05
7.50164e-05
7.27064e-05
6.94585e-05
6.50167e-05
6.04676e-05
5.62914e-05
5.25576e-05
4.92298e-05
4.62556e-05
4.35961e-05
4.1199e-05
3.89827e-05
3.68392e-05
3.46174e-05
3.3342e-05
2.99849e-05
2.99848e-05
4.27899e-05
5.12037e-05
5.76879e-05
0.000134341
5.45004e-05
5.72841e-05
0.000109899
0.000161858
)
;
    }
    ceiling
    {
        type            nutkWallFunction;
        Cmu             0.09;
        kappa           0.41;
        E               9.8;
        value           nonuniform List<scalar> 
43
(
0.000230559
0.000230727
0.000234733
0.000242681
0.000220652
0.000202264
0.000192687
0.000184116
0.000171765
0.000156803
0.000139091
0.000121016
0.00010462
9.13937e-05
8.17868e-05
7.5156e-05
7.06431e-05
6.77123e-05
6.6091e-05
6.55936e-05
6.60274e-05
6.72047e-05
6.89969e-05
7.12823e-05
7.39701e-05
7.70511e-05
8.05369e-05
8.44621e-05
8.88964e-05
9.39717e-05
9.96255e-05
0.000105855
0.000112724
0.000120293
0.000128538
0.000138502
0.000141485
0.000137982
0.00012949
0.000120317
0.000343999
0.000405147
0.000248246
)
;
    }
    sWall
    {
        type            nutkWallFunction;
        Cmu             0.09;
        kappa           0.41;
        E               9.8;
        value           uniform 0.000230619;
    }
    nWall
    {
        type            nutkWallFunction;
        Cmu             0.09;
        kappa           0.41;
        E               9.8;
        value           nonuniform List<scalar> 6(9.80595e-05 0.000102542 0.000117251 0.000138403 0.000140533 0.000120323);
    }
    sideWalls
    {
        type            empty;
    }
    glass1
    {
        type            nutkWallFunction;
        Cmu             0.09;
        kappa           0.41;
        E               9.8;
        value           nonuniform List<scalar> 9(0.000127606 0.000171998 0.000207981 0.000241956 0.000276063 0.00031176 0.000344964 0.000352167 0.000344428);
    }
    glass2
    {
        type            nutkWallFunction;
        Cmu             0.09;
        kappa           0.41;
        E               9.8;
        value           nonuniform List<scalar> 2(0.000178854 0.000167611);
    }
    sun
    {
        type            nutkWallFunction;
        Cmu             0.09;
        kappa           0.41;
        E               9.8;
        value           nonuniform List<scalar> 
14
(
0.000127511
0.000138488
0.000140901
0.000147296
0.000153181
0.000158689
0.000164114
0.000169342
0.000173033
0.000174505
0.000173089
0.000168284
0.000159858
0.000148076
)
;
    }
    heatsource1
    {
        type            nutkWallFunction;
        Cmu             0.09;
        kappa           0.41;
        E               9.8;
        value           nonuniform List<scalar> 3(7.2263e-05 8.7324e-05 9.80585e-05);
    }
    heatsource2
    {
        type            nutkWallFunction;
        Cmu             0.09;
        kappa           0.41;
        E               9.8;
        value           nonuniform List<scalar> 4(0.000136365 8.29563e-05 8.29563e-05 0.000139054);
    }
    Table_master
    {
        type            nutkWallFunction;
        Cmu             0.09;
        kappa           0.41;
        E               9.8;
        value           nonuniform List<scalar> 9(9.32532e-05 8.25675e-05 7.37522e-05 6.6491e-05 6.04753e-05 5.54525e-05 5.12325e-05 4.76918e-05 4.47809e-05);
    }
    Table_slave
    {
        type            nutkWallFunction;
        Cmu             0.09;
        kappa           0.41;
        E               9.8;
        value           nonuniform List<scalar> 9(0.000105445 9.679e-05 9.06117e-05 8.59047e-05 8.18493e-05 7.79679e-05 7.41975e-05 7.01718e-05 6.54123e-05);
    }
    inlet
    {
        type            calculated;
        value           uniform 0.000100623;
    }
    outlet
    {
        type            calculated;
        value           nonuniform List<scalar> 2(0.00197441 0.00197671);
    }
}


// ************************************************************************* //
