/*--------------------------------*- C++ -*----------------------------------*\
  =========                 |
  \\      /  F ield         | OpenFOAM: The Open Source CFD Toolbox
   \\    /   O peration     | Website:  https://openfoam.org
    \\  /    A nd           | Version:  6
     \\/     M anipulation  |
\*---------------------------------------------------------------------------*/
FoamFile
{
    version     2.0;
    format      ascii;
    class       surfaceScalarField;
    location    "500";
    object      phi;
}
// * * * * * * * * * * * * * * * * * * * * * * * * * * * * * * * * * * * * * //

dimensions      [1 0 -1 0 0 0 0];

internalField   nonuniform List<scalar> 
852
(
-0.00301225
0.00306949
-0.00412145
0.00110922
-0.00493633
0.0008149
-0.00552726
0.000590946
-0.00585444
0.000327195
-0.00588412
2.96978e-05
-0.00558631
-0.000297795
-0.00496337
-0.000622916
-0.00407787
-0.000885487
-0.00304018
-0.00103767
-0.00197658
-0.00106359
-0.00101182
-0.000964737
-0.000269564
-0.000742245
8.47755e-05
-0.000354328
8.6822e-05
-0.000858379
0.000861335
-0.000666763
-0.000191616
-9.25998e-05
-0.000574163
0.00045691
-0.00054951
0.000870924
-0.000414015
0.00115789
-0.000286971
0.00132109
-0.000163204
0.00139827
-7.71826e-05
0.00144068
-4.24143e-05
0.00146756
-2.68852e-05
0.00148391
-1.63494e-05
0.00149182
-7.92393e-06
0.00149024
1.57952e-06
0.0014715
1.87327e-05
0.00141384
5.7645e-05
0.0012801
0.000133737
0.00105556
0.00022453
0.000757991
0.000297553
0.000761823
-0.00216363
0.00538756
-0.00323392
0.00217952
-0.00407556
0.00165656
-0.00466989
0.00118529
-0.00500462
0.000661947
-0.00505014
7.52311e-05
-0.0047782
-0.00056971
-0.00420633
-0.00119477
-0.0034145
-0.0016773
-0.00251795
-0.0019342
-0.0016286
-0.00195292
-0.000842497
-0.00175083
-0.000227261
-0.00135747
0.00020214
-0.000783718
0.000526758
-0.000237786
0.000397226
0.000129491
0.000397184
7.44312e-05
0.000795746
0.00046842
-0.000585604
0.000800401
-0.000906142
0.00106814
-0.000817252
0.00128723
-0.000633104
0.00143874
-0.000438485
0.00147047
-0.000194937
0.00147741
-8.41248e-05
0.00148546
-5.04699e-05
0.00149217
-3.35923e-05
0.00149655
-2.07398e-05
0.00149907
-1.04508e-05
0.00149921
1.43361e-06
0.00149369
2.42388e-05
0.00145479
9.65399e-05
0.00128595
0.000302562
0.000996789
0.000513685
0.000636603
0.000657727
0.00140846
-0.00152112
0.00714541
-0.00243781
0.00309623
-0.00319323
0.00241201
-0.00371569
0.00170777
-0.0040156
0.000961881
-0.0040479
0.00010755
-0.00376227
-0.000855319
-0.00320287
-0.00175415
-0.00247812
-0.00240202
-0.00170714
-0.00270515
-0.000976468
-0.00268358
-0.000346907
-0.00238037
0.000159021
-0.00186338
0.000564702
-0.00118939
0.000835088
-0.000508161
0.000805028
0.000159561
0.00120222
0.00145833
-0.000652153
0.00168613
-0.000813403
0.00164758
-0.000867589
0.00164458
-0.000814253
0.0016823
-0.000670816
0.00176092
-0.000517112
0.00156613
0.00148216
0.00143184
0.00139839
0.0013778
0.00136749
0.00136907
0.00139346
0.00149014
0.00121455
0.000578143
0.000892953
0.000835268
0.000510486
0.00104018
0.00193427
-0.00105957
0.00851221
-0.00177557
0.00381225
-0.00228872
0.00292518
-0.00264479
0.00206385
-0.00284588
0.00116299
-0.00279475
5.64328e-05
-0.00243238
-0.00121766
-0.00187254
-0.00231396
-0.00124093
-0.0030336
-0.000635552
-0.00331051
-0.000102239
-0.00321687
0.000339688
-0.00282228
0.000700966
-0.00222465
0.00102671
-0.00151512
0.00132031
-0.00080175
0.00164785
-0.000167968
0.00257003
0.000280045
0.0026312
-5.23781e-05
0.00235905
-0.000379988
0.00218662
-0.000640966
0.00200961
-0.000690575
0.00185234
-0.000656983
0.00174088
-0.000559355
0.00162592
-0.000402158
0.00179365
-0.000167894
0.00187943
-8.59446e-05
0.00193776
-5.8495e-05
0.0019753
-3.77033e-05
0.00197936
-4.22903e-06
0.00193068
4.85189e-05
0.00180566
0.000124851
0.00157153
0.000233954
0.00117211
0.000399245
0.00101283
0.000737412
0.000714926
0.00113316
0.000290535
0.00146456
0.00224488
-0.000733039
0.00961265
-0.00125906
0.00433829
-0.00138382
0.00304996
-0.00146102
0.00214106
-0.0014671
0.00116908
-0.00121257
-0.00019808
-0.000735739
-0.00169448
-0.000212457
-0.00283722
0.000251357
-0.00349738
0.000618221
-0.00367734
0.000885159
-0.00348378
0.00108151
-0.00301861
0.00123942
-0.00238255
0.0013937
-0.0016694
0.0015728
-0.000980843
0.00181866
-0.000413829
0.00215951
-6.0798e-05
0.0022044
-9.72547e-05
0.00211225
-0.000287835
0.00191355
-0.000442263
0.00171378
-0.000490809
0.00153117
-0.000474372
0.0013833
-0.000411492
0.00128799
-0.000306862
0.00130321
-0.000183126
0.00133339
-0.000116144
0.00136672
-9.1834e-05
0.00140226
-7.32626e-05
0.00143077
-3.27641e-05
0.00143382
4.54495e-05
0.00139155
0.000167106
0.00129093
0.000334545
0.00113489
0.000555265
0.000994058
0.000878228
0.000843782
0.00128342
0.000508561
0.00179976
0.000445353
0.00230807
-0.000980405
0.00142553
-0.00143271
0.00045208
-0.00138488
-0.000625457
0.0106564
-0.000963659
0.0046765
-0.000545791
0.00263211
-0.000177653
0.00177294
0.000201093
0.000790347
0.000757067
-0.000754041
0.00129165
-0.00222904
0.001671
-0.00321653
0.00187044
-0.00369677
0.00192991
-0.00373678
0.00188515
-0.00343898
0.00177993
-0.00291338
0.00166042
-0.00226303
0.00156459
-0.00157357
0.00152042
-0.000936675
0.00154259
-0.000435997
0.00161588
-0.000134093
0.00159875
-8.01223e-05
0.0014757
-0.000164788
0.00128924
-0.0002558
0.00110034
-0.000301919
0.000931424
-0.000305468
0.000796252
-0.000276334
0.000711841
-0.000222468
0.000692268
-0.000163571
0.000712092
-0.000135989
0.000754813
-0.000134577
0.000814775
-0.000133248
0.000887127
-0.00010514
0.000956924
-2.43719e-05
0.00100598
0.000118022
0.0010323
0.0003082
0.00104255
0.000544998
0.00107759
0.00084316
0.0011834
0.00117759
0.00137427
0.00160887
0.00184483
0.0018375
0.00213091
0.00113943
0.00176489
0.000818079
0.000437399
-0.000673553
0.0117942
-0.000515034
0.004518
0.000642439
0.00147465
0.00146544
0.000949945
0.00228092
-2.51301e-05
0.00306429
-0.0015374
0.00351991
-0.00268462
0.00364308
-0.00333966
0.00349694
-0.00355059
0.00316482
-0.00340462
0.00272479
-0.00299893
0.00224937
-0.00243795
0.00180089
-0.00181455
0.00141775
-0.00119043
0.00113033
-0.000649271
0.000949921
-0.000255595
0.000852874
-3.70544e-05
0.000764688
8.05404e-06
0.00064213
-4.22394e-05
0.00049413
-0.000107813
0.000344106
-0.00015191
0.000208859
-0.000170238
0.000101515
-0.00016901
3.57589e-05
-0.000156734
1.92722e-05
-0.000147109
4.02185e-05
-0.000156961
8.64778e-05
-0.000180863
0.000154717
-0.000201514
0.000248211
-0.000198662
0.000371955
-0.000148144
0.000510892
-2.09426e-05
0.000653291
0.000165775
0.000811883
0.000386379
0.00101856
0.000636457
0.00131638
0.000879748
0.00177176
0.00115347
0.00245858
0.00115067
0.00301674
0.000581246
0.00304153
0.000793271
0.00353952
0.00271716
0.00959624
0.00346216
0.00377302
0.00377709
0.00115973
0.00461725
0.000109796
0.00558646
-0.000994331
0.00604331
-0.00199421
0.0060023
-0.00264355
0.00556383
-0.00290114
0.00485147
-0.00283819
0.00398822
-0.00254133
0.0030747
-0.0020854
0.0021987
-0.00156195
0.00143107
-0.00104693
0.000797748
-0.000557131
0.000337549
-0.000189091
5.46597e-05
2.72747e-05
-9.00693e-05
0.000107657
-0.000174151
9.21193e-05
-0.00025667
4.02617e-05
-0.000352982
-1.15202e-05
-0.000455121
-4.97941e-05
-0.000550011
-7.53724e-05
-0.000626751
-9.22963e-05
-0.000676478
-0.000107034
-0.000696292
-0.000127323
-0.000694819
-0.000158464
-0.000680426
-0.000195286
-0.00065458
-0.00022739
-0.000610113
-0.000243159
-0.000528764
-0.000229523
-0.000381883
-0.000167853
-0.000183004
-3.31325e-05
5.22037e-05
0.000151144
0.000337999
0.000350636
0.000672165
0.000545556
0.00108882
0.000736792
0.00151647
0.000722991
0.00165815
0.000439546
0.000931962
0.00151944
0.00472677
0.0101674
0.0139339
0.0124258
0.00266789
0.0115994
0.000936195
0.0107276
-0.000122455
0.0095614
-0.000827956
0.00815266
-0.00123475
0.00663288
-0.00138131
0.00510729
-0.00131256
0.00366209
-0.00109612
0.00234283
-0.000766148
0.00119806
-0.000417193
0.000261933
-0.000110832
-0.000403286
0.000108053
-0.000776091
0.000183687
-0.000942465
0.000193626
-0.00101091
0.000176077
-0.0010565
0.000137692
-0.00110682
9.05499e-05
-0.00116592
4.75573e-05
-0.00123063
1.48887e-05
-0.00129697
-9.0622e-06
-0.00135953
-2.97679e-05
-0.0014147
-5.18935e-05
-0.00146401
-7.80533e-05
-0.00151628
-0.000106223
-0.00158205
-0.000129543
-0.00167101
-0.000138463
-0.00179305
-0.000121153
-0.00195846
-6.41401e-05
-0.00217285
4.65062e-05
-0.0024277
0.00022169
-0.00275354
0.000476952
-0.00322967
0.000826746
-0.00394732
0.00126318
-0.00496131
0.00175075
-0.0063796
0.00214126
-0.00807237
0.00213229
-0.0075015
0.000948545
-0.00249276
0.00500746
0.00434341
0.00370068
0.00224311
0.00384655
-0.000268236
0.00374198
-0.000723372
0.00315624
-0.000649022
0.00231503
-0.000540127
0.00136498
-0.000362553
0.00038926
-0.000120445
-0.000493644
0.000116698
-0.00114681
0.000235933
-0.00153074
0.000273068
-0.00170105
0.000278327
-0.00177262
0.000255226
-0.0018014
0.000222387
-0.00181434
0.000188982
-0.00183145
0.000154777
-0.00186148
0.000120548
-0.00190334
8.93904e-05
-0.00195184
6.3348e-05
-0.00200273
4.17959e-05
-0.0020553
2.27633e-05
-0.00211191
4.68424e-06
-0.002176
-1.40002e-05
-0.00225119
-3.10611e-05
-0.00233997
-4.0795e-05
-0.00244213
-3.63389e-05
-0.00255363
-9.68377e-06
-0.00266637
4.85664e-05
-0.00277076
0.000150867
-0.00286476
0.000315665
-0.00295421
0.000566371
-0.00304453
0.000917043
-0.00312982
0.00134844
-0.00315118
0.00177208
-0.00303146
0.00202152
-0.00254924
0.00165004
-0.00129402
-0.000306707
-0.00371427
-0.000364428
0.00476995
0.000744825
0.00113393
0.000270943
0.000205654
-0.000409718
-4.2781e-05
-0.00106098
2.17319e-06
-0.00167093
6.97627e-05
-0.00217225
0.000138713
-0.0024976
0.000204858
-0.00263321
0.000252267
-0.00266009
0.00026278
-0.00263078
0.000243724
-0.00256771
0.00021522
-0.00249928
0.000186765
-0.00244049
0.000163561
-0.00239716
0.000145625
-0.00237261
0.000130183
-0.00236718
0.000115087
-0.00237752
9.96887e-05
-0.00239829
8.4083e-05
-0.00242496
6.84304e-05
-0.00245502
5.27916e-05
-0.00248742
3.70435e-05
-0.00252358
2.21201e-05
-0.00256319
8.52087e-06
-0.00260271
-1.31434e-06
-0.00263619
-2.8922e-06
-0.00265477
8.86183e-06
-0.00264962
4.33938e-05
-0.00260615
0.000107362
-0.0025007
0.000210188
-0.00230185
0.000367484
-0.00198483
0.000599996
-0.00153665
0.000900235
-0.000927501
0.0011629
1.64611e-05
0.00107753
0.0012081
0.000458374
0.00153254
-0.000631172
-0.00210221
-0.00784753
-0.0107754
-0.00596112
-0.00480672
-0.00459055
-0.00462758
-0.00462231
-0.00455129
-0.00441276
-0.0042093
-0.00395948
-0.00370007
-0.00346053
-0.00325015
-0.00306879
-0.0029111
-0.00277177
-0.00264826
-0.00254017
-0.00244776
-0.00237114
-0.00231027
-0.00226507
-0.00223558
-0.0022209
-0.00221966
-0.00222804
-0.00223774
-0.00223539
-0.00219819
-0.00209671
-0.00189208
-0.00152984
-0.000934813
-3.93021e-05
0.00111905
0.00219195
0.00264543
0.00200899
)
;

boundaryField
{
    floor
    {
        type            calculated;
        value           nonuniform List<scalar> 
29
(
0
0
0
0
0
0
0
0
0
0
0
0
0
0
0
0
0
0
0
0
-3.84449e-06
-1.00524e-05
-1.5338e-05
-2.00873e-05
-2.03159e-06
-2.95829e-06
-8.84358e-06
-1.04314e-05
-8.78193e-06
)
;
    }
    ceiling
    {
        type            calculated;
        value           nonuniform List<scalar> 
43
(
-4.67503e-05
-4.55359e-05
-4.43199e-05
-2.05324e-05
-1.05732e-05
-5.80351e-06
-3.13924e-06
-1.30539e-06
1.46081e-07
1.35467e-06
2.40566e-06
3.33789e-06
4.14182e-06
4.80878e-06
5.36231e-06
5.83561e-06
6.25492e-06
6.63252e-06
6.96352e-06
7.23184e-06
7.42203e-06
7.52832e-06
7.55516e-06
7.51155e-06
7.40535e-06
7.2429e-06
7.02885e-06
6.77091e-06
6.48065e-06
6.1668e-06
5.84457e-06
5.52515e-06
5.21802e-06
4.93431e-06
4.69419e-06
4.52132e-06
4.59974e-06
4.86296e-06
5.23567e-06
6.44524e-06
9.3723e-06
6.48648e-06
-6.20498e-05
)
;
    }
    sWall
    {
        type            calculated;
        value           uniform -0.000274864;
    }
    nWall
    {
        type            calculated;
        value           nonuniform List<scalar> 6(-4.80604e-05 -5.74159e-05 -6.0619e-05 -7.25347e-05 -7.95594e-05 -9.96935e-05);
    }
    sideWalls
    {
        type            empty;
        value           nonuniform 0();
    }
    glass1
    {
        type            calculated;
        value           nonuniform List<scalar> 9(-5.7223e-05 -0.000154424 -0.000236713 -0.000307202 -0.000367385 -0.000418292 -0.000464186 -0.000519202 -0.000580502);
    }
    glass2
    {
        type            calculated;
        value           nonuniform List<scalar> 2(-0.000255305 -0.000282001);
    }
    sun
    {
        type            calculated;
        value           uniform 0;
    }
    heatsource1
    {
        type            calculated;
        value           nonuniform List<scalar> 3(2.042e-07 2.04104e-07 2.04127e-07);
    }
    heatsource2
    {
        type            calculated;
        value           nonuniform List<scalar> 4(5.12035e-08 5.12826e-08 0 0);
    }
    Table_master
    {
        type            calculated;
        value           nonuniform List<scalar> 9(-1.53156e-07 -1.53276e-07 -1.53316e-07 -1.53342e-07 -1.5336e-07 -1.53372e-07 -1.53379e-07 -1.53373e-07 -1.53342e-07);
    }
    Table_slave
    {
        type            calculated;
        value           nonuniform List<scalar> 9(1.52997e-07 1.53025e-07 1.53002e-07 1.52986e-07 1.52982e-07 1.52981e-07 1.53e-07 1.53046e-07 1.53132e-07);
    }
    inlet
    {
        type            calculated;
        value           uniform -0.00668292;
    }
    outlet
    {
        type            calculated;
        value           nonuniform List<scalar> 2(0.00816911 0.00297334);
    }
}


// ************************************************************************* //
