// -*- C++ -*-
// File generated by PyFoam - sorry for the ugliness

FoamFile
{
 version 2.0;
 format ascii;
 class volScalarField;
 location "500";
 object T;
}

dimensions [ 0 0 0 1 0 0 0 ];

internalField nonuniform List<scalar> 459
(
  303.242
  302.982
  302.97
  302.967
  302.964
  302.961
  302.957
  302.95
  302.94
  302.929
  302.92
  302.914
  302.914
  302.92
  302.944
  303.051
  303.032
  303.025
  303.032
  303.04
  303.047
  303.054
  303.059
  303.065
  303.07
  303.076
  303.081
  303.087
  303.092
  303.098
  303.104
  303.111
  303.12
  303.144
  303.416
  303.022
  303
  303.003
  303.006
  303.007
  303.003
  302.991
  302.969
  302.944
  302.922
  302.909
  302.906
  302.909
  302.915
  302.911
  302.904
  303.054
  303.011
  303.009
  303.018
  303.03
  303.04
  303.044
  303.048
  303.05
  303.053
  303.056
  303.059
  303.062
  303.065
  303.069
  303.075
  303.083
  303.096
  303.131
  303.599
  303.072
  303.036
  303.048
  303.063
  303.073
  303.073
  303.054
  303.013
  302.966
  302.929
  302.907
  302.902
  302.907
  302.911
  302.912
  302.909
  303.01
  302.998
  303.003
  303.02
  303.04
  303.057
  303.056
  303.057
  303.057
  303.058
  303.06
  303.061
  303.063
  303.065
  303.068
  303.074
  303.08
  303.091
  303.127
  303.785
  303.134
  303.074
  303.096
  303.128
  303.155
  303.164
  303.132
  303.064
  302.989
  302.933
  302.903
  302.899
  302.907
  302.916
  302.92
  302.92
  302.93
  302.948
  302.975
  303.007
  303.04
  303.072
  303.097
  303.119
  303.137
  303.153
  303.168
  303.18
  303.191
  303.2
  303.208
  303.213
  303.17
  303.131
  303.111
  303.132
  303.968
  303.212
  303.117
  303.139
  303.189
  303.242
  303.258
  303.204
  303.102
  303
  302.93
  302.896
  302.893
  302.908
  302.927
  302.941
  302.951
  302.969
  302.994
  303.026
  303.063
  303.099
  303.134
  303.164
  303.191
  303.214
  303.233
  303.248
  303.26
  303.266
  303.268
  303.265
  303.256
  303.225
  303.178
  303.139
  303.137
  303.249
  303.303
  303.305
  304.135
  303.314
  303.186
  303.188
  303.244
  303.326
  303.324
  303.236
  303.11
  302.992
  302.913
  302.88
  302.886
  302.914
  302.948
  302.977
  303.002
  303.029
  303.062
  303.099
  303.138
  303.175
  303.209
  303.238
  303.264
  303.285
  303.302
  303.315
  303.323
  303.324
  303.32
  303.31
  303.294
  303.265
  303.221
  303.175
  303.154
  303.197
  303.221
  303.26
  304.289
  303.476
  303.342
  303.327
  303.366
  303.417
  303.359
  303.222
  303.065
  302.937
  302.866
  302.851
  302.88
  302.933
  302.989
  303.037
  303.077
  303.114
  303.151
  303.188
  303.225
  303.259
  303.288
  303.313
  303.333
  303.35
  303.362
  303.37
  303.374
  303.371
  303.361
  303.346
  303.327
  303.299
  303.261
  303.219
  303.191
  303.2
  303.213
  303.243
  304.51
  303.901
  303.748
  303.669
  303.649
  303.533
  303.33
  303.105
  302.921
  302.812
  302.786
  302.821
  302.893
  302.984
  303.067
  303.131
  303.181
  303.218
  303.251
  303.282
  303.312
  303.338
  303.36
  303.378
  303.392
  303.401
  303.407
  303.408
  303.406
  303.4
  303.39
  303.375
  303.356
  303.332
  303.304
  303.274
  303.258
  303.272
  303.289
  303.406
  304.826
  304.538
  304.279
  304.053
  303.774
  303.343
  302.955
  302.701
  302.596
  302.611
  302.71
  302.838
  302.969
  303.105
  303.196
  303.248
  303.283
  303.313
  303.341
  303.366
  303.387
  303.404
  303.418
  303.428
  303.434
  303.436
  303.434
  303.431
  303.425
  303.418
  303.412
  303.407
  303.404
  303.406
  303.414
  303.433
  303.462
  303.493
  303.513
  303.566
  296.655
  298.262
  299.184
  300.134
  300.947
  301.614
  302.135
  302.529
  302.855
  303.065
  303.184
  303.259
  303.309
  303.344
  303.371
  303.394
  303.414
  303.431
  303.445
  303.454
  303.459
  303.461
  303.461
  303.458
  303.455
  303.452
  303.448
  303.445
  303.442
  303.441
  303.441
  303.446
  303.456
  303.473
  303.496
  303.521
  303.546
  303.578
  297.069
  298.727
  299.948
  301.116
  301.93
  302.444
  302.786
  303.015
  303.166
  303.263
  303.326
  303.368
  303.397
  303.42
  303.439
  303.455
  303.467
  303.476
  303.482
  303.484
  303.485
  303.483
  303.481
  303.478
  303.475
  303.472
  303.469
  303.466
  303.464
  303.462
  303.463
  303.466
  303.472
  303.483
  303.499
  303.52
  303.525
  303.56
  299.579
  299.506
  299.501
  301.46
  302.384
  302.793
  303.008
  303.15
  303.252
  303.324
  303.375
  303.411
  303.437
  303.455
  303.469
  303.479
  303.487
  303.493
  303.496
  303.497
  303.497
  303.496
  303.494
  303.492
  303.49
  303.488
  303.485
  303.483
  303.481
  303.479
  303.477
  303.476
  303.475
  303.476
  303.478
  303.487
  303.495
  303.503
  303.508
  303.551
)
;

boundaryField
{
  floor
  {
    type wallHeatTransfer;
    Tinf uniform 305.2;
    alphaWall uniform 0.24;
    value nonuniform List<scalar> 29
(
  303.215
  303.446
  303.387
  303.35
  303.345
  303.355
  303.369
  303.389
  303.411
  303.434
  303.455
  303.476
  303.496
  303.516
  303.534
  303.553
  303.572
  303.593
  303.612
  303.658
  303.658
  303.58
  303.538
  303.516
  303.215
  303.446
  303.448
  303.289
  303.129
)
;
  }
  ceiling
  {
    type wallHeatTransfer;
    Tinf uniform 303.2;
    alphaWall uniform 0.24;
    value nonuniform List<scalar> 43
(
  299.834
  299.755
  299.743
  301.571
  302.439
  302.822
  303.022
  303.153
  303.248
  303.313
  303.358
  303.389
  303.41
  303.425
  303.436
  303.443
  303.449
  303.452
  303.453
  303.453
  303.452
  303.45
  303.448
  303.447
  303.445
  303.444
  303.443
  303.442
  303.441
  303.441
  303.441
  303.442
  303.443
  303.445
  303.449
  303.458
  303.466
  303.472
  303.475
  303.511
  304.751
  304.484
  297.452
)
;
  }
  sWall
  {
    type wallHeatTransfer;
    Tinf uniform 315.2;
    alphaWall uniform 0.36;
    value uniform 301.177;
  }
  nWall
  {
    type wallHeatTransfer;
    Tinf uniform 307.2;
    alphaWall uniform 0.36;
    value nonuniform List<scalar> 6
(
  304.022
  303.962
  303.872
  304.094
  304.072
  304.134
)
;
  }
  sideWalls
  {
    type empty;
  }
  glass1
  {
    type wallHeatTransfer;
    Tinf uniform 315.2;
    alphaWall uniform 4.3;
    value nonuniform List<scalar> 9
(
  311.328
  310.702
  310.311
  310.016
  309.771
  309.547
  309.38
  309.452
  309.681
)
;
  }
  glass2
  {
    type wallHeatTransfer;
    Tinf uniform 307.2;
    alphaWall uniform 4.3;
    value nonuniform List<scalar> 2
(
  305.736
  305.852
)
;
  }
  sun
  {
    type wallHeatTransfer;
    Tinf uniform 305.2;
    alphaWall uniform 0.24;
    value nonuniform List<scalar> 14
(
  303.443
  303.193
  303.179
  303.169
  303.159
  303.15
  303.141
  303.13
  303.119
  303.109
  303.103
  303.105
  303.116
  303.148
)
;
  }
  heatsource1
  {
    type fixedGradient;
    gradient uniform 0;
  }
  heatsource2
  {
    type fixedGradient;
    gradient uniform 0;
  }
  Table_master
  {
    type zeroGradient;
  }
  Table_slave
  {
    type zeroGradient;
  }
  inlet
  {
    type fixedValue;
    value uniform 293.15;
  }
  outlet
  {
    type zeroGradient;
  }
} 	// ************************************************************************* //

