/*--------------------------------*- C++ -*----------------------------------*\
  =========                 |
  \\      /  F ield         | OpenFOAM: The Open Source CFD Toolbox
   \\    /   O peration     | Website:  https://openfoam.org
    \\  /    A nd           | Version:  6
     \\/     M anipulation  |
\*---------------------------------------------------------------------------*/
FoamFile
{
    version     2.0;
    format      ascii;
    class       volScalarField;
    location    "1200";
    object      alphat;
}
// * * * * * * * * * * * * * * * * * * * * * * * * * * * * * * * * * * * * * //

dimensions      [1 -1 -1 0 0 0 0];

internalField   nonuniform List<scalar> 
459
(
0.00123624
0.00134881
0.00137446
0.00144003
0.0015008
0.00155814
0.00161515
0.00166954
0.00170772
0.00172236
0.00170647
0.00165509
0.00156589
0.00144147
0.00129558
0.000535397
0.000637693
0.00072015
0.00072723
0.000705798
0.000675331
0.000633115
0.00059017
0.000551181
0.00051672
0.000486337
0.000459465
0.000435603
0.000414319
0.000394835
0.000376185
0.000357099
0.000346039
0.000317714
0.00168213
0.0039857
0.003771
0.00437339
0.00496437
0.00555753
0.00607352
0.00647626
0.00685082
0.00716257
0.0073689
0.00742613
0.00728156
0.00681015
0.00548497
0.00131876
0.00081913
0.000557939
0.00117296
0.00164125
0.00199422
0.00220218
0.00221045
0.00174432
0.00149566
0.00131921
0.00118463
0.00107833
0.000992245
0.000919877
0.000852775
0.000788046
0.000730588
0.000679938
0.000814341
0.000425084
0.00205286
0.00540593
0.00459645
0.00571987
0.00623698
0.00661522
0.00691278
0.00717663
0.0074824
0.00781304
0.00812994
0.00837486
0.00849499
0.00840181
0.00783819
0.00601485
0.00135883
0.00104555
0.00152094
0.00197848
0.00242265
0.00275203
0.00271923
0.000902644
0.000797634
0.000712398
0.000643248
0.000586757
0.000540187
0.000501502
0.000469378
0.000443196
0.000476737
0.000547109
0.000922862
0.000498598
0.00240904
0.00691798
0.00453789
0.00596884
0.00635607
0.00645298
0.006538
0.00669223
0.00695101
0.00729582
0.00769037
0.00805214
0.00832421
0.00843022
0.0083125
0.00766341
0.00513782
0.00158869
0.00189576
0.00240805
0.00296966
0.00346954
0.00381287
0.00363417
0.0010226
0.000933829
0.000870204
0.000821795
0.000780751
0.000742716
0.000706185
0.000667759
0.000623166
0.000585392
0.000591323
0.00108049
0.000556682
0.00277218
0.00889261
0.00490814
0.0056929
0.00622199
0.00616938
0.00612681
0.0062473
0.00649029
0.00684261
0.00727797
0.00767518
0.00795316
0.00806114
0.00800027
0.00774077
0.00708028
0.00599037
0.00560697
0.00553001
0.00556629
0.00561395
0.00560744
0.0054222
0.00461171
0.00421066
0.00397674
0.00379712
0.00360905
0.00334135
0.00297191
0.00251702
0.00200902
0.00150488
0.00111576
0.0010977
0.000761239
0.000691775
0.000832802
0.000935375
0.00315791
0.0110589
0.00675789
0.00551281
0.00602473
0.00619505
0.00604077
0.00615154
0.00635262
0.00667876
0.00710218
0.00751567
0.00779122
0.0078528
0.00771817
0.00748409
0.00725668
0.00710114
0.00709082
0.00710189
0.0070538
0.00693707
0.00675678
0.00650022
0.00611962
0.00577642
0.00547084
0.00517677
0.00487763
0.00455843
0.00416149
0.00366971
0.00308273
0.00243403
0.00185254
0.00135795
0.00105887
0.000907662
0.00128531
0.000978327
0.00351988
0.0126206
0.00969443
0.00701263
0.00654942
0.00658652
0.00642412
0.00633396
0.00643231
0.00674275
0.00718894
0.00762251
0.00788397
0.00788647
0.0076712
0.00741362
0.0073427
0.00752651
0.0077551
0.0078191
0.00769003
0.00742517
0.00707386
0.00666609
0.00622937
0.00582063
0.00544616
0.00509789
0.00477586
0.00448713
0.00423419
0.0039304
0.0035006
0.00296241
0.00243895
0.00194203
0.00159571
0.0014684
0.00145293
0.00110821
0.00359598
0.011439
0.00993046
0.00880415
0.00811822
0.00735065
0.00671005
0.00644465
0.00657114
0.00699018
0.0075287
0.00798374
0.00817975
0.00806004
0.00773499
0.00748055
0.00756268
0.00787776
0.00800237
0.00783712
0.0074664
0.00697093
0.00641622
0.00586421
0.005368
0.00495046
0.00460129
0.00431069
0.00407954
0.00391376
0.00381923
0.00377952
0.00364361
0.00332529
0.00303966
0.00289335
0.00297729
0.00328788
0.00409238
0.0016852
0.00350598
0.00419043
0.00473631
0.00491004
0.00492681
0.00504628
0.0053844
0.00597155
0.00675451
0.00757834
0.00824829
0.00859646
0.00851431
0.0080817
0.00761796
0.00751758
0.00757142
0.007553
0.00731458
0.00686405
0.00627116
0.0056241
0.00500652
0.00448034
0.00406533
0.00374522
0.00349365
0.00329162
0.00312661
0.00298777
0.00286485
0.00275032
0.00266199
0.0025976
0.00257167
0.00257886
0.00256104
0.0024658
0.00230239
0.00156584
0.00216565
0.00383384
0.00529344
0.00651217
0.00750054
0.00838677
0.00907404
0.00941526
0.00936215
0.00893581
0.00819962
0.00737524
0.00686774
0.00667223
0.00646696
0.00610489
0.00559043
0.00499298
0.00439493
0.00386005
0.00342812
0.00310765
0.00287774
0.00271311
0.0025951
0.00251226
0.0024578
0.00242785
0.00242249
0.00244566
0.00248177
0.00252755
0.00257801
0.00261398
0.00260325
0.00252729
0.00223585
0.00125064
0.0025187
0.00536504
0.00733487
0.00825065
0.00886432
0.009288
0.00924061
0.00864912
0.00775171
0.00679362
0.00599044
0.00540924
0.00502178
0.00467992
0.00427498
0.00382041
0.00336857
0.00297125
0.00265928
0.00243589
0.00228505
0.00218372
0.00211773
0.00208228
0.00207383
0.00208821
0.00212176
0.00217003
0.00223814
0.00232292
0.00242158
0.00252794
0.00262678
0.0026942
0.00271354
0.00268465
0.00193317
0.00127893
0.00215137
0.00226594
0.00235034
0.00241743
0.00218677
0.00200713
0.0019218
0.00183445
0.00170806
0.00155231
0.0013753
0.00120012
0.00104547
0.000922984
0.000834401
0.000771814
0.000726549
0.000693561
0.000670808
0.00065744
0.000652512
0.000654811
0.000663233
0.000677043
0.000696028
0.000719611
0.000747599
0.000780318
0.000818396
0.00086298
0.000913513
0.000970052
0.00103309
0.001103
0.0011792
0.00126069
0.00127736
0.00114141
0.00108312
0.00128149
)
;

boundaryField
{
    floor
    {
        type            compressible::alphatWallFunction;
        Prt             0.85;
        value           nonuniform List<scalar> 
29
(
0.00018328
7.46387e-05
8.99978e-05
0.000102158
0.000103194
0.000100054
9.55708e-05
8.93175e-05
8.29035e-05
7.70305e-05
7.17964e-05
6.71456e-05
6.30017e-05
5.9296e-05
5.5969e-05
5.29041e-05
4.99521e-05
4.69112e-05
4.51397e-05
4.05683e-05
4.05677e-05
5.76547e-05
6.90272e-05
7.78629e-05
0.000183278
7.46378e-05
7.80517e-05
0.000148694
0.000222875
)
;
    }
    ceiling
    {
        type            compressible::alphatWallFunction;
        Prt             0.85;
        value           nonuniform List<scalar> 
43
(
0.000296654
0.000311417
0.000322243
0.000330936
0.000301391
0.000278133
0.00026701
0.000255562
0.000238884
0.000218137
0.000194269
0.000170304
0.000148811
0.000131527
0.00011886
0.000109814
0.000103217
9.83778e-05
9.50239e-05
9.30471e-05
9.23171e-05
9.26579e-05
9.39048e-05
9.5945e-05
9.87415e-05
0.000102202
0.000106292
0.00011105
0.000116557
0.000122966
0.000130183
0.000138203
0.00014708
0.000156852
0.000167422
0.00017864
0.000180925
0.000162192
0.000154087
0.0001815
0.000467303
0.000550556
0.00034359
)
;
    }
    sWall
    {
        type            compressible::alphatWallFunction;
        Prt             0.85;
        value           uniform 0.000295434;
    }
    nWall
    {
        type            compressible::alphatWallFunction;
        Prt             0.85;
        value           nonuniform List<scalar> 6(0.000132964 0.000139039 0.000157234 0.000176938 0.000180812 0.00018117);
    }
    sideWalls
    {
        type            empty;
    }
    glass1
    {
        type            compressible::alphatWallFunction;
        Prt             0.85;
        value           nonuniform List<scalar> 9(0.000170842 0.000230204 0.000278356 0.000323825 0.000369517 0.000417412 0.000461851 0.000471264 0.00046051);
    }
    glass2
    {
        type            compressible::alphatWallFunction;
        Prt             0.85;
        value           nonuniform List<scalar> 2(0.000234117 0.000218348);
    }
    sun
    {
        type            compressible::alphatWallFunction;
        Prt             0.85;
        value           nonuniform List<scalar> 
14
(
0.000175166
0.000190543
0.000194029
0.00020291
0.0002111
0.000218794
0.000226411
0.000233652
0.000238719
0.000240658
0.00023855
0.000231728
0.000219828
0.0002031
)
;
    }
    heatsource1
    {
        type            compressible::alphatWallFunction;
        Prt             0.85;
        value           nonuniform List<scalar> 3(9.81078e-05 0.000118624 0.000133283);
    }
    heatsource2
    {
        type            compressible::alphatWallFunction;
        Prt             0.85;
        value           nonuniform List<scalar> 4(0.000186575 0.000116654 0.000116653 0.000192031);
    }
    Table_master
    {
        type            compressible::alphatWallFunction;
        Prt             0.85;
        value           nonuniform List<scalar> 9(0.000128624 0.000113547 0.000101135 9.09331e-05 8.24993e-05 7.54711e-05 6.95752e-05 6.46359e-05 6.05786e-05);
    }
    Table_slave
    {
        type            compressible::alphatWallFunction;
        Prt             0.85;
        value           nonuniform List<scalar> 9(0.000145599 0.000133063 0.000123992 0.000117038 0.000111104 0.000105572 0.000100226 9.45661e-05 8.79479e-05);
    }
    inlet
    {
        type            fixedValue;
        value           uniform 1.94e-05;
    }
    outlet
    {
        type            zeroGradient;
    }
}


// ************************************************************************* //
