/*--------------------------------*- C++ -*----------------------------------*\
  =========                 |
  \\      /  F ield         | OpenFOAM: The Open Source CFD Toolbox
   \\    /   O peration     | Website:  https://openfoam.org
    \\  /    A nd           | Version:  6
     \\/     M anipulation  |
\*---------------------------------------------------------------------------*/
FoamFile
{
    version     2.0;
    format      ascii;
    class       volScalarField;
    location    "1200";
    object      epsilon;
}
// * * * * * * * * * * * * * * * * * * * * * * * * * * * * * * * * * * * * * //

dimensions      [0 2 -3 0 0 0 0];

internalField   nonuniform List<scalar> 
459
(
0.00042738
0.000553638
0.000585753
0.000673628
0.000762535
0.000853288
0.000950365
0.0010496
0.00112316
0.00115217
0.00112042
0.00102214
0.000865571
0.000675191
0.000490272
3.46292e-05
5.8501e-05
8.42486e-05
8.67598e-05
7.93158e-05
6.9484e-05
5.72532e-05
4.63768e-05
3.77807e-05
3.11293e-05
2.59558e-05
2.18875e-05
1.8652e-05
1.605e-05
1.3891e-05
1.20146e-05
1.02775e-05
9.35235e-06
7.24002e-06
0.00107866
0.00157818
0.000520308
0.000503787
0.00052645
0.00056608
0.000627069
0.00070802
0.000785344
0.00083335
0.000831706
0.000774792
0.000671179
0.000543333
0.000437915
0.000516969
0.000123883
3.91936e-05
9.20505e-05
0.000103194
9.68424e-05
8.45304e-05
7.20923e-05
6.58646e-05
5.30974e-05
4.17656e-05
3.28613e-05
2.60549e-05
2.08734e-05
1.69163e-05
1.39097e-05
1.16978e-05
1.03123e-05
9.70437e-06
2.58217e-05
1.73385e-05
0.00196432
0.00388004
0.0006388
0.000477327
0.000498326
0.000559019
0.000651539
0.00076917
0.000877406
0.000941789
0.000944763
0.000887601
0.000781964
0.000653647
0.000534441
0.000475504
0.000565571
0.000257818
0.000204525
0.000163614
0.000131641
0.000106564
9.11527e-05
0.000165924
0.000114491
8.15696e-05
6.00478e-05
4.55761e-05
3.55628e-05
2.84564e-05
2.33309e-05
1.96406e-05
1.49578e-05
1.25674e-05
4.98222e-05
2.79793e-05
0.00318057
0.00807464
0.00100669
0.000479235
0.000483263
0.000568426
0.000708039
0.00088382
0.00102136
0.0010876
0.00107886
0.0010063
0.000880644
0.00073357
0.000603865
0.000519302
0.000499853
0.000904063
0.000522823
0.000321587
0.000219312
0.000160631
0.000123902
0.000106375
0.000241349
0.000183811
0.000148754
0.000125293
0.000107448
9.25021e-05
7.9516e-05
6.72313e-05
5.46421e-05
3.25821e-05
2.13232e-05
8.46164e-05
3.89435e-05
0.00485577
0.0144472
0.00199024
0.000559196
0.00048536
0.000598575
0.000850445
0.00111395
0.00126023
0.00130279
0.00126133
0.00115398
0.000995214
0.000811214
0.000633717
0.000488698
0.000389854
0.000348215
0.000285947
0.000229675
0.000184422
0.000148815
0.000121044
0.0001015
9.71652e-05
9.01483e-05
8.34839e-05
7.70357e-05
7.02914e-05
6.30468e-05
5.57766e-05
4.88508e-05
4.25182e-05
3.41298e-05
2.65505e-05
5.96274e-05
4.61629e-05
7.4791e-05
0.000130549
0.000184984
0.00719004
0.021522
0.0044962
0.00104318
0.000681374
0.000797016
0.00130435
0.00156997
0.0016472
0.00162002
0.00152337
0.0013652
0.00115295
0.000911523
0.000677486
0.000485504
0.000354072
0.000280462
0.000235981
0.000200445
0.000167945
0.000139424
0.000116079
9.91537e-05
9.01419e-05
8.59817e-05
8.35918e-05
8.10603e-05
7.72718e-05
7.13111e-05
6.27307e-05
5.35524e-05
4.50986e-05
3.76474e-05
3.32545e-05
4.48131e-05
4.7935e-05
5.78386e-05
0.000241403
0.000211586
0.009972
0.0257793
0.00939205
0.00345347
0.00221813
0.00220136
0.00240797
0.00238242
0.0022514
0.00208286
0.00188411
0.00164017
0.00134695
0.00102946
0.000729888
0.000492136
0.000337141
0.000253717
0.000209289
0.000177445
0.000149249
0.000125308
0.000107136
9.56512e-05
9.10436e-05
9.12953e-05
9.36017e-05
9.63472e-05
9.85036e-05
9.86033e-05
9.37409e-05
8.36883e-05
7.33499e-05
6.47086e-05
6.20094e-05
6.96712e-05
8.68028e-05
0.000130912
0.000319181
0.000307497
0.0106564
0.0287303
0.0156206
0.00995798
0.00707922
0.00547625
0.00434174
0.00357901
0.00306087
0.00267561
0.0023299
0.00196085
0.00154968
0.00112949
0.000748502
0.000464234
0.000295687
0.000212932
0.000172646
0.000145443
0.000123514
0.00010716
9.68947e-05
9.26367e-05
9.37545e-05
9.8944e-05
0.000107
0.000117593
0.000130921
0.000147082
0.00016542
0.000180571
0.000191348
0.000212998
0.000256818
0.000376013
0.000649208
0.00118995
0.0040452
0.00108306
0.00990703
0.0168677
0.0135353
0.0102256
0.00780545
0.00615636
0.00504257
0.00428209
0.00373391
0.00326885
0.00278798
0.00224516
0.00165244
0.00109631
0.000620463
0.000332364
0.000211863
0.000158218
0.000129835
0.000110832
9.72452e-05
8.88138e-05
8.5337e-05
8.63896e-05
9.14415e-05
0.000100051
0.000112234
0.000128714
0.000150902
0.000180892
0.000221509
0.000276431
0.000352499
0.000462985
0.000626692
0.000852381
0.00112113
0.00137665
0.00157602
0.000870223
0.00493667
0.00663948
0.00669457
0.00620421
0.00553106
0.00488802
0.0042455
0.00353882
0.00275684
0.00192105
0.00105398
0.000560313
0.000300244
0.000179754
0.000126771
0.000100453
8.52251e-05
7.55692e-05
6.97982e-05
6.72452e-05
6.7543e-05
7.04044e-05
7.56547e-05
8.33766e-05
9.39935e-05
0.000108332
0.000127702
0.000154069
0.00019045
0.000241787
0.000313529
0.000413386
0.000548611
0.000716418
0.000893807
0.00103923
0.000980595
0.000443371
0.00340896
0.00672915
0.00665585
0.00536001
0.00453003
0.00385204
0.00299788
0.00209449
0.00133111
0.0007793
0.000430233
0.000242888
0.000148662
0.000104213
8.2952e-05
7.18217e-05
6.56083e-05
6.23341e-05
6.12271e-05
6.19012e-05
6.41304e-05
6.7816e-05
7.3077e-05
8.02252e-05
8.97218e-05
0.000102279
0.000119017
0.000141666
0.000172739
0.000215485
0.000274391
0.000354331
0.000457204
0.000575741
0.00069071
0.000839636
0.000463467
0.000474064
0.00216939
0.00253298
0.00282655
0.00313077
0.00233741
0.00181534
0.00159745
0.00139182
0.00112492
0.000845147
0.000588106
0.000390957
0.000258526
0.000177925
0.000131473
0.000104061
8.68103e-05
7.55181e-05
6.83293e-05
6.43272e-05
6.28928e-05
6.35613e-05
6.6047e-05
7.02605e-05
7.63394e-05
8.43667e-05
9.46e-05
0.000107574
0.000124105
0.000145515
0.000172607
0.000206684
0.000249657
0.000303857
0.000371299
0.000453752
0.000472034
0.000336808
0.000287959
0.000477335
)
;

boundaryField
{
    floor
    {
        Cmu             0.09;
        kappa           0.41;
        E               9.8;
        type            epsilonWallFunction;
        value           nonuniform List<scalar> 
29
(
0.000490272
3.46292e-05
5.8501e-05
8.42486e-05
8.67598e-05
7.93158e-05
6.9484e-05
5.72532e-05
4.63768e-05
3.77807e-05
3.11293e-05
2.59558e-05
2.18875e-05
1.8652e-05
1.605e-05
1.3891e-05
1.20146e-05
1.02775e-05
9.35235e-06
7.24002e-06
7.24002e-06
1.73385e-05
2.79793e-05
3.89435e-05
0.000490272
3.46292e-05
3.91936e-05
0.000257818
0.000904063
)
;
    }
    ceiling
    {
        Cmu             0.09;
        kappa           0.41;
        E               9.8;
        type            epsilonWallFunction;
        value           nonuniform List<scalar> 
43
(
0.00216939
0.00253298
0.00282655
0.00313077
0.00233741
0.00181534
0.00159745
0.00139182
0.00112492
0.000845147
0.000588106
0.000390957
0.000258526
0.000177925
0.000131473
0.000104061
8.68103e-05
7.55181e-05
6.83293e-05
6.43272e-05
6.28928e-05
6.35613e-05
6.6047e-05
7.02605e-05
7.63394e-05
8.43667e-05
9.46e-05
0.000107574
0.000124105
0.000145515
0.000172607
0.000206684
0.000249657
0.000303857
0.000371299
0.000453752
0.000472034
0.000336808
0.000287959
0.000477335
0.00990703
0.0168677
0.00340896
)
;
    }
    sWall
    {
        Cmu             0.09;
        kappa           0.41;
        E               9.8;
        type            epsilonWallFunction;
        value           uniform 0.00216939;
    }
    nWall
    {
        Cmu             0.09;
        kappa           0.41;
        E               9.8;
        type            epsilonWallFunction;
        value           nonuniform List<scalar> 6(0.000184984 0.000211586 0.000307497 0.000443371 0.000474064 0.000477335);
    }
    sideWalls
    {
        type            empty;
    }
    glass1
    {
        Cmu             0.09;
        kappa           0.41;
        E               9.8;
        type            epsilonWallFunction;
        value           nonuniform List<scalar> 9(0.00042738 0.00107866 0.00196432 0.00318057 0.00485577 0.00719004 0.009972 0.0106564 0.00990703);
    }
    glass2
    {
        Cmu             0.09;
        kappa           0.41;
        E               9.8;
        type            epsilonWallFunction;
        value           nonuniform List<scalar> 2(0.00108306 0.000870223);
    }
    sun
    {
        Cmu             0.09;
        kappa           0.41;
        E               9.8;
        type            epsilonWallFunction;
        value           nonuniform List<scalar> 
14
(
0.00042738
0.000553638
0.000585753
0.000673628
0.000762535
0.000853288
0.000950365
0.0010496
0.00112316
0.00115217
0.00112042
0.00102214
0.000865571
0.000675191
)
;
    }
    heatsource1
    {
        Cmu             0.09;
        kappa           0.41;
        E               9.8;
        type            epsilonWallFunction;
        value           nonuniform List<scalar> 3(7.4791e-05 0.000130549 0.000184984);
    }
    heatsource2
    {
        Cmu             0.09;
        kappa           0.41;
        E               9.8;
        type            epsilonWallFunction;
        value           nonuniform List<scalar> 4(0.000516969 0.000123883 0.000123883 0.000565571);
    }
    Table_master
    {
        Cmu             0.09;
        kappa           0.41;
        E               9.8;
        type            epsilonWallFunction;
        value           nonuniform List<scalar> 9(0.000165924 0.000114491 8.15696e-05 6.00478e-05 4.55761e-05 3.55628e-05 2.84564e-05 2.33309e-05 1.96406e-05);
    }
    Table_slave
    {
        Cmu             0.09;
        kappa           0.41;
        E               9.8;
        type            epsilonWallFunction;
        value           nonuniform List<scalar> 9(0.000241349 0.000183811 0.000148754 0.000125293 0.000107448 9.25021e-05 7.9516e-05 6.72313e-05 5.46421e-05);
    }
    inlet
    {
        type            turbulentMixingLengthDissipationRateInlet;
        mixingLength    0.01;
        phi             phi;
        k               k;
        value           uniform 0.000101881;
    }
    outlet
    {
        type            zeroGradient;
    }
}


// ************************************************************************* //
