/*--------------------------------*- C++ -*----------------------------------*\
  =========                 |
  \\      /  F ield         | OpenFOAM: The Open Source CFD Toolbox
   \\    /   O peration     | Website:  https://openfoam.org
    \\  /    A nd           | Version:  6
     \\/     M anipulation  |
\*---------------------------------------------------------------------------*/
FoamFile
{
    version     2.0;
    format      ascii;
    class       surfaceScalarField;
    location    "400";
    object      phi;
}
// * * * * * * * * * * * * * * * * * * * * * * * * * * * * * * * * * * * * * //

dimensions      [1 0 -1 0 0 0 0];

internalField   nonuniform List<scalar> 
852
(
-0.00282198
0.00288582
-0.00351961
0.000697634
-0.00421302
0.00069342
-0.00484229
0.000629275
-0.00537091
0.000528624
-0.00578064
0.000409731
-0.00605315
0.000272523
-0.00616617
0.000113025
-0.00609293
-7.32414e-05
-0.00580322
-0.0002897
-0.00527895
-0.000524264
-0.00451943
-0.000759513
-0.00351152
-0.00100789
-0.00212517
-0.00138634
-0.00212281
-0.00015181
0.000156298
0.000234852
-0.000386574
0.000482066
-0.000247122
0.000518487
-3.63063e-05
0.000456997
6.16337e-05
0.000359596
9.75578e-05
0.000244918
0.000114834
0.000142682
0.000102376
8.35833e-05
5.92145e-05
6.43817e-05
1.92976e-05
6.81423e-05
-3.67198e-06
7.94009e-05
-1.11734e-05
9.57774e-05
-1.62928e-05
0.000116629
-2.07692e-05
0.00014006
-2.33497e-05
0.00017551
-3.53703e-05
0.000286926
-0.000111335
0.000531014
-0.000244008
0.000535992
-0.00204324
0.00509987
-0.0028902
0.00154461
-0.00368351
0.00148673
-0.00433643
0.0012822
-0.0048731
0.0010653
-0.00529207
0.000828709
-0.00557994
0.000560397
-0.00571615
0.000249238
-0.00567804
-0.000111345
-0.00544904
-0.000518686
-0.00502382
-0.000949476
-0.00441154
-0.00137179
-0.00363658
-0.00178284
-0.00284511
-0.0021778
-0.00266105
-0.00230686
-0.000971518
-0.00168958
-0.000971568
0.00125813
-0.00109282
0.00136093
-0.000489323
0.00125332
-0.000139457
0.00119864
1.84367e-05
0.00117188
8.8461e-05
0.00115357
0.000115936
0.00113266
0.000135821
0.00111903
0.000116082
0.00109743
8.08978e-05
0.00106508
5.17441e-05
0.00102587
3.56356e-05
0.000987434
2.7357e-05
0.000949343
2.1897e-05
0.000909765
1.89091e-05
0.000846216
4.02989e-05
0.000688037
0.000122907
0.000458818
0.000117976
0.000237921
-2.3033e-05
0.000786369
-0.00148029
0.00683887
-0.0023142
0.00237853
-0.00306427
0.0022368
-0.00365233
0.00187026
-0.00414358
0.00155655
-0.00453865
0.00122378
-0.00482233
0.000844081
-0.00497144
0.000398351
-0.00496054
-0.000122238
-0.00477081
-0.000708403
-0.00440617
-0.0013141
-0.00389383
-0.00188412
-0.00328914
-0.00238751
-0.00269568
-0.00277124
-0.00212682
-0.00287571
-0.00120704
-0.00260936
-0.0021786
0.000281898
-0.0013616
0.000448126
-0.000655526
0.000570691
-0.000261993
0.000709862
-0.000120701
0.000861789
-6.34354e-05
0.00102087
-4.31193e-05
0.00115688
0.00127315
0.00135425
0.00140621
0.00144206
0.00146964
0.00149176
0.0015109
0.00155143
0.00125244
0.00042197
0.000889384
0.000481101
0.000436089
0.000430331
0.00124034
-0.00108598
0.00825586
-0.00185218
0.00314473
-0.00240014
0.00278476
-0.00284486
0.00231498
-0.00324003
0.00195173
-0.0035759
0.00155965
-0.00383359
0.00110177
-0.00398504
0.000549802
-0.00399389
-0.000113388
-0.00383506
-0.00086722
-0.00353
-0.00161915
-0.00312841
-0.00228569
-0.00268764
-0.00282825
-0.00224817
-0.00321068
-0.00176921
-0.00335465
-0.00124419
-0.00313437
-0.00105208
-0.0023707
0.000264306
-0.00130286
6.25194e-05
-0.00115979
0.000145094
-0.000738078
0.000303109
-0.000419981
0.000450511
-0.000268078
0.000587958
-0.00020086
0.000710558
-0.000165699
0.00087432
-0.000163899
0.00106982
-0.000195636
0.00129332
-0.000223634
0.00153756
-0.000244385
0.00178422
-0.000246793
0.00199647
-0.000212384
0.00211237
-0.000116041
0.00205047
6.17626e-05
0.00172636
0.000323972
0.00143442
0.00071394
0.000789451
0.0011261
-0.000191361
0.00141119
0.00107266
-0.000787756
0.00943442
-0.0014711
0.00382808
-0.00169373
0.0030074
-0.0019514
0.00257265
-0.00221235
0.00221267
-0.00244712
0.00179443
-0.00263778
0.00129243
-0.00276029
0.000672314
-0.00276421
-0.000109466
-0.00261428
-0.00101715
-0.00236319
-0.00187023
-0.0020751
-0.00257376
-0.00179443
-0.00310888
-0.00152732
-0.00347775
-0.00123004
-0.00365189
-0.000907591
-0.00345681
-0.000548862
-0.00272943
-4.80351e-05
-0.00180368
8.35765e-06
-0.00121617
5.11354e-05
-0.000780832
0.000156725
-0.000525546
0.000274793
-0.000386123
0.000391516
-0.000317563
0.000519703
-0.000293869
0.000669577
-0.000313756
0.000833919
-0.000359961
0.00102175
-0.000411451
0.00123186
-0.000454471
0.00145487
-0.000469789
0.00166951
-0.000427006
0.00183787
-0.000284374
0.00190213
-2.48107e-06
0.00183118
0.000394941
0.00168393
0.000861204
0.00148741
0.00132264
0.00117452
0.00172411
0.000638518
0.0016087
-0.000638199
0.00127656
-0.00122516
0.000586787
-0.00117229
-0.000679152
0.0105543
-0.001239
0.00438793
-0.000973858
0.00274225
-0.000994791
0.00259359
-0.00111648
0.00233436
-0.00122718
0.00190513
-0.00130315
0.0013684
-0.00134174
0.000710896
-0.00128665
-0.000164558
-0.00112592
-0.00117788
-0.00094043
-0.00205571
-0.000782568
-0.00273159
-0.000675267
-0.00321615
-0.0006075
-0.00354547
-0.000523523
-0.00373582
-0.000389044
-0.00359127
-0.000227753
-0.00289072
-6.57757e-05
-0.00196566
-6.71418e-05
-0.00121479
-5.54154e-05
-0.000792532
1.27298e-05
-0.000593665
9.40141e-05
-0.000467388
0.000173847
-0.00039738
0.000263875
-0.00038388
0.000366171
-0.000416035
0.000482979
-0.000476749
0.000620581
-0.000549033
0.000782336
-0.000616205
0.000968633
-0.000656065
0.00117563
-0.000633987
0.0013906
-0.000499322
0.00158036
-0.000192216
0.00169731
0.00027801
0.00178141
0.000777123
0.0018966
0.00120747
0.00208655
0.00153419
0.002267
0.00142828
0.00244481
0.00109878
0.00203699
0.000994638
0.000926595
-0.000942131
0.0119795
-0.000953525
0.00439933
-7.16105e-05
0.00186034
0.000139061
0.00238292
0.000102652
0.00237077
8.42765e-05
0.0019235
0.000143661
0.00130901
0.000275702
0.000578848
0.000456061
-0.000344926
0.000613243
-0.00133506
0.000688611
-0.00213107
0.00067151
-0.00271447
0.000572406
-0.003117
0.000418677
-0.00339169
0.000269448
-0.00358654
0.000174582
-0.00349639
0.000100693
-0.00281683
1.64782e-05
-0.00188144
-0.00011478
-0.00108351
-0.000166082
-0.000741204
-0.000138179
-0.000621545
-0.000109332
-0.000496218
-8.81582e-05
-0.000418538
-5.97552e-05
-0.000412265
-2.03205e-05
-0.000455449
2.9958e-05
-0.000527006
9.31164e-05
-0.000612168
0.000173996
-0.000697061
0.000280106
-0.000762151
0.000423298
-0.000777156
0.000622254
-0.000698256
0.000896182
-0.000466122
0.00118655
-1.23371e-05
0.00146162
0.00050207
0.00179332
0.000875798
0.00224147
0.00108606
0.00272976
0.000940014
0.00319015
0.00063842
0.00306018
0.00112464
0.0040496
0.0023298
0.0101862
0.00281003
0.0039191
0.00254768
0.00212269
0.00234239
0.00258821
0.00211961
0.00259355
0.00203042
0.00201268
0.00210443
0.001235
0.00233554
0.00034773
0.00257726
-0.000586657
0.00262065
-0.00137846
0.00247807
-0.00198847
0.00219537
-0.00243174
0.00182389
-0.00274549
0.00141565
-0.0029834
0.0010379
-0.00320873
0.00072546
-0.00318393
0.000408004
-0.00249938
8.24159e-05
-0.00155585
-0.000200807
-0.000800272
-0.00031124
-0.000630745
-0.000306026
-0.00062674
-0.00033513
-0.000467101
-0.000381579
-0.000372074
-0.000422437
-0.000371388
-0.000455007
-0.000422855
-0.000487446
-0.000494541
-0.000524698
-0.00057489
-0.000565387
-0.000656346
-0.000603126
-0.000724387
-0.000623482
-0.000756776
-0.000596891
-0.000724824
-0.000468341
-0.00059465
-0.000144121
-0.000336536
0.00026333
9.46386e-05
0.000647788
0.000491361
0.00101315
0.00072072
0.00125863
0.000694552
0.00138412
0.000512956
0.000781109
0.00172768
0.00512494
0.0107746
0.0146884
0.0118947
0.0049164
0.00985243
0.00463044
0.0082499
0.00419609
0.00721091
0.00305167
0.00658385
0.00186206
0.00610965
0.000821932
0.00557594
-5.29398e-05
0.00495762
-0.000760125
0.00428155
-0.00131238
0.00357076
-0.00172092
0.00284986
-0.00202454
0.00216238
-0.00229587
0.00159787
-0.00264416
0.00115486
-0.00274091
0.000616204
-0.00196073
1.91825e-05
-0.000958836
-0.000407399
-0.000373671
-0.0005343
-0.000503819
-0.000485766
-0.000675257
-0.000567445
-0.000385413
-0.000688726
-0.000250774
-0.000799322
-0.000260769
-0.0008977
-0.00032445
-0.00101128
-0.000380935
-0.00115804
-0.0004281
-0.00134531
-0.000469052
-0.00157952
-0.000490155
-0.00186922
-0.000467047
-0.00222266
-0.000371366
-0.0026447
-0.000172587
-0.0031355
0.000154296
-0.00366757
0.000626732
-0.00437822
0.00120203
-0.00544316
0.00178568
-0.00697409
0.00222551
-0.0087312
0.00227009
-0.00809284
0.00108935
-0.00263986
0.0055609
0.00582112
0.00503295
0.00515841
0.00579914
0.00342993
0.0061854
0.00266543
0.00623651
0.00181096
0.00611431
0.000944162
0.00582439
0.000236994
0.00534797
-0.000283671
0.00471537
-0.000679754
0.00397407
-0.000979581
0.00317202
-0.00122246
0.00237608
-0.00149987
0.00174841
-0.00201644
0.00128095
-0.00227347
0.000591586
-0.00127139
-0.000290752
-7.6501e-05
-0.000784164
0.000119765
-0.00084242
-0.000445536
-0.000672843
-0.000844822
-0.000798008
-0.000260239
-0.000997712
-5.10491e-05
-0.00114695
-0.000111505
-0.00125363
-0.000217744
-0.00138936
-0.000245173
-0.0015749
-0.000242533
-0.00180557
-0.000238354
-0.00207308
-0.000222615
-0.00236407
-0.000176037
-0.00265233
-8.3081e-05
-0.00290673
8.18432e-05
-0.00312084
0.000368427
-0.00329767
0.00080359
-0.00345046
0.00135485
-0.00355688
0.00189213
-0.00354434
0.002213
-0.00320518
0.00193096
-0.00183437
-0.000281438
-0.00438946
-0.000421791
0.00628604
0.00186091
0.00287572
0.00304918
0.00224167
0.00389769
0.00181694
0.00452938
0.00117929
0.00482523
0.000648331
0.00481382
0.00024844
0.00457334
-4.31669e-05
0.00415894
-0.00026532
0.00360713
-0.000427738
0.00294911
-0.000564409
0.00221324
-0.000763968
0.00148463
-0.0012878
0.000757764
-0.00154668
-8.3087e-05
-0.000430569
-0.000762153
0.000602588
-0.00103052
0.000388172
-0.00105116
-0.000424866
-0.00105693
-0.000839036
-0.00117204
-0.000145127
-0.00130662
8.35531e-05
-0.00138854
-2.95489e-05
-0.0014634
-0.000142854
-0.00156126
-0.000147284
-0.00168218
-0.000121584
-0.0018187
-0.000101805
-0.00196139
-7.98947e-05
-0.00209704
-4.03581e-05
-0.00220724
2.71449e-05
-0.00225579
0.000130413
-0.00218693
0.0002996
-0.00195914
0.000575825
-0.00157212
0.000967863
-0.00102801
0.00134805
-8.0954e-05
0.00126597
0.00122208
0.000627951
0.00157007
-0.000629393
-0.00272632
-0.00904974
-0.0114979
-0.0051734
-0.00227501
-1.52958e-05
0.00181623
0.00300953
0.00367192
0.00393489
0.00390696
0.00365754
0.00324643
0.00269948
0.00195395
0.000685641
-0.000843558
-0.00125871
-0.000641656
-0.00023926
-0.000649579
-0.00147483
-0.00160668
-0.00151014
-0.00152662
-0.00165646
-0.00179087
-0.00189984
-0.00198936
-0.00205738
-0.00208632
-0.00204829
-0.00190756
-0.00159823
-0.00101324
-3.67477e-05
0.00131925
0.00259296
0.00322876
0.00260762
)
;

boundaryField
{
    floor
    {
        type            calculated;
        value           nonuniform List<scalar> 
29
(
0
0
0
0
0
0
0
0
0
0
0
0
0
0
0
0
0
0
0
0
-4.89944e-06
-1.23786e-05
-1.78095e-05
-2.36096e-05
-2.35388e-06
-4.38845e-06
-8.96433e-06
-1.31103e-05
-1.35267e-05
)
;
    }
    ceiling
    {
        type            calculated;
        value           nonuniform List<scalar> 
43
(
-4.0777e-05
-3.96483e-05
-3.8419e-05
-2.26526e-05
-1.80328e-05
-1.45638e-05
-1.39818e-05
-1.40415e-05
-1.45092e-05
-1.52094e-05
-1.58835e-05
-1.66056e-05
-1.74294e-05
-1.8413e-05
-1.94832e-05
-1.76678e-05
-1.54175e-05
-1.44579e-05
-1.4192e-05
-1.44858e-05
-1.37608e-05
-1.32602e-05
-1.29647e-05
-1.30308e-05
-1.29916e-05
-1.28424e-05
-1.25884e-05
-1.22529e-05
-1.18486e-05
-1.13842e-05
-1.08592e-05
-1.02841e-05
-9.70397e-06
-9.13684e-06
-8.6046e-06
-7.92109e-06
-7.71149e-06
-7.81483e-06
-8.22844e-06
-8.10437e-06
8.48902e-06
5.38111e-06
-4.31226e-05
)
;
    }
    sWall
    {
        type            calculated;
        value           uniform -0.00024655;
    }
    nWall
    {
        type            calculated;
        value           nonuniform List<scalar> 6(-5.3044e-05 -6.18574e-05 -6.2804e-05 -8.4731e-05 -9.30444e-05 -0.000110566);
    }
    sideWalls
    {
        type            empty;
        value           nonuniform 0();
    }
    glass1
    {
        type            calculated;
        value           nonuniform List<scalar> 9(-6.3832e-05 -0.000170804 -0.000258702 -0.000331007 -0.000390785 -0.000440682 -0.000483107 -0.000536443 -0.000596938);
    }
    glass2
    {
        type            calculated;
        value           nonuniform List<scalar> 2(-0.000294192 -0.000328015);
    }
    sun
    {
        type            calculated;
        value           uniform 0;
    }
    heatsource1
    {
        type            calculated;
        value           nonuniform List<scalar> 3(2.05382e-07 2.05265e-07 2.05275e-07);
    }
    heatsource2
    {
        type            calculated;
        value           nonuniform List<scalar> 4(5.11358e-08 5.13418e-08 0 0);
    }
    Table_master
    {
        type            calculated;
        value           nonuniform List<scalar> 9(-1.53983e-07 -1.53993e-07 -1.53994e-07 -1.54002e-07 -1.54014e-07 -1.54029e-07 -1.54046e-07 -1.54065e-07 -1.54078e-07);
    }
    Table_slave
    {
        type            calculated;
        value           nonuniform List<scalar> 9(1.53953e-07 1.53911e-07 1.53827e-07 1.53737e-07 1.53648e-07 1.53573e-07 1.53535e-07 1.53541e-07 1.53573e-07);
    }
    inlet
    {
        type            calculated;
        value           uniform -0.00646559;
    }
    outlet
    {
        type            calculated;
        value           nonuniform List<scalar> 2(0.00933708 0.00248779);
    }
}


// ************************************************************************* //
