/*--------------------------------*- C++ -*----------------------------------*\
  =========                 |
  \\      /  F ield         | OpenFOAM: The Open Source CFD Toolbox
   \\    /   O peration     | Website:  https://openfoam.org
    \\  /    A nd           | Version:  6
     \\/     M anipulation  |
\*---------------------------------------------------------------------------*/
FoamFile
{
    version     2.0;
    format      ascii;
    class       volScalarField;
    location    "1600";
    object      nut;
}
// * * * * * * * * * * * * * * * * * * * * * * * * * * * * * * * * * * * * * //

dimensions      [0 2 -1 0 0 0 0];

internalField   nonuniform List<scalar> 
459
(
0.0010648
0.0011609
0.00118294
0.00123942
0.00129176
0.00134114
0.00139025
0.00143708
0.00146996
0.00148258
0.00146895
0.00142482
0.00134815
0.00124108
0.00111534
0.000464351
0.000554331
0.000626536
0.000632898
0.00061506
0.000589161
0.000552976
0.000516051
0.000482463
0.000452728
0.000426471
0.000403209
0.00038254
0.000364059
0.000347094
0.000330803
0.000314031
0.000303591
0.000277918
0.00144997
0.00343647
0.00325344
0.00377436
0.00428476
0.00479651
0.00524091
0.00558707
0.00590838
0.00617522
0.00635116
0.00639888
0.00627338
0.00586774
0.00473131
0.00113562
0.000706864
0.000484071
0.00102038
0.00143154
0.00174353
0.00192875
0.00193899
0.00153133
0.0013151
0.00116194
0.00104522
0.000953107
0.000878564
0.000815379
0.000756466
0.000699248
0.000648347
0.000603464
0.000716801
0.000369567
0.00177064
0.00466113
0.00396783
0.00494332
0.00539141
0.0057174
0.00597225
0.00619699
0.00645724
0.00673882
0.00700877
0.00721715
0.00731861
0.00723708
0.00675152
0.00518061
0.0011709
0.000909234
0.00132635
0.00173142
0.00212566
0.00241973
0.00239202
0.00078629
0.00069543
0.000621621
0.000561713
0.000512757
0.00047239
0.00043886
0.000411038
0.000388434
0.000419533
0.000484224
0.000810517
0.000431684
0.00207909
0.00596385
0.00391662
0.00516259
0.00550148
0.00558397
0.00565346
0.00578136
0.00599966
0.00629272
0.00662919
0.00693799
0.00716998
0.00725958
0.00715813
0.00659982
0.00442129
0.00137004
0.0016426
0.00209815
0.00259948
0.00304819
0.00335932
0.00320229
0.000890214
0.000814612
0.000760779
0.000719839
0.000684837
0.000652047
0.000620436
0.000587044
0.000548096
0.000514247
0.000519569
0.000942074
0.000480878
0.00239386
0.0076654
0.00423401
0.00492298
0.00539001
0.00534418
0.00530038
0.0053969
0.00560112
0.00590066
0.00627244
0.00661203
0.00684908
0.00693995
0.00688641
0.00666442
0.0061008
0.00517232
0.00485847
0.00481167
0.00486378
0.00492468
0.00493549
0.00478326
0.00406816
0.00372124
0.00352003
0.00336363
0.00319745
0.00295951
0.00262998
0.00222521
0.00177359
0.00132411
0.000977632
0.000964628
0.000654847
0.000593939
0.000716105
0.000804279
0.00272837
0.00953359
0.00582651
0.00476037
0.0052124
0.00536288
0.00522099
0.00531068
0.00547971
0.0057573
0.00611944
0.00647355
0.00670896
0.0067599
0.00664231
0.00644232
0.00625551
0.00614033
0.00615695
0.00619202
0.00617225
0.00608755
0.0059408
0.0057202
0.00538632
0.00508592
0.00481999
0.00456603
0.00430956
0.00403597
0.00368925
0.00325288
0.00272598
0.0021407
0.00161476
0.00118892
0.000910069
0.000776408
0.00110391
0.000841198
0.00304249
0.010884
0.00835798
0.00604876
0.00565262
0.00568588
0.00554403
0.00546338
0.0055448
0.00580929
0.00619155
0.0065637
0.00678789
0.00678879
0.00660245
0.00638422
0.00633773
0.0065238
0.00675172
0.00683036
0.00673124
0.00650286
0.00618934
0.00582273
0.0054365
0.00508467
0.00477073
0.00448435
0.00422278
0.00399033
0.0037861
0.00350675
0.00310399
0.00260496
0.00211699
0.00166529
0.00134508
0.00125156
0.00128074
0.000964455
0.0031105
0.00987718
0.00857079
0.00759714
0.00700463
0.00634185
0.00578706
0.00555475
0.00566002
0.00601797
0.00648017
0.00687171
0.00704077
0.00693771
0.00665857
0.00644838
0.0065428
0.00684745
0.00697803
0.00684116
0.00651116
0.00606347
0.00556532
0.00508117
0.00466107
0.00432034
0.00404328
0.00381645
0.00363786
0.00351239
0.00344682
0.00341909
0.0032265
0.00291192
0.00262967
0.00248828
0.00260025
0.00300748
0.00367364
0.0014962
0.00303572
0.00362495
0.00409417
0.00424146
0.00425356
0.00435356
0.00464025
0.00514085
0.00581051
0.00651704
0.00709356
0.00739484
0.00732632
0.00695597
0.00656288
0.00649676
0.00656984
0.00657398
0.00637075
0.0059621
0.00542522
0.0048485
0.00431519
0.00387793
0.00354538
0.00329513
0.00309939
0.00293922
0.00280257
0.00267966
0.00256196
0.00244893
0.00235826
0.00229113
0.0022656
0.00227377
0.00225549
0.0021577
0.00201184
0.00139955
0.00182635
0.00325776
0.00451406
0.00556253
0.00641632
0.00718411
0.00778199
0.00808299
0.00804465
0.00768371
0.00705636
0.00635744
0.0059371
0.00578702
0.0056176
0.00529961
0.00484031
0.00430914
0.00377844
0.00331445
0.00295714
0.00270139
0.00252256
0.0023958
0.00230408
0.00223768
0.00219148
0.00216332
0.00215579
0.0021707
0.00219489
0.0022252
0.00225364
0.002255
0.00218924
0.00204461
0.00183456
0.00114872
0.0021243
0.00457066
0.00625725
0.0070539
0.00759205
0.00796547
0.00793066
0.00742725
0.00666065
0.00584263
0.00515967
0.00466903
0.00434172
0.00404486
0.00368474
0.00327897
0.00287954
0.00253538
0.00227242
0.00208911
0.00196451
0.00188222
0.0018353
0.00181634
0.00181977
0.00184195
0.00187962
0.00192845
0.00199428
0.00207424
0.00216576
0.00226232
0.00234842
0.00240588
0.00238679
0.00240132
0.0023725
0.00116802
0.00197018
0.00196464
0.00200093
0.00207359
0.00187872
0.00172507
0.0016524
0.00157815
0.00147014
0.00133654
0.00118462
0.0010343
0.000901722
0.000796921
0.000721271
0.000667943
0.000629594
0.000602084
0.000583809
0.000574061
0.000571939
0.000576293
0.000586092
0.000600821
0.000619462
0.000641751
0.000667789
0.000697881
0.000732624
0.000773135
0.000818716
0.000869556
0.00092627
0.00098943
0.00105883
0.00114256
0.00116864
0.00113867
0.00106666
0.000989888
)
;

boundaryField
{
    floor
    {
        type            nutkWallFunction;
        Cmu             0.09;
        kappa           0.41;
        E               9.8;
        value           nonuniform List<scalar> 
29
(
0.000134209
5.51328e-05
6.661e-05
7.56533e-05
7.64438e-05
7.42248e-05
7.09891e-05
6.6439e-05
6.17578e-05
5.74638e-05
5.36311e-05
5.02204e-05
4.71765e-05
4.44532e-05
4.20021e-05
3.97379e-05
3.75502e-05
3.52832e-05
3.3864e-05
3.03461e-05
3.0346e-05
4.27337e-05
5.0899e-05
5.72595e-05
0.000134209
5.51328e-05
5.76699e-05
0.000109986
0.000163455
)
;
    }
    ceiling
    {
        type            nutkWallFunction;
        Cmu             0.09;
        kappa           0.41;
        E               9.8;
        value           nonuniform List<scalar> 
43
(
0.000230099
0.000229413
0.000233361
0.000241345
0.000220133
0.000203222
0.000195168
0.000186893
0.000174776
0.000159646
0.000142233
0.000124752
0.000109092
9.65232e-05
8.73304e-05
8.07814e-05
7.60334e-05
7.26059e-05
7.03186e-05
6.90949e-05
6.88282e-05
6.93752e-05
7.06047e-05
7.2448e-05
7.47731e-05
7.75421e-05
8.07623e-05
8.44652e-05
8.87169e-05
9.36444e-05
9.91523e-05
0.000105254
0.000112011
0.00011948
0.000127626
0.000137371
0.00014039
0.000136921
0.00012854
0.000119535
0.000343848
0.000404756
0.000246637
)
;
    }
    sWall
    {
        type            nutkWallFunction;
        Cmu             0.09;
        kappa           0.41;
        E               9.8;
        value           uniform 0.00023016;
    }
    nWall
    {
        type            nutkWallFunction;
        Cmu             0.09;
        kappa           0.41;
        E               9.8;
        value           nonuniform List<scalar> 6(9.74125e-05 0.000101857 0.000116537 0.000138095 0.000140329 0.000119541);
    }
    sideWalls
    {
        type            empty;
    }
    glass1
    {
        type            nutkWallFunction;
        Cmu             0.09;
        kappa           0.41;
        E               9.8;
        value           nonuniform List<scalar> 9(0.000128421 0.000172721 0.000208583 0.000242408 0.000276375 0.000311957 0.000344957 0.000352063 0.000344275);
    }
    glass2
    {
        type            nutkWallFunction;
        Cmu             0.09;
        kappa           0.41;
        E               9.8;
        value           nonuniform List<scalar> 2(0.000177789 0.000166873);
    }
    sun
    {
        type            nutkWallFunction;
        Cmu             0.09;
        kappa           0.41;
        E               9.8;
        value           nonuniform List<scalar> 
14
(
0.000128324
0.000139492
0.00014204
0.000148541
0.000154538
0.000160171
0.000165749
0.000171049
0.000174758
0.000176179
0.000174643
0.000169662
0.000160967
0.000148731
)
;
    }
    heatsource1
    {
        type            nutkWallFunction;
        Cmu             0.09;
        kappa           0.41;
        E               9.8;
        value           nonuniform List<scalar> 3(7.1589e-05 8.6699e-05 9.74117e-05);
    }
    heatsource2
    {
        type            nutkWallFunction;
        Cmu             0.09;
        kappa           0.41;
        E               9.8;
        value           nonuniform List<scalar> 4(0.000136559 8.55684e-05 8.55684e-05 0.000140643);
    }
    Table_master
    {
        type            nutkWallFunction;
        Cmu             0.09;
        kappa           0.41;
        E               9.8;
        value           nonuniform List<scalar> 9(9.52378e-05 8.41656e-05 7.50442e-05 6.75445e-05 6.13431e-05 5.61748e-05 5.18399e-05 4.82115e-05 4.52406e-05);
    }
    Table_slave
    {
        type            nutkWallFunction;
        Cmu             0.09;
        kappa           0.41;
        E               9.8;
        value           nonuniform List<scalar> 9(0.000107719 9.86575e-05 9.2145e-05 8.7156e-05 8.28636e-05 7.88189e-05 7.48961e-05 7.07262e-05 6.58256e-05);
    }
    inlet
    {
        type            calculated;
        value           uniform 0.000100623;
    }
    outlet
    {
        type            calculated;
        value           nonuniform List<scalar> 2(0.00197018 0.00196464);
    }
}


// ************************************************************************* //
