/*--------------------------------*- C++ -*----------------------------------*\
  =========                 |
  \\      /  F ield         | OpenFOAM: The Open Source CFD Toolbox
   \\    /   O peration     | Website:  https://openfoam.org
    \\  /    A nd           | Version:  6
     \\/     M anipulation  |
\*---------------------------------------------------------------------------*/
FoamFile
{
    version     2.0;
    format      ascii;
    class       volScalarField;
    location    "1200";
    object      nut;
}
// * * * * * * * * * * * * * * * * * * * * * * * * * * * * * * * * * * * * * //

dimensions      [0 2 -1 0 0 0 0];

internalField   nonuniform List<scalar> 
459
(
0.00106042
0.00115544
0.00117685
0.00123272
0.00128443
0.0013331
0.00138133
0.00142778
0.0014606
0.0014736
0.00146077
0.0014178
0.00134285
0.0012385
0.00111684
0.000461269
0.000550578
0.000621074
0.000625754
0.000607463
0.000581533
0.000545966
0.000509774
0.00047683
0.000447626
0.000421807
0.000398906
0.00037856
0.00036035
0.000343625
0.000327554
0.000311005
0.000301153
0.000276233
0.00144552
0.00340936
0.00322143
0.00373543
0.00423816
0.00474367
0.00518614
0.00552821
0.00584717
0.00611359
0.00629055
0.00633917
0.00621247
0.00579876
0.00462773
0.00113552
0.0006942
0.00048217
0.00100677
0.00140458
0.00170399
0.00187936
0.00188809
0.0015
0.00129095
0.00114201
0.00102803
0.000937766
0.000864508
0.000802034
0.000743955
0.000687947
0.00063845
0.000594583
0.000708867
0.000369415
0.00176651
0.00462562
0.00392295
0.0048906
0.0053332
0.00565599
0.0059094
0.00613088
0.0063884
0.00666746
0.00693566
0.00714209
0.00724141
0.00716212
0.00668311
0.00514107
0.00116309
0.000909207
0.00131488
0.00170288
0.00207729
0.00235465
0.00232711
0.000776108
0.000687456
0.000615349
0.000556733
0.000508759
0.000469144
0.000436193
0.0004088
0.000386471
0.000416545
0.000478672
0.000800338
0.000432491
0.00207555
0.00592792
0.00386961
0.00510597
0.00544139
0.00552327
0.00559157
0.00571797
0.00593412
0.00622297
0.00655633
0.00686132
0.00708987
0.00718151
0.00708229
0.00654023
0.00443481
0.00136246
0.00163137
0.00207341
0.00255233
0.00297548
0.00326621
0.00311451
0.000878273
0.000804957
0.000752902
0.000713417
0.000679629
0.000647734
0.000616953
0.000584351
0.000546181
0.000512183
0.000515503
0.000930746
0.000482246
0.002391
0.00763063
0.00418551
0.00486447
0.00532641
0.00527993
0.00523731
0.00533427
0.00553873
0.00583249
0.00620111
0.00653725
0.006773
0.00686362
0.00680903
0.0065866
0.00602859
0.0050979
0.0047732
0.00470862
0.00474
0.00478254
0.00478249
0.00463534
0.00396057
0.00363463
0.00344705
0.00330103
0.00314386
0.00291612
0.00259588
0.00219983
0.00175642
0.00131373
0.000969871
0.000951858
0.000654157
0.000596671
0.000718687
0.000806865
0.00272612
0.00949954
0.00577243
0.00469549
0.0051413
0.00528809
0.00515297
0.00524842
0.00541936
0.00569254
0.00604799
0.00639778
0.00663266
0.00668476
0.00656546
0.00635648
0.00615222
0.00601334
0.00600426
0.00601523
0.00597634
0.00588077
0.00573374
0.00552539
0.00521767
0.00494333
0.00470001
0.0044654
0.0042257
0.00396784
0.00363507
0.00321107
0.00269514
0.00211924
0.00159912
0.00117181
0.000903009
0.000774624
0.00110374
0.000843652
0.00304147
0.0108541
0.00830691
0.00597373
0.00555608
0.00560365
0.00548026
0.00540911
0.00548866
0.00574443
0.00611693
0.0064833
0.00670712
0.00670956
0.00651961
0.00628402
0.00620227
0.00634549
0.00653815
0.00659267
0.00648107
0.00625303
0.00595283
0.0056112
0.00525784
0.00493878
0.00465344
0.00439088
0.0041486
0.00393129
0.00373828
0.00346798
0.00307206
0.00257871
0.00209486
0.00164433
0.00132957
0.00123927
0.00127212
0.000965669
0.00311009
0.00986867
0.00855071
0.00755978
0.00694367
0.00630962
0.0057596
0.00551795
0.00560703
0.0059476
0.0063963
0.00678198
0.00695209
0.00685011
0.00656113
0.00631874
0.00635918
0.00661519
0.00671657
0.00656504
0.00623676
0.00580715
0.00534085
0.00489673
0.00451708
0.00421103
0.00396133
0.00375529
0.00359197
0.00347734
0.00341912
0.00339575
0.00320405
0.00289009
0.00260706
0.00246436
0.00257694
0.00298969
0.00366524
0.00149909
0.0030357
0.00362622
0.00409696
0.00424824
0.00426516
0.00435097
0.00461721
0.00509183
0.00573565
0.00642301
0.00699064
0.00729424
0.00723403
0.00686172
0.00643387
0.0063179
0.00634269
0.0063141
0.00609438
0.00568777
0.00517203
0.00463279
0.00414544
0.00375263
0.00345624
0.00323247
0.00305523
0.00290769
0.0027795
0.00266229
0.00254862
0.00243806
0.0023489
0.00228272
0.00225795
0.00226698
0.0022499
0.00215351
0.00200882
0.00140175
0.00183894
0.00327102
0.00449146
0.00550339
0.00632493
0.00706444
0.00765602
0.00796554
0.00794113
0.00759571
0.00697614
0.00623819
0.0057571
0.00556443
0.00537113
0.0050456
0.00459555
0.0040888
0.00359408
0.00317295
0.002855
0.00263018
0.00247359
0.00236224
0.00228108
0.00222187
0.00218048
0.00215545
0.00214956
0.00216562
0.00219039
0.0022209
0.0022494
0.00225085
0.00218533
0.00204106
0.00183141
0.00114956
0.00213523
0.00454291
0.00618942
0.00697176
0.00749212
0.00784552
0.00786496
0.00738327
0.00661135
0.00576423
0.00504206
0.00451084
0.00415488
0.00384696
0.0034845
0.00308579
0.00270451
0.00238651
0.00215201
0.00199257
0.00188691
0.00182063
0.00178748
0.00177949
0.00179182
0.00182133
0.00186502
0.00191865
0.00198789
0.0020703
0.00216346
0.00226098
0.00234761
0.00240566
0.00238753
0.00240291
0.00236636
0.00116836
0.00183596
0.00193313
0.00200529
0.0020741
0.00187804
0.00171921
0.00163988
0.00156485
0.00145617
0.00132388
0.00117033
0.00101677
0.00088013
0.000771842
0.000694172
0.00064057
0.000603522
0.000578584
0.000563689
0.000557586
0.000558946
0.000566391
0.000578915
0.000595821
0.000616161
0.000639883
0.000667116
0.000698183
0.000733697
0.00077479
0.000820918
0.000872191
0.000929237
0.00099265
0.0010623
0.00114664
0.00117274
0.00114282
0.0010704
0.00099308
)
;

boundaryField
{
    floor
    {
        type            nutkWallFunction;
        Cmu             0.09;
        kappa           0.41;
        E               9.8;
        value           nonuniform List<scalar> 
29
(
0.000134383
5.47353e-05
6.61363e-05
7.49739e-05
7.55562e-05
7.32775e-05
7.00329e-05
6.55535e-05
6.09583e-05
5.67402e-05
5.29707e-05
4.96121e-05
4.66114e-05
4.39269e-05
4.15087e-05
3.92736e-05
3.71127e-05
3.48729e-05
3.35321e-05
3.01141e-05
3.0114e-05
4.27139e-05
5.10043e-05
5.74354e-05
0.000134383
5.47353e-05
5.74261e-05
0.000109982
0.000162594
)
;
    }
    ceiling
    {
        type            nutkWallFunction;
        Cmu             0.09;
        kappa           0.41;
        E               9.8;
        value           nonuniform List<scalar> 
43
(
0.000215328
0.00022597
0.000233836
0.0002414
0.000220056
0.000202573
0.000193773
0.000185406
0.000173201
0.000158204
0.000140583
0.000122695
0.000106517
9.34876e-05
8.40101e-05
7.7396e-05
7.27857e-05
6.96632e-05
6.77904e-05
6.70213e-05
6.71927e-05
6.81305e-05
6.97046e-05
7.18231e-05
7.43622e-05
7.73106e-05
8.06795e-05
8.45024e-05
8.88478e-05
9.38451e-05
9.94174e-05
0.000105569
0.000112363
0.00011986
0.00012803
0.000137844
0.000140864
0.000137401
0.000128977
0.000119911
0.000343846
0.000404885
0.00024782
)
;
    }
    sWall
    {
        type            nutkWallFunction;
        Cmu             0.09;
        kappa           0.41;
        E               9.8;
        value           uniform 0.000215388;
    }
    nWall
    {
        type            nutkWallFunction;
        Cmu             0.09;
        kappa           0.41;
        E               9.8;
        value           nonuniform List<scalar> 6(9.77245e-05 0.000102152 0.000116681 0.000138192 0.000140368 0.000119917);
    }
    sideWalls
    {
        type            empty;
    }
    glass1
    {
        type            nutkWallFunction;
        Cmu             0.09;
        kappa           0.41;
        E               9.8;
        value           nonuniform List<scalar> 9(0.000127908 0.000172217 0.000208125 0.000242024 0.000276069 0.00031172 0.00034485 0.000352021 0.000344274);
    }
    glass2
    {
        type            nutkWallFunction;
        Cmu             0.09;
        kappa           0.41;
        E               9.8;
        value           nonuniform List<scalar> 2(0.000178114 0.000167123);
    }
    sun
    {
        type            nutkWallFunction;
        Cmu             0.09;
        kappa           0.41;
        E               9.8;
        value           nonuniform List<scalar> 
14
(
0.000127812
0.00013886
0.000141336
0.000147772
0.000153699
0.000159255
0.000164738
0.000169998
0.000173703
0.000175167
0.000173721
0.000168868
0.000160364
0.000148435
)
;
    }
    heatsource1
    {
        type            nutkWallFunction;
        Cmu             0.09;
        kappa           0.41;
        E               9.8;
        value           nonuniform List<scalar> 3(7.19309e-05 8.70148e-05 9.77236e-05);
    }
    heatsource2
    {
        type            nutkWallFunction;
        Cmu             0.09;
        kappa           0.41;
        E               9.8;
        value           nonuniform List<scalar> 4(0.000136547 8.4015e-05 8.4015e-05 0.000139741);
    }
    Table_master
    {
        type            nutkWallFunction;
        Cmu             0.09;
        kappa           0.41;
        E               9.8;
        value           nonuniform List<scalar> 9(9.40048e-05 8.31861e-05 7.42634e-05 6.6917e-05 6.08338e-05 5.57571e-05 5.14937e-05 4.79186e-05 4.4982e-05);
    }
    Table_slave
    {
        type            nutkWallFunction;
        Cmu             0.09;
        kappa           0.41;
        E               9.8;
        value           nonuniform List<scalar> 9(0.000106294 9.74932e-05 9.11877e-05 8.63703e-05 8.22229e-05 7.82852e-05 7.44627e-05 7.03888e-05 6.55838e-05);
    }
    inlet
    {
        type            calculated;
        value           uniform 0.000100623;
    }
    outlet
    {
        type            calculated;
        value           nonuniform List<scalar> 2(0.00183596 0.00193313);
    }
}


// ************************************************************************* //
