/*--------------------------------*- C++ -*----------------------------------*\
  =========                 |
  \\      /  F ield         | OpenFOAM: The Open Source CFD Toolbox
   \\    /   O peration     | Website:  https://openfoam.org
    \\  /    A nd           | Version:  6
     \\/     M anipulation  |
\*---------------------------------------------------------------------------*/
FoamFile
{
    version     2.0;
    format      ascii;
    class       volScalarField;
    location    "600";
    object      alphat;
}
// * * * * * * * * * * * * * * * * * * * * * * * * * * * * * * * * * * * * * //

dimensions      [1 -1 -1 0 0 0 0];

internalField   nonuniform List<scalar> 
459
(
0.00125467
0.00137043
0.00139732
0.00146456
0.00152718
0.00158665
0.00164636
0.00170105
0.00173775
0.00174881
0.00172738
0.00166876
0.0015697
0.00143099
0.00126905
0.000547432
0.000651626
0.000738892
0.000752666
0.00073414
0.000704896
0.000661469
0.000616658
0.000575836
0.000539711
0.00050784
0.000479638
0.000454624
0.00043228
0.00041179
0.000392147
0.000371997
0.000359511
0.000329108
0.00170366
0.00408334
0.00387647
0.00449683
0.00510799
0.00571507
0.00622734
0.00663988
0.00701756
0.0073248
0.0075209
0.00756818
0.00742307
0.00698388
0.00583786
0.00129952
0.000848693
0.000565814
0.00122202
0.0017374
0.00213782
0.00238175
0.00239325
0.00185957
0.00158706
0.00139652
0.00125231
0.00113904
0.00104765
0.000970224
0.000898267
0.000828394
0.000766079
0.000711809
0.000849149
0.000435699
0.00207548
0.00553731
0.00473849
0.00586398
0.00638282
0.00676241
0.00706115
0.00733937
0.007658
0.00799816
0.00831773
0.00856207
0.00868122
0.00857063
0.00799105
0.00607576
0.00136891
0.00103908
0.00155633
0.00207637
0.00259615
0.0029878
0.00294776
0.000937642
0.000826502
0.000736532
0.000663775
0.00060452
0.00055581
0.000515474
0.00048214
0.000455278
0.000493821
0.000572467
0.000966771
0.000509135
0.00243116
0.00705628
0.00469346
0.00611292
0.0064817
0.00657667
0.0066756
0.00685005
0.00712702
0.0074913
0.00789389
0.00825816
0.00852708
0.00860856
0.00846913
0.00775775
0.00500927
0.00159209
0.00191914
0.00248491
0.00312963
0.00371939
0.00412842
0.00392001
0.00106327
0.000970944
0.000905286
0.000855278
0.000812411
0.000772242
0.000733471
0.000692538
0.000644887
0.000603069
0.000612423
0.00113301
0.000566522
0.00279276
0.00902865
0.00507067
0.00585936
0.00635096
0.00629694
0.00627325
0.00641491
0.00666991
0.00704744
0.00748999
0.00788482
0.00814689
0.00823406
0.00816034
0.00789367
0.00721699
0.00615739
0.00581956
0.00580503
0.00590752
0.0060089
0.0060304
0.00582651
0.00490843
0.00446144
0.00419967
0.00399676
0.00378513
0.0034888
0.00308514
0.00259582
0.00205676
0.00153
0.00113241
0.00114195
0.000773738
0.000698363
0.000839936
0.000944137
0.0031764
0.0111915
0.00692849
0.00572266
0.00621755
0.00638484
0.00621905
0.00632368
0.00653089
0.00687802
0.00731848
0.0077293
0.00798156
0.00801416
0.00786942
0.00766286
0.00750057
0.00742875
0.00749447
0.00756143
0.00754617
0.00743862
0.00724372
0.00694725
0.00650163
0.00610241
0.00575327
0.00542527
0.00509934
0.00475637
0.00432875
0.0037978
0.00316526
0.00247443
0.0018663
0.00138567
0.00107384
0.000923005
0.00131387
0.000989688
0.00353444
0.0127392
0.00985505
0.00724184
0.00682639
0.00679932
0.00657909
0.00647633
0.00659732
0.00694228
0.0074118
0.00784176
0.00807363
0.00804198
0.00782401
0.00762896
0.00768873
0.00800304
0.00829985
0.00838322
0.00824482
0.00794939
0.00754938
0.00707855
0.00657301
0.00610619
0.00568984
0.00531444
0.00497745
0.0046838
0.00443102
0.00409465
0.0036157
0.00302561
0.0024571
0.00194236
0.00158623
0.00149852
0.00154686
0.00114782
0.00360834
0.0114891
0.0100051
0.00891542
0.00818979
0.00736673
0.00674883
0.00654162
0.00673467
0.00720669
0.00776855
0.00820938
0.00836413
0.00820981
0.00790975
0.00777442
0.00803605
0.00844805
0.00857346
0.0083923
0.00798672
0.00743674
0.00681208
0.00618486
0.00562282
0.00515942
0.00478453
0.00448376
0.00425332
0.00409606
0.00401571
0.00398212
0.0037715
0.00340958
0.00309619
0.00296062
0.00314039
0.00366887
0.00444919
0.00176175
0.00351677
0.00419832
0.00473945
0.00489755
0.00492804
0.00509161
0.0054967
0.00616236
0.00700842
0.00785818
0.00851256
0.00880653
0.00865662
0.00820725
0.00789106
0.00791953
0.00806079
0.00806442
0.00781205
0.00733173
0.00668702
0.00596965
0.00527581
0.00468495
0.00422782
0.00388728
0.00362967
0.00342857
0.00326582
0.00312686
0.00299957
0.00288076
0.00278788
0.00272117
0.0026989
0.00270889
0.00267955
0.00255155
0.0023714
0.00163988
0.00214191
0.00381166
0.00540007
0.00673659
0.00781781
0.00875181
0.00940332
0.00966426
0.00952759
0.00902933
0.0082436
0.0075178
0.00717935
0.00706569
0.0068838
0.0065128
0.00596622
0.00531517
0.00465054
0.00404768
0.00356347
0.00321436
0.00297588
0.00281494
0.00270599
0.00263327
0.0025877
0.00256459
0.00256523
0.00259109
0.00262686
0.00266805
0.00270418
0.00270488
0.00262389
0.00245228
0.00219867
0.00134474
0.0025124
0.00545313
0.00759558
0.00854159
0.00919169
0.00955082
0.00927953
0.00856571
0.00764098
0.00674142
0.00603116
0.00554881
0.00523335
0.0049131
0.00450434
0.00402276
0.00352297
0.00306999
0.00271158
0.00246022
0.00229848
0.00219782
0.00214144
0.00212299
0.00213401
0.00216888
0.00222283
0.00228992
0.00237635
0.00247896
0.00259435
0.0027138
0.00281804
0.00288915
0.00286302
0.00287733
0.0028173
0.00136693
0.00214916
0.00226311
0.00234677
0.00241574
0.00218994
0.00201786
0.00193969
0.00184308
0.00170923
0.00154354
0.00136656
0.00119741
0.00105157
0.000936843
0.000852631
0.000790636
0.000743366
0.000707085
0.000681009
0.000665312
0.000659564
0.000662552
0.000672899
0.000689615
0.000711976
0.000738926
0.000770509
0.000807048
0.000849248
0.000898484
0.000953962
0.00101578
0.00108461
0.00116105
0.00124461
0.00134783
0.00137401
0.00133575
0.0012516
0.00115928
)
;

boundaryField
{
    floor
    {
        type            compressible::alphatWallFunction;
        Prt             0.85;
        value           nonuniform List<scalar> 
29
(
0.000179642
7.64612e-05
9.20631e-05
0.000104896
0.000106905
0.000104203
9.99211e-05
9.3522e-05
8.68651e-05
8.07489e-05
7.52917e-05
7.04394e-05
6.61139e-05
6.22504e-05
5.87764e-05
5.55706e-05
5.24781e-05
4.92848e-05
4.72951e-05
4.24119e-05
4.24113e-05
5.93092e-05
7.0637e-05
7.93459e-05
0.00017964
7.64603e-05
7.92376e-05
0.000147783
0.000223327
)
;
    }
    ceiling
    {
        type            compressible::alphatWallFunction;
        Prt             0.85;
        value           nonuniform List<scalar> 
43
(
0.000296367
0.000311051
0.000321785
0.000330722
0.000301803
0.000279534
0.000269353
0.000256699
0.000239041
0.000216962
0.000193084
0.000169932
0.000149668
0.000133498
0.000121482
0.000112546
0.000105676
0.000100367
9.65311e-05
9.42131e-05
9.33622e-05
9.38039e-05
9.53328e-05
9.7797e-05
0.000101082
0.000105025
0.000109625
0.000114917
0.000120995
0.00012804
0.000135925
0.000144648
0.000154288
0.000164911
0.000176433
0.000190545
0.000194104
0.0001889
0.000177393
0.00016467
0.000468625
0.000551503
0.000342783
)
;
    }
    sWall
    {
        type            compressible::alphatWallFunction;
        Prt             0.85;
        value           uniform 0.000295147;
    }
    nWall
    {
        type            compressible::alphatWallFunction;
        Prt             0.85;
        value           nonuniform List<scalar> 6(0.000134204 0.000140639 0.000162733 0.000189793 0.000192809 0.000164342);
    }
    sideWalls
    {
        type            empty;
    }
    glass1
    {
        type            compressible::alphatWallFunction;
        Prt             0.85;
        value           nonuniform List<scalar> 9(0.000173309 0.000232994 0.000281228 0.000326586 0.000372045 0.000419649 0.000463583 0.000472726 0.000461788);
    }
    glass2
    {
        type            compressible::alphatWallFunction;
        Prt             0.85;
        value           nonuniform List<scalar> 2(0.000244194 0.00022817);
    }
    sun
    {
        type            compressible::alphatWallFunction;
        Prt             0.85;
        value           nonuniform List<scalar> 
14
(
0.000177694
0.000193482
0.000197129
0.000206219
0.000214642
0.000222606
0.000230569
0.000237833
0.000242693
0.000244156
0.000241319
0.000233543
0.000220334
0.00020168
)
;
    }
    heatsource1
    {
        type            compressible::alphatWallFunction;
        Prt             0.85;
        value           nonuniform List<scalar> 3(9.90768e-05 0.00011965 0.000134526);
    }
    heatsource2
    {
        type            compressible::alphatWallFunction;
        Prt             0.85;
        value           nonuniform List<scalar> 4(0.000183946 0.000120911 0.000120909 0.000193401);
    }
    Table_master
    {
        type            compressible::alphatWallFunction;
        Prt             0.85;
        value           nonuniform List<scalar> 9(0.000133603 0.000117716 0.000104668 9.39758e-05 8.51623e-05 7.78376e-05 7.17115e-05 6.66035e-05 6.24549e-05);
    }
    Table_slave
    {
        type            compressible::alphatWallFunction;
        Prt             0.85;
        value           nonuniform List<scalar> 9(0.000151302 0.000138323 0.000129005 0.000121855 0.000115686 0.000109871 0.000104223 9.82209e-05 9.11791e-05);
    }
    inlet
    {
        type            fixedValue;
        value           uniform 1.94e-05;
    }
    outlet
    {
        type            zeroGradient;
    }
}


// ************************************************************************* //
