/*--------------------------------*- C++ -*----------------------------------*\
  =========                 |
  \\      /  F ield         | OpenFOAM: The Open Source CFD Toolbox
   \\    /   O peration     | Website:  https://openfoam.org
    \\  /    A nd           | Version:  6
     \\/     M anipulation  |
\*---------------------------------------------------------------------------*/
FoamFile
{
    version     2.0;
    format      ascii;
    class       volScalarField;
    location    "600";
    object      nut;
}
// * * * * * * * * * * * * * * * * * * * * * * * * * * * * * * * * * * * * * //

dimensions      [0 2 -1 0 0 0 0];

internalField   nonuniform List<scalar> 
459
(
0.00108058
0.00117925
0.00120234
0.00126018
0.00131404
0.0013652
0.00141656
0.00146358
0.00149511
0.00150458
0.00148608
0.0014356
0.00135036
0.00123104
0.00109176
0.000471087
0.000560715
0.000635792
0.000647652
0.00063172
0.000606565
0.000569204
0.00053065
0.000495528
0.000464447
0.000437026
0.000412762
0.00039124
0.000372015
0.000354386
0.000337486
0.000320149
0.000309409
0.000283261
0.00146816
0.00351426
0.00333597
0.00386987
0.00439587
0.00491833
0.00535914
0.005714
0.00603866
0.00630252
0.00647069
0.0065109
0.00638578
0.00600787
0.00502201
0.0011179
0.000730063
0.00048692
0.0010515
0.00149494
0.00183951
0.00204944
0.00205937
0.00160016
0.00136567
0.00120171
0.00107762
0.000980158
0.000901517
0.000834894
0.000772977
0.000712856
0.00065924
0.000612549
0.000730759
0.000374992
0.00178972
0.00476649
0.00407838
0.00504728
0.00549413
0.00582108
0.00607831
0.00631762
0.00659122
0.00688296
0.00715687
0.00736623
0.00746823
0.00737293
0.00687436
0.00522673
0.00117761
0.000894087
0.00133913
0.00178662
0.00223394
0.00257104
0.00253667
0.000806878
0.000711236
0.000633813
0.000571202
0.000520211
0.000478294
0.000443583
0.000414898
0.000391782
0.000424954
0.000492638
0.000831979
0.000438197
0.00209778
0.0060754
0.0040402
0.00526245
0.0055805
0.00566279
0.00574831
0.00589832
0.00613582
0.00644785
0.00679275
0.00710498
0.00733567
0.00740561
0.00728576
0.0066739
0.00430946
0.00136972
0.00165116
0.00213806
0.00269299
0.00320069
0.00355291
0.00337372
0.000915132
0.000835702
0.000779215
0.000736193
0.000699312
0.000664749
0.000631385
0.000596157
0.00055514
0.000519091
0.000527096
0.000975101
0.000487601
0.00241131
0.00777577
0.00436559
0.0050449
0.00546898
0.00542334
0.00540363
0.00552536
0.00574359
0.00606657
0.00644548
0.00678383
0.00700859
0.00708347
0.00702027
0.00679116
0.00620926
0.00529789
0.00500754
0.00499543
0.00508404
0.00517171
0.0051906
0.00501542
0.00422539
0.00384078
0.00361557
0.00344098
0.00325886
0.00300376
0.00265621
0.0022349
0.00177075
0.00131714
0.000974763
0.000982877
0.000665966
0.000601254
0.000723252
0.000812994
0.00274411
0.00964188
0.00596651
0.00492801
0.00535495
0.00550023
0.00535838
0.00544784
0.00562445
0.00592094
0.00629784
0.00664981
0.00686617
0.00689426
0.00677021
0.00659307
0.00645396
0.00639269
0.00644981
0.00650805
0.00649551
0.00640349
0.00623618
0.00598132
0.00559795
0.00525446
0.004954
0.00467169
0.00439109
0.00409576
0.00372747
0.00327018
0.0027254
0.00213042
0.00160667
0.00119277
0.000924317
0.000794566
0.00113111
0.000852123
0.003055
0.0109814
0.00849123
0.00623901
0.00588156
0.00585949
0.00566984
0.00557973
0.00568131
0.00597548
0.0063772
0.00674575
0.00694491
0.00691819
0.00673158
0.00656471
0.00661699
0.00688828
0.0071445
0.00721697
0.00709846
0.00684464
0.00650065
0.00609555
0.00566046
0.00525863
0.00490019
0.00457695
0.00428674
0.00403381
0.003816
0.00352617
0.00311356
0.00260523
0.00211552
0.00167216
0.00136549
0.00129002
0.00133167
0.000988242
0.00312119
0.00991785
0.00863221
0.00768959
0.00706286
0.00635231
0.00581711
0.00563494
0.00579741
0.00620049
0.00668189
0.00706052
0.0071943
0.00706292
0.00680635
0.00669129
0.00691761
0.0072732
0.00738189
0.00722652
0.00687777
0.00640454
0.00586688
0.0053269
0.00484296
0.00444392
0.00412106
0.003862
0.0036635
0.00352799
0.00345869
0.00342961
0.00324805
0.00293618
0.00266612
0.0025492
0.0027039
0.00315906
0.00383118
0.00151765
0.00304518
0.00363187
0.00409644
0.0042299
0.00425348
0.00439069
0.00473446
0.00530237
0.00602634
0.00675518
0.00731803
0.00757268
0.00744634
0.00706222
0.0067924
0.00681843
0.00694098
0.00694475
0.0067279
0.00631462
0.00575964
0.00514197
0.00454447
0.00403561
0.00364189
0.00334856
0.00312665
0.00295341
0.00281318
0.00269345
0.00258377
0.00248143
0.00240142
0.002344
0.00232492
0.00233369
0.00230865
0.00219861
0.00204352
0.00141339
0.00180631
0.00323625
0.00460085
0.00574979
0.00668416
0.00749516
0.00806491
0.00829863
0.00818898
0.00776681
0.007095
0.00647241
0.00618226
0.00608514
0.00592897
0.00560978
0.00513925
0.00457862
0.00400621
0.00348695
0.00306987
0.00276914
0.0025637
0.00242506
0.00233119
0.00226855
0.00222928
0.00220937
0.00220993
0.00223222
0.00226306
0.0022986
0.00232983
0.00233057
0.00226096
0.00211325
0.00189483
0.00115899
0.00212189
0.00463361
0.0064752
0.00730034
0.00787354
0.00819631
0.00797359
0.00736673
0.00657545
0.0058037
0.00519355
0.00477897
0.00450774
0.00423219
0.00388028
0.00346556
0.00303509
0.0026449
0.00233615
0.00211961
0.00198027
0.00189355
0.00184498
0.00182909
0.00183859
0.00186863
0.00191511
0.00197292
0.00204738
0.0021358
0.00223524
0.0023382
0.00242808
0.00248945
0.00246707
0.00247955
0.00242782
0.00117807
0.00182825
0.00192473
0.00199585
0.00206691
0.0018792
0.00173403
0.00166816
0.00158596
0.00147136
0.0013291
0.00117694
0.00103139
0.000905855
0.000807072
0.000734554
0.000681165
0.000640453
0.000609203
0.000586743
0.000573223
0.000568273
0.00057085
0.000579766
0.00059417
0.000613438
0.00063666
0.000663873
0.000695357
0.000731718
0.000774142
0.000821945
0.000875211
0.000934523
0.00100039
0.00107241
0.00116139
0.00118398
0.00115103
0.00107853
0.000999108
)
;

boundaryField
{
    floor
    {
        type            nutkWallFunction;
        Cmu             0.09;
        kappa           0.41;
        E               9.8;
        value           nonuniform List<scalar> 
29
(
0.000131462
5.60023e-05
6.74162e-05
7.68042e-05
7.82749e-05
7.62991e-05
7.3167e-05
6.84856e-05
6.36151e-05
5.91399e-05
5.51468e-05
5.15961e-05
4.84307e-05
4.56033e-05
4.30607e-05
4.07144e-05
3.84508e-05
3.61134e-05
3.46571e-05
3.10831e-05
3.1083e-05
4.34546e-05
5.17471e-05
5.81231e-05
0.000131462
5.60023e-05
5.80364e-05
0.000108181
0.000163417
)
;
    }
    ceiling
    {
        type            nutkWallFunction;
        Cmu             0.09;
        kappa           0.41;
        E               9.8;
        value           nonuniform List<scalar> 
43
(
0.000214481
0.000225051
0.000232808
0.000240621
0.000220187
0.000204216
0.000196921
0.000187768
0.000174914
0.000158799
0.000141347
0.000124413
0.000109586
9.77511e-05
8.89552e-05
8.24136e-05
7.7384e-05
7.34971e-05
7.06884e-05
6.89912e-05
6.83683e-05
6.8692e-05
6.98118e-05
7.16166e-05
7.40228e-05
7.69107e-05
8.0279e-05
8.41553e-05
8.86063e-05
9.37664e-05
9.95411e-05
0.00010593
0.00011299
0.000120771
0.000129212
0.000139552
0.000142162
0.000138353
0.000129926
0.000120621
0.00034483
0.000405458
0.000246372
)
;
    }
    sWall
    {
        type            nutkWallFunction;
        Cmu             0.09;
        kappa           0.41;
        E               9.8;
        value           uniform 0.000214541;
    }
    nWall
    {
        type            nutkWallFunction;
        Cmu             0.09;
        kappa           0.41;
        E               9.8;
        value           nonuniform List<scalar> 6(9.8464e-05 0.000103168 0.000119345 0.000139285 0.000141491 0.000120627);
    }
    sideWalls
    {
        type            empty;
    }
    glass1
    {
        type            nutkWallFunction;
        Cmu             0.09;
        kappa           0.41;
        E               9.8;
        value           nonuniform List<scalar> 9(0.000130269 0.000174777 0.000210692 0.000244439 0.000278242 0.000313618 0.00034626 0.000353175 0.000345261);
    }
    glass2
    {
        type            nutkWallFunction;
        Cmu             0.09;
        kappa           0.41;
        E               9.8;
        value           nonuniform List<scalar> 2(0.000180202 0.000168443);
    }
    sun
    {
        type            nutkWallFunction;
        Cmu             0.09;
        kappa           0.41;
        E               9.8;
        value           nonuniform List<scalar> 
14
(
0.000130166
0.000141614
0.000144276
0.000150924
0.000157083
0.000162907
0.000168729
0.000174039
0.000177589
0.000178652
0.000176571
0.00017088
0.000161217
0.000147576
)
;
    }
    heatsource1
    {
        type            nutkWallFunction;
        Cmu             0.09;
        kappa           0.41;
        E               9.8;
        value           nonuniform List<scalar> 3(7.25041e-05 8.75731e-05 9.84628e-05);
    }
    heatsource2
    {
        type            nutkWallFunction;
        Cmu             0.09;
        kappa           0.41;
        E               9.8;
        value           nonuniform List<scalar> 4(0.0001345 8.84075e-05 8.84075e-05 0.000141418);
    }
    Table_master
    {
        type            nutkWallFunction;
        Cmu             0.09;
        kappa           0.41;
        E               9.8;
        value           nonuniform List<scalar> 9(9.77265e-05 8.6105e-05 7.65608e-05 6.87399e-05 6.22931e-05 5.69353e-05 5.24543e-05 4.8718e-05 4.56834e-05);
    }
    Table_slave
    {
        type            nutkWallFunction;
        Cmu             0.09;
        kappa           0.41;
        E               9.8;
        value           nonuniform List<scalar> 9(0.000110688 0.000101196 9.43826e-05 8.9154e-05 8.46429e-05 8.03895e-05 7.62585e-05 7.18678e-05 6.67158e-05);
    }
    inlet
    {
        type            calculated;
        value           uniform 0.000100623;
    }
    outlet
    {
        type            calculated;
        value           nonuniform List<scalar> 2(0.00182825 0.00192473);
    }
}


// ************************************************************************* //
