/*--------------------------------*- C++ -*----------------------------------*\
  =========                 |
  \\      /  F ield         | OpenFOAM: The Open Source CFD Toolbox
   \\    /   O peration     | Website:  https://openfoam.org
    \\  /    A nd           | Version:  6
     \\/     M anipulation  |
\*---------------------------------------------------------------------------*/
FoamFile
{
    version     2.0;
    format      ascii;
    class       surfaceScalarField;
    location    "1600";
    object      phi;
}
// * * * * * * * * * * * * * * * * * * * * * * * * * * * * * * * * * * * * * //

dimensions      [1 0 -1 0 0 0 0];

internalField   nonuniform List<scalar> 
852
(
-0.00295909
0.0030164
-0.00400026
0.00104116
-0.00480105
0.000800792
-0.00542438
0.000623329
-0.00583677
0.000412392
-0.00601013
0.000173361
-0.0059163
-9.383e-05
-0.00553346
-0.000382845
-0.00487782
-0.000655633
-0.00401484
-0.000862981
-0.00304481
-0.000970036
-0.00207964
-0.000965162
-0.00122188
-0.000857766
-0.000534195
-0.000687684
-0.000532533
-0.000779632
0.0007826
-0.000527014
-0.000252618
6.7147e-05
-0.000594161
0.000570224
-0.000503077
0.000920899
-0.000350675
0.00115051
-0.000229607
0.00127883
-0.000128328
0.00134098
-6.21501e-05
0.00137546
-3.44721e-05
0.00139677
-2.13145e-05
0.00140897
-1.21975e-05
0.0014136
-4.63695e-06
0.00140937
4.23869e-06
0.00138875
2.06147e-05
0.00133065
5.80996e-05
0.00119956
0.000131094
0.000983064
0.000216494
0.0007161
0.000266964
0.000720066
-0.00211986
0.0052907
-0.00314061
0.00206192
-0.00396989
0.00163007
-0.00458941
0.00124285
-0.00500023
0.000823208
-0.00518314
0.000356278
-0.00510673
-0.000170245
-0.00475345
-0.000736122
-0.00415212
-0.00125697
-0.00337876
-0.00163634
-0.00253182
-0.00181698
-0.00170602
-0.00179096
-0.000982012
-0.00158178
-0.000433367
-0.00123633
-0.000164074
-0.000801826
0.00012148
-0.000285605
0.000121428
0.000248128
0.000543122
0.000653812
-0.000658302
0.000923096
-0.000863444
0.00114905
-0.00072903
0.00132928
-0.000530911
0.00144625
-0.000346569
0.00146728
-0.000149361
0.00147242
-6.72879e-05
0.00147864
-4.06996e-05
0.00148388
-2.65541e-05
0.00148736
-1.56746e-05
0.00148924
-6.52019e-06
0.00148891
4.57773e-06
0.00148314
2.63843e-05
0.00144429
9.69472e-05
0.00127782
0.000297564
0.000988244
0.000506068
0.00062485
0.000630358
0.00135503
-0.00148983
0.00701683
-0.00237259
0.00294469
-0.00311335
0.00237083
-0.00364913
0.00177863
-0.00401396
0.00118804
-0.00418344
0.000525757
-0.00410329
-0.000250393
-0.00374813
-0.00109129
-0.00317258
-0.00183252
-0.00247035
-0.00233857
-0.00173666
-0.00255067
-0.00104394
-0.00248367
-0.000444173
-0.00218154
2.84332e-05
-0.00170893
0.00033922
-0.00111261
0.000477682
-0.000424067
0.00059911
0.00149376
-0.000941156
0.00171427
-0.000878819
0.00167347
-0.000822646
0.00166316
-0.000718715
0.00168868
-0.000556429
0.00173239
-0.000390283
0.00158318
0.00151605
0.0014755
0.0014491
0.00143358
0.00142721
0.00143194
0.00145848
0.00155558
0.00128557
0.000567572
0.000954513
0.000837129
0.000536535
0.00104834
0.00190687
-0.0010431
0.00836594
-0.00174483
0.00364641
-0.00224266
0.00286866
-0.00260154
0.00213751
-0.00285279
0.00143929
-0.00295931
0.000632276
-0.00282442
-0.00038528
-0.00243227
-0.00148344
-0.00188459
-0.0023802
-0.00128376
-0.0029394
-0.000705451
-0.00312898
-0.000188973
-0.00300015
0.000249924
-0.00262044
0.00061225
-0.00207126
0.000935022
-0.00143538
0.00129956
-0.000788602
0.0021497
-0.000251033
0.00250289
-0.000344834
0.00215412
-0.00059238
0.00201844
-0.000743145
0.00188864
-0.000692847
0.00177198
-0.000602054
0.00169738
-0.000481824
0.00163639
-0.000329295
0.00177846
-0.000142224
0.00186509
-8.67828e-05
0.00193437
-6.94343e-05
0.00198844
-5.42161e-05
0.00201331
-2.50283e-05
0.00198739
2.57731e-05
0.00188518
0.000102056
0.00167316
0.000211867
0.00129615
0.000376854
0.00113676
0.000726962
0.000826124
0.00114776
0.00036128
0.00151318
0.00228812
-0.000728755
0.00945988
-0.0012618
0.00417946
-0.00138382
0.00299068
-0.00147711
0.0022308
-0.00153907
0.00150124
-0.00149896
0.00059217
-0.00122329
-0.000660951
-0.000781696
-0.00192504
-0.000305662
-0.00285623
0.000126011
-0.00337107
0.000479206
-0.00348218
0.000749371
-0.00327032
0.000958663
-0.00282973
0.00113665
-0.00224925
0.00131752
-0.00161625
0.00154928
-0.00102036
0.00187555
-0.000577305
0.00198143
-0.000450713
0.00189945
-0.000510396
0.00172296
-0.000566662
0.00156359
-0.000533474
0.00142677
-0.000465231
0.00132614
-0.0003812
0.00127781
-0.000280962
0.00131995
-0.000184361
0.00137346
-0.000140294
0.00143133
-0.000127304
0.00149036
-0.000113249
0.00154016
-7.48291e-05
0.00156045
5.48527e-06
0.00152967
0.000132829
0.00143568
0.000305858
0.00127926
0.000533274
0.00113362
0.000872603
0.00097011
0.00131128
0.000617335
0.00186595
0.000520662
0.00238479
-0.000985899
0.00150636
-0.00145041
0.00046431
-0.00140205
-0.000630894
0.0105058
-0.000996746
0.00454531
-0.000602396
0.00259633
-0.000308799
0.0019372
-9.39309e-05
0.00128638
0.000231534
0.000266705
0.000713491
-0.00114291
0.00115153
-0.00236308
0.00146396
-0.00316866
0.00163712
-0.00354423
0.00169704
-0.00354209
0.00167583
-0.00324911
0.0016064
-0.0027603
0.0015264
-0.00216926
0.00146916
-0.00155901
0.00145969
-0.00101089
0.001491
-0.000608616
0.00145922
-0.00041894
0.00133431
-0.000385485
0.00115533
-0.000387677
0.000990592
-0.000368738
0.00085903
-0.000333669
0.000768965
-0.000291135
0.000731339
-0.000243336
0.000749981
-0.000203003
0.000799776
-0.000190089
0.000866402
-0.00019393
0.00094397
-0.000190816
0.00102656
-0.000157418
0.00110272
-7.06721e-05
0.00115405
8.1494e-05
0.00117486
0.000285048
0.00117396
0.000534179
0.0011957
0.000850856
0.00128635
0.00122063
0.00146224
0.00169006
0.00190181
0.00194523
0.002162
0.00124616
0.00177211
0.000854197
0.000428164
-0.000716823
0.0116823
-0.000602429
0.00443092
0.000474203
0.0015197
0.00115301
0.0012584
0.00172951
0.000709869
0.002376
-0.000379777
0.00292929
-0.0016962
0.00323424
-0.00266803
0.00328498
-0.0032194
0.0031274
-0.00338665
0.00282581
-0.0032405
0.00244432
-0.00286761
0.00203806
-0.00235405
0.00165547
-0.00178666
0.0013293
-0.00123284
0.00107974
-0.000761322
0.000903515
-0.000432396
0.000753377
-0.000268802
0.000593838
-0.000225946
0.000432701
-0.00022654
0.000293308
-0.000229346
0.000187204
-0.000227564
0.000119079
-0.00022301
9.35962e-05
-0.000217854
0.000109401
-0.000218807
0.000152811
-0.0002335
0.000213075
-0.000254194
0.000288129
-0.00026587
0.000381866
-0.000251154
0.00049926
-0.000188066
0.000628973
-4.82187e-05
0.000759285
0.000154736
0.000899727
0.000393737
0.00108817
0.000662412
0.00137102
0.000937784
0.00181404
0.00124704
0.00248298
0.00127628
0.00302655
0.000702594
0.00304547
0.000835284
0.00353617
0.00260351
0.00959234
0.00328132
0.00375311
0.00344639
0.00135463
0.00390034
0.000804449
0.00459298
1.72224e-05
0.00528536
-0.00107215
0.00556675
-0.0019776
0.00544076
-0.00254203
0.00499557
-0.0027742
0.00433613
-0.00272722
0.00356494
-0.00246931
0.00276834
-0.00207102
0.00200721
-0.00159292
0.00133654
-0.001116
0.000783187
-0.000679487
0.000369858
-0.000347993
9.49199e-05
-0.000157458
-8.80474e-05
-8.58343e-05
-0.000228718
-8.52758e-05
-0.000347901
-0.000107357
-0.000446523
-0.000130724
-0.000522092
-0.000151995
-0.000573391
-0.00017171
-0.000599767
-0.000191478
-0.000604151
-0.000214423
-0.000595386
-0.000242265
-0.000579637
-0.000269942
-0.000556511
-0.000288997
-0.000517993
-0.000289672
-0.000445469
-0.00026059
-0.000308721
-0.000184967
-0.000121292
-3.26928e-05
9.89837e-05
0.000173461
0.000372068
0.000389328
0.000708466
0.000601386
0.0011487
0.000806807
0.00162455
0.000800428
0.00181774
0.000509404
0.00107015
0.00158288
0.00486447
0.010156
0.0139019
0.0122307
0.00302582
0.0113329
0.00170222
0.0105983
0.000751791
0.00970507
-0.000178875
0.00855518
-0.000827712
0.0072558
-0.00124265
0.00590113
-0.00141954
0.00456039
-0.00138648
0.00329681
-0.00120573
0.00216005
-0.000934256
0.0011622
-0.000595065
0.000344954
-0.000298752
-0.000256533
-7.80006e-05
-0.000629978
2.54526e-05
-0.000832032
4.45961e-05
-0.000947339
2.94732e-05
-0.00103326
6.41147e-07
-0.00111033
-3.02819e-05
-0.0011811
-5.99511e-05
-0.00124502
-8.80835e-05
-0.00130228
-0.000114443
-0.00135432
-0.000139444
-0.00140506
-0.000163675
-0.0014618
-0.000185526
-0.00153206
-0.00019969
-0.00162326
-0.000197792
-0.00174453
-0.000168407
-0.00190742
-9.76987e-05
-0.00211938
2.69918e-05
-0.00236731
0.000215238
-0.00267594
0.000482097
-0.00313085
0.000844236
-0.00382756
0.0012981
-0.00483094
0.00181019
-0.00625519
0.00222468
-0.00797066
0.00222487
-0.00746481
0.00107703
-0.00231432
0.00509921
0.00455545
0.00409225
0.00270917
0.00448938
0.000354666
0.00452856
-0.000218052
0.00411962
-0.00041878
0.00343359
-0.00055662
0.00258448
-0.00057043
0.00166484
-0.000466836
0.000748229
-0.000289113
-0.000110365
-7.56615e-05
-0.000806082
0.000100651
-0.00126083
0.000155992
-0.00150607
0.000167246
-0.00162652
0.000145895
-0.00169342
0.000111503
-0.00174103
7.70835e-05
-0.00178574
4.53462e-05
-0.001834
1.79828e-05
-0.00188932
-4.6365e-06
-0.00195186
-2.55378e-05
-0.00202108
-4.52268e-05
-0.00209804
-6.24877e-05
-0.00218421
-7.74989e-05
-0.00228168
-8.80578e-05
-0.00239159
-8.97839e-05
-0.00251284
-7.65415e-05
-0.00264093
-4.03122e-05
-0.0027673
2.86698e-05
-0.00287994
0.000139631
-0.00297647
0.000311767
-0.00306513
0.000570756
-0.00315268
0.00093179
-0.0032367
0.00138212
-0.00327085
0.00184434
-0.00319656
0.00215039
-0.00283398
0.00186229
-0.00156219
-0.000194752
-0.00380169
-0.000408699
0.00502093
0.000864085
0.00143639
0.000820239
0.000398513
0.000542623
5.95637e-05
0.000160124
-3.62816e-05
-0.000365266
-3.12301e-05
-0.000954585
1.88893e-05
-0.00150314
8.17176e-05
-0.00193144
0.000139193
-0.0021899
0.000182796
-0.00229151
0.000202255
-0.00232453
0.000189018
-0.00232064
0.000163354
-0.00230915
0.000134402
-0.00230578
0.000108135
-0.00231445
8.57576e-05
-0.00233492
6.58144e-05
-0.00236452
4.75867e-05
-0.00240024
3.10748e-05
-0.00244229
1.65177e-05
-0.0024904
2.88113e-06
-0.00254404
-8.84607e-06
-0.00260304
-1.85047e-05
-0.0026659
-2.51977e-05
-0.00272881
-2.68656e-05
-0.00278502
-2.03331e-05
-0.00282385
-1.48156e-06
-0.0028336
3.8415e-05
-0.00280175
0.000107781
-0.0027051
0.000215122
-0.00251085
0.000376501
-0.00219162
0.000612562
-0.00173207
0.000922568
-0.00110833
0.00122059
-0.000140962
0.00118303
0.00116038
0.000560947
0.00157309
-0.000607458
-0.00214649
0.000276207
-0.0107875
-0.00572257
-0.00426329
-0.00385071
-0.00378197
-0.00381218
-0.00383963
-0.00381867
-0.00373619
-0.00359733
-0.0034158
-0.00321562
-0.00302938
-0.00286937
-0.00273877
-0.00263479
-0.00255346
-0.0024923
-0.0024495
-0.0024233
-0.00241169
-0.0024137
-0.0024274
-0.0024507
-0.0024806
-0.00251206
-0.00253688
-0.00254271
-0.00250849
-0.00240476
-0.00219352
-0.00182076
-0.00121181
-0.000292738
0.000924398
0.00210388
0.00266109
0.00204964
)
;

boundaryField
{
    floor
    {
        type            calculated;
        value           nonuniform List<scalar> 
29
(
0
0
0
0
0
0
0
0
0
0
0
0
0
0
0
0
0
0
0
0
-3.96648e-06
-1.01088e-05
-1.53112e-05
-1.99669e-05
-1.6616e-06
-2.96746e-06
-8.65027e-06
-9.47777e-06
-8.35692e-06
)
;
    }
    ceiling
    {
        type            calculated;
        value           nonuniform List<scalar> 
43
(
-2.34109e-05
-4.3659e-05
-4.40344e-05
-2.28902e-05
-1.40752e-05
-9.17645e-06
-6.07136e-06
-3.78043e-06
-2.06569e-06
-7.60791e-07
3.27249e-07
1.26599e-06
2.08288e-06
2.77837e-06
3.34448e-06
3.79484e-06
4.1532e-06
4.43532e-06
4.64674e-06
4.79031e-06
4.87295e-06
4.90512e-06
4.89702e-06
4.85497e-06
4.78895e-06
4.7035e-06
4.60088e-06
4.48253e-06
4.34896e-06
4.19888e-06
4.04322e-06
3.88849e-06
3.74027e-06
3.60632e-06
3.50095e-06
3.45379e-06
3.54376e-06
3.73205e-06
3.9944e-06
5.051e-06
1.02795e-05
7.23301e-06
-5.67812e-05
)
;
    }
    sWall
    {
        type            calculated;
        value           uniform -0.000230194;
    }
    nWall
    {
        type            calculated;
        value           nonuniform List<scalar> 6(-4.85654e-05 -5.81042e-05 -6.2537e-05 -7.48216e-05 -8.21144e-05 -0.000101901);
    }
    sideWalls
    {
        type            empty;
        value           nonuniform 0();
    }
    glass1
    {
        type            calculated;
        value           nonuniform List<scalar> 9(-5.73108e-05 -0.000154441 -0.000236303 -0.000306005 -0.000365182 -0.000415054 -0.000459632 -0.000513569 -0.000573931);
    }
    glass2
    {
        type            calculated;
        value           nonuniform List<scalar> 2(-0.000258154 -0.000286022);
    }
    sun
    {
        type            calculated;
        value           uniform 0;
    }
    heatsource1
    {
        type            calculated;
        value           nonuniform List<scalar> 3(2.04186e-07 2.04129e-07 2.04146e-07);
    }
    heatsource2
    {
        type            calculated;
        value           nonuniform List<scalar> 4(5.11924e-08 5.12761e-08 0 0);
    }
    Table_master
    {
        type            calculated;
        value           nonuniform List<scalar> 9(-1.53136e-07 -1.53228e-07 -1.5326e-07 -1.53282e-07 -1.53297e-07 -1.53308e-07 -1.53313e-07 -1.53308e-07 -1.53278e-07);
    }
    Table_slave
    {
        type            calculated;
        value           nonuniform List<scalar> 9(1.53014e-07 1.53033e-07 1.53012e-07 1.52994e-07 1.52987e-07 1.5299e-07 1.53004e-07 1.53046e-07 1.53128e-07);
    }
    inlet
    {
        type            calculated;
        value           uniform -0.00662884;
    }
    outlet
    {
        type            calculated;
        value           nonuniform List<scalar> 2(-2.26023e-05 0.0111074);
    }
}


// ************************************************************************* //
