/*--------------------------------*- C++ -*----------------------------------*\
  =========                 |
  \\      /  F ield         | OpenFOAM: The Open Source CFD Toolbox
   \\    /   O peration     | Website:  https://openfoam.org
    \\  /    A nd           | Version:  6
     \\/     M anipulation  |
\*---------------------------------------------------------------------------*/
FoamFile
{
    version     2.0;
    format      ascii;
    class       volScalarField;
    location    "400";
    object      epsilon;
}
// * * * * * * * * * * * * * * * * * * * * * * * * * * * * * * * * * * * * * //

dimensions      [0 2 -3 0 0 0 0];

internalField   nonuniform List<scalar> 
459
(
0.000120498
0.000128277
7.73164e-05
8.26521e-05
9.18879e-05
0.000102273
0.00011376
0.00012665
0.000141076
0.000155265
0.000167928
0.000177164
0.000180503
0.000175038
0.00015644
6.04912e-06
5.66249e-06
4.35161e-06
4.21645e-06
4.30581e-06
4.53566e-06
5.03317e-06
5.98524e-06
7.46399e-06
9.58426e-06
1.24718e-05
1.62866e-05
2.12292e-05
2.76117e-05
3.58144e-05
4.44579e-05
4.50701e-05
3.55744e-05
2.29084e-05
0.00073263
0.00167949
0.000154536
6.44082e-05
6.32299e-05
6.88351e-05
7.58712e-05
8.40972e-05
9.37767e-05
0.000104489
0.000116018
0.000127699
0.000137769
0.000142965
0.000144042
0.000184673
6.29457e-05
1.53663e-05
2.44911e-05
5.69e-06
4.42864e-06
4.91421e-06
4.51956e-06
3.78927e-06
4.9772e-06
6.94083e-06
9.87968e-06
1.41575e-05
2.02892e-05
2.88676e-05
4.01891e-05
5.25052e-05
5.57231e-05
5.44552e-05
5.52708e-05
4.38964e-05
0.00201528
0.00585512
0.000530824
9.96654e-05
7.26226e-05
7.57196e-05
8.33111e-05
9.26563e-05
0.000103523
0.000115706
0.000128702
0.000141678
0.000152789
0.000158898
0.000158102
0.000158199
0.000187484
4.41116e-05
6.78848e-05
2.72849e-05
2.49436e-05
2.75787e-05
2.78235e-05
5.55533e-06
7.47058e-06
1.12493e-05
1.69658e-05
2.5479e-05
3.82296e-05
5.73514e-05
8.60567e-05
0.000130299
9.43185e-05
0.000102988
0.000122488
0.000169532
0.00408836
0.0127713
0.00151227
0.000203856
0.000100007
9.41472e-05
0.000101463
0.000112351
0.000125158
0.00013958
0.000154569
0.000169089
0.000181057
0.000187183
0.000185113
0.000178946
0.000185612
0.000234256
0.000111162
7.74364e-05
7.61064e-05
8.65406e-05
0.000101868
0.000127573
0.000174501
0.000174417
0.000172418
0.000168922
0.000165872
0.000166193
0.000174191
0.000196333
0.000243129
0.000143526
0.000169014
0.000216512
0.000347164
0.00689173
0.0212169
0.00351909
0.000531912
0.000186576
0.000139697
0.000138008
0.000147634
0.000161939
0.000179357
0.000198171
0.000217753
0.000235999
0.000248287
0.000248332
0.000231845
0.000201772
0.000164021
0.000115421
9.58173e-05
9.54737e-05
0.000102183
0.000111348
0.000120258
0.000126431
0.000128174
0.000128717
0.00012894
0.000129882
0.000132988
0.000140042
0.000152732
0.000171648
0.000194585
0.000235952
0.000292557
0.000364556
0.000536678
0.000424486
0.00027015
0.0103637
0.0281059
0.00702579
0.0016569
0.000587796
0.000315035
0.000245853
0.000229693
0.000231988
0.000243228
0.000259464
0.000281338
0.000307839
0.000334204
0.000351761
0.000350055
0.000321908
0.000270736
0.000212964
0.000175566
0.000161357
0.000161348
0.000167597
0.000174143
0.000178836
0.000181073
0.000181725
0.00018128
0.000180368
0.000180187
0.000182851
0.000191658
0.000211059
0.000246158
0.00030246
0.000380942
0.000469513
0.000544093
0.000545426
0.000261341
0.0139962
0.0302153
0.0126782
0.00525874
0.0025009
0.00116613
0.000697087
0.000507644
0.000418684
0.000375373
0.000356583
0.000358227
0.000377863
0.000410045
0.000444455
0.000466082
0.00045989
0.000422006
0.000364994
0.000311803
0.000278808
0.000264225
0.000259794
0.000260696
0.000263142
0.000265238
0.000266451
0.000266476
0.000265224
0.000263181
0.00026198
0.000265245
0.000279552
0.000314864
0.000382817
0.000490137
0.000630567
0.000782291
0.000873133
0.000578838
0.0140924
0.0317311
0.0214073
0.0155284
0.00902298
0.00478682
0.00261349
0.00154718
0.00100275
0.000715368
0.000566268
0.000490723
0.00046484
0.000475745
0.000510952
0.000552835
0.000574408
0.000563815
0.000525027
0.000476457
0.000435014
0.000406497
0.00038968
0.000381384
0.000378035
0.000377065
0.000376972
0.000376658
0.000375299
0.000372597
0.00036933
0.000368179
0.000374987
0.000401516
0.000470664
0.000613325
0.000849267
0.00119771
0.0016524
0.00129157
0.0121795
0.018734
0.0614249
0.0438283
0.0233572
0.0119855
0.00631187
0.00351999
0.00211454
0.0013729
0.000963213
0.000739436
0.000628311
0.000589438
0.000598356
0.000633834
0.000671381
0.000691156
0.000685195
0.000660441
0.000629284
0.00060027
0.000576997
0.000560067
0.000548291
0.000540138
0.000534274
0.000529433
0.000524353
0.00051797
0.000509908
0.000501187
0.000494929
0.000497263
0.000519254
0.000577131
0.000675175
0.0008108
0.00185533
0.00141828
0.188368
0.155936
0.0296131
0.0119958
0.00632716
0.00375167
0.0024324
0.00171165
0.00130167
0.00106415
0.000929269
0.000861783
0.000841988
0.000855736
0.000888311
0.000923639
0.000948006
0.000955495
0.000948206
0.000931607
0.000910885
0.000889657
0.000869217
0.000850313
0.000833171
0.000817525
0.000802588
0.000787149
0.000769911
0.000750037
0.000727727
0.000704607
0.000683918
0.00066937
0.000659233
0.000656085
0.000820823
0.00116038
0.12094
0.0809043
0.0271609
0.0119006
0.00645395
0.00407698
0.00290012
0.00227646
0.00194082
0.00176962
0.00169727
0.0016847
0.00170663
0.0017453
0.00178567
0.00181458
0.00182386
0.00181288
0.00178636
0.00175056
0.00171105
0.00167175
0.0016325
0.00159388
0.00155614
0.0015189
0.00148101
0.00144065
0.00139568
0.00134434
0.00128576
0.00122035
0.0011495
0.00107345
0.00098793
0.000862192
0.00101804
0.00117897
0.00134747
0.00347962
0.0416084
0.0309284
0.0180556
0.0106903
0.00676135
0.00457947
0.00329733
0.00250786
0.00200736
0.00168765
0.00148702
0.00136752
0.0013043
0.00127987
0.00128078
0.00129542
0.00131342
0.00132655
0.00133007
0.00132276
0.00130579
0.00128165
0.0012563
0.00122969
0.0012023
0.00117457
0.00114657
0.00111775
0.00108686
0.00105195
0.00101058
0.000960052
0.000897631
0.000820229
0.000723177
0.000598145
0.000521048
0.000671883
)
;

boundaryField
{
    floor
    {
        Cmu             0.09;
        kappa           0.41;
        E               9.8;
        type            epsilonWallFunction;
        value           nonuniform List<scalar> 
29
(
0.00015644
6.04912e-06
5.66249e-06
4.35161e-06
4.21645e-06
4.30581e-06
4.53566e-06
5.03317e-06
5.98524e-06
7.46399e-06
9.58426e-06
1.24718e-05
1.62866e-05
2.12292e-05
2.76117e-05
3.58144e-05
4.44579e-05
4.50701e-05
3.55744e-05
2.29084e-05
2.29084e-05
4.38964e-05
0.000169532
0.000347164
0.00015644
6.04912e-06
1.53663e-05
4.41116e-05
0.000234256
)
;
    }
    ceiling
    {
        Cmu             0.09;
        kappa           0.41;
        E               9.8;
        type            epsilonWallFunction;
        value           nonuniform List<scalar> 
43
(
0.00134747
0.00347962
0.0416084
0.0309284
0.0180556
0.0106903
0.00676135
0.00457947
0.00329733
0.00250786
0.00200736
0.00168765
0.00148702
0.00136752
0.0013043
0.00127987
0.00128078
0.00129542
0.00131342
0.00132655
0.00133007
0.00132276
0.00130579
0.00128165
0.0012563
0.00122969
0.0012023
0.00117457
0.00114657
0.00111775
0.00108686
0.00105195
0.00101058
0.000960052
0.000897631
0.000820229
0.000723177
0.000598145
0.000521048
0.000671883
0.0121795
0.018734
0.12094
)
;
    }
    sWall
    {
        Cmu             0.09;
        kappa           0.41;
        E               9.8;
        type            epsilonWallFunction;
        value           uniform 0.00134747;
    }
    nWall
    {
        Cmu             0.09;
        kappa           0.41;
        E               9.8;
        type            epsilonWallFunction;
        value           nonuniform List<scalar> 6(0.00027015 0.000261341 0.000578838 0.00116038 0.00117897 0.000671883);
    }
    sideWalls
    {
        type            empty;
    }
    glass1
    {
        Cmu             0.09;
        kappa           0.41;
        E               9.8;
        type            epsilonWallFunction;
        value           nonuniform List<scalar> 9(0.000120498 0.00073263 0.00201528 0.00408836 0.00689173 0.0103637 0.0139962 0.0140924 0.0121795);
    }
    glass2
    {
        Cmu             0.09;
        kappa           0.41;
        E               9.8;
        type            epsilonWallFunction;
        value           nonuniform List<scalar> 2(0.00129157 0.00141828);
    }
    sun
    {
        Cmu             0.09;
        kappa           0.41;
        E               9.8;
        type            epsilonWallFunction;
        value           nonuniform List<scalar> 
14
(
0.000120498
0.000128277
7.73164e-05
8.26521e-05
9.18879e-05
0.000102273
0.00011376
0.00012665
0.000141076
0.000155265
0.000167928
0.000177164
0.000180503
0.000175038
)
;
    }
    heatsource1
    {
        Cmu             0.09;
        kappa           0.41;
        E               9.8;
        type            epsilonWallFunction;
        value           nonuniform List<scalar> 3(0.000536678 0.000424486 0.00027015);
    }
    heatsource2
    {
        Cmu             0.09;
        kappa           0.41;
        E               9.8;
        type            epsilonWallFunction;
        value           nonuniform List<scalar> 4(0.000184673 6.29457e-05 6.29457e-05 0.000187484);
    }
    Table_master
    {
        Cmu             0.09;
        kappa           0.41;
        E               9.8;
        type            epsilonWallFunction;
        value           nonuniform List<scalar> 9(5.55533e-06 7.47058e-06 1.12493e-05 1.69658e-05 2.5479e-05 3.82296e-05 5.73514e-05 8.60567e-05 0.000130299);
    }
    Table_slave
    {
        Cmu             0.09;
        kappa           0.41;
        E               9.8;
        type            epsilonWallFunction;
        value           nonuniform List<scalar> 9(0.000174501 0.000174417 0.000172418 0.000168922 0.000165872 0.000166193 0.000174191 0.000196333 0.000243129);
    }
    inlet
    {
        type            turbulentMixingLengthDissipationRateInlet;
        mixingLength    0.01;
        phi             phi;
        k               k;
        value           uniform 0.188368;
    }
    outlet
    {
        type            zeroGradient;
    }
}


// ************************************************************************* //
