/*--------------------------------*- C++ -*----------------------------------*\
  =========                 |
  \\      /  F ield         | OpenFOAM: The Open Source CFD Toolbox
   \\    /   O peration     | Website:  https://openfoam.org
    \\  /    A nd           | Version:  6
     \\/     M anipulation  |
\*---------------------------------------------------------------------------*/
FoamFile
{
    version     2.0;
    format      ascii;
    class       surfaceScalarField;
    location    "100";
    object      phi;
}
// * * * * * * * * * * * * * * * * * * * * * * * * * * * * * * * * * * * * * //

dimensions      [1 0 -1 0 0 0 0];

internalField   nonuniform List<scalar> 
852
(
-0.00325016
0.00330505
-0.00460271
0.00135246
-0.00532007
0.000717282
-0.00547937
0.000159221
-0.00500185
-0.00047759
-0.00384138
-0.00116054
-0.00212658
-0.00171487
-0.000163978
-0.00196266
0.00143734
-0.00160137
0.00256178
-0.00112449
0.0032178
-0.000656072
0.0034206
-0.000202862
0.0031448
0.000275731
0.002226
0.000918734
0.00222758
-0.00104294
0.00104425
-0.0012705
0.000227354
-0.000693988
-0.000576702
0.00016638
-0.000860545
0.000955352
-0.000789142
0.00155608
-0.000600902
0.00191136
-0.000355444
0.0020847
-0.000173515
0.00218742
-0.000102888
0.00225986
-7.26123e-05
0.00231122
-5.15341e-05
0.0023455
-3.44452e-05
0.00236048
-1.51587e-05
0.00234134
1.89693e-05
0.00225106
9.01013e-05
0.00202575
0.000225128
0.00161939
0.000406173
0.000994078
0.000625122
0.00099541
-0.00232191
0.00577675
-0.0035227
0.00255316
-0.004248
0.0014425
-0.0044375
0.00034864
-0.00400842
-0.00090674
-0.00296598
-0.00220305
-0.00154434
-0.00313656
-9.1146e-05
-0.0034159
0.00118619
-0.00287875
0.00213298
-0.00207133
0.00273201
-0.00125515
0.00300804
-0.000478946
0.00300891
0.000274808
0.00289014
0.00103744
0.00334717
0.00177048
0.00165487
0.00169218
0.00165473
-0.000249391
0.00129803
0.00015037
-0.000172617
0.000770787
-0.0011973
0.00126122
-0.00135114
0.00167632
-0.00120441
0.00199222
-0.000916971
0.00207092
-0.000434312
0.00208971
-0.000192478
0.00210914
-0.000122493
0.0021256
-8.92439e-05
0.00213748
-6.35812e-05
0.00214615
-4.32873e-05
0.002151
-2.01867e-05
0.00214506
2.4737e-05
0.00208627
0.000148715
0.00183827
0.000472947
0.0014112
0.00083306
0.000823815
0.00121231
0.00182341
-0.00162782
0.00763571
-0.00261386
0.00353911
-0.00326257
0.00209113
-0.00343441
0.000520389
-0.00300338
-0.00133785
-0.00202005
-0.00318645
-0.000817876
-0.00433879
0.00028656
-0.00452038
0.00124668
-0.00383892
0.00198602
-0.00281071
0.00246882
-0.001738
0.00272712
-0.000737293
0.00282759
0.000174285
0.0028512
0.00101376
0.00281216
0.00180945
0.0020906
0.00241366
0.00374525
0.00108562
0.000219941
0.00186838
-0.000955562
0.00210879
-0.00143786
0.00227269
-0.00151519
0.00241388
-0.00134576
0.00261508
-0.00111834
0.00218074
0.00198824
0.00186573
0.00177646
0.00171286
0.00166955
0.00164934
0.00167405
0.00182273
0.00150037
0.000795109
0.00114125
0.00119199
0.000657301
0.00169604
0.00248763
-0.00112978
0.00906694
-0.00187551
0.00428474
-0.00231777
0.00253329
-0.00235436
0.000556889
-0.00180958
-0.00188272
-0.000875295
-0.0041208
6.66318e-05
-0.00528077
0.00084816
-0.00530196
0.00149969
-0.0044905
0.0019863
-0.00329737
0.00229175
-0.0020435
0.00245644
-0.000902037
0.00254689
8.37753e-05
0.0026306
0.000929994
0.00278842
0.00165156
0.00309314
0.00210886
0.00454718
0.00229113
0.00358271
0.00097278
0.00376221
4.03591e-05
0.00352825
-0.00072171
0.0032513
-0.00116102
0.00300547
-0.00126951
0.00280246
-0.00114291
0.00252982
-0.000845878
0.0028534
-0.000323932
0.00293626
-8.32095e-05
0.00290793
2.79635e-05
0.00280414
0.00010343
0.00263719
0.000166578
0.00241094
0.000225885
0.00211775
0.000292816
0.00173134
0.00038605
0.00118687
0.00054411
0.00105864
0.000923118
0.000849046
0.00140137
0.000574631
0.00197024
0.00307171
-0.000776464
0.0102054
-0.00131459
0.00482277
-0.00141826
0.00263686
-0.00108036
0.000218889
-0.000289636
-0.00267353
0.000496285
-0.00490677
0.00109488
-0.00587941
0.00151914
-0.00572627
0.00182089
-0.00479231
0.00199185
-0.00346839
0.00205241
-0.00210412
0.00206242
-0.000912115
0.00209098
5.51493e-05
0.00220966
0.000811234
0.00249675
0.00136439
0.00295594
0.00164959
0.00360641
0.00164056
0.00369813
0.000880974
0.0036967
4.16833e-05
0.00349565
-0.000520781
0.00317264
-0.000838155
0.00282672
-0.000923758
0.00250697
-0.000823352
0.00224484
-0.000583968
0.00217024
-0.000249563
0.00207764
9.14097e-06
0.00193951
0.000165842
0.00178171
0.000260969
0.00161427
0.000333764
0.00143645
0.000403448
0.00124417
0.000484839
0.00103465
0.000595325
0.00083006
0.000748461
0.000739167
0.00101378
0.000757119
0.00138318
0.000841063
0.00188606
0.00144801
0.00246451
-0.000266218
0.00171372
-0.000847518
0.000580473
-0.000815827
-0.000600096
0.0112197
-0.000866444
0.00508901
-0.000286477
0.00205679
0.000639765
-0.000707457
0.00150928
-0.00354311
0.0020168
-0.00541433
0.00223479
-0.00609744
0.00223361
-0.00572514
0.00209293
-0.00465169
0.00186583
-0.00324136
0.00161436
-0.00185273
0.00141944
-0.000717288
0.0013499
0.000124594
0.00145055
0.000710484
0.00172561
0.00108923
0.00212496
0.00125014
0.00261575
0.00114966
0.00286536
0.000631246
0.00283113
7.57798e-05
0.00263247
-0.000322278
0.00233438
-0.000540253
0.00199958
-0.000589179
0.00167482
-0.00049884
0.00139717
-0.000306589
0.00119975
-5.24372e-05
0.00104674
0.000161856
0.000914609
0.000297668
0.000793052
0.000382221
0.000681374
0.00044514
0.000581504
0.000503023
0.000498939
0.000567117
0.000445703
0.000648287
0.000439272
0.000754632
0.000538392
0.000914407
0.000779296
0.00114204
0.00114916
0.00151594
0.00168388
0.00192954
0.00192951
0.00146776
0.00161025
0.0008993
0.000836374
-0.000396175
0.0120806
5.20178e-06
0.00468753
0.00160317
0.00045872
0.00286824
-0.00197263
0.00354744
-0.00422236
0.00369376
-0.00556067
0.00340024
-0.00580394
0.00282327
-0.00514823
0.00213105
-0.00395956
0.00143558
-0.002546
0.000851829
-0.0012691
0.000476497
-0.000342078
0.00035566
0.000245301
0.000461091
0.000604919
0.000728334
0.000821846
0.00108629
0.000892039
0.00145844
0.000777359
0.00164089
0.000448628
0.00161026
0.000106212
0.00143566
-0.000147889
0.00117379
-0.000278636
0.000872841
-0.000288511
0.000574346
-0.000200654
0.000311003
-4.35771e-05
0.000120166
0.000138056
-6.04998e-07
0.000282275
-8.1598e-05
0.000378309
-0.00013988
0.000440155
-0.000178598
0.000483518
-0.000192703
0.0005168
-0.000170541
0.000544643
-9.32072e-05
0.000570659
6.0366e-05
0.000600782
0.000313474
0.000661045
0.000669713
0.00078556
0.00113605
0.00104938
0.00176904
0.00129629
0.00227078
0.000965696
0.00228298
0.000886683
0.00316833
0.00323012
0.00937322
0.00432776
0.00358979
0.00508667
-0.000300305
0.00592345
-0.00280948
0.00604853
-0.00434745
0.00542685
-0.00493898
0.00430423
-0.00468135
0.00294679
-0.00379086
0.00162615
-0.00263904
0.000475676
-0.00139567
-0.000294511
-0.000499067
-0.000664902
2.81556e-05
-0.000732899
0.000313127
-0.000612316
0.000484157
-0.000377095
0.000586441
-9.11757e-05
0.000605925
0.000164093
0.000521878
0.000275078
0.000337409
0.000236983
0.000144047
8.42529e-05
4.55855e-06
-0.000139775
-5.4925e-05
-0.000390491
-3.81426e-05
-0.000627856
3.6342e-05
-0.000812456
0.000140635
-0.00092123
0.000246431
-0.00097252
0.000333168
-0.000988998
0.000394395
-0.000982117
0.000432891
-0.000952366
0.000453397
-0.000893572
0.000457654
-0.000793846
0.000444587
-0.000636222
0.000412733
-0.000405068
0.000369357
-9.37298e-05
0.000349468
0.00028305
0.000408542
0.000741848
0.000590364
0.00127816
0.000759743
0.00150717
0.000736359
0.000666532
0.0017269
0.00402405
0.00995204
0.0135363
0.0118379
0.00139802
0.010306
-0.00127762
0.00843222
-0.00247357
0.00627953
-0.00278626
0.00403329
-0.00243516
0.00186632
-0.00162402
7.37522e-05
-0.000846647
-0.00110755
-0.000214559
-0.00167145
6.46386e-05
-0.00185762
0.000214122
-0.00184408
0.000299366
-0.00172417
0.000364021
-0.0015457
0.00040772
-0.0013549
0.000414867
-0.00120598
0.000372666
-0.00115364
0.00028476
-0.00120015
0.000190225
-0.00131826
0.00012231
-0.00147183
9.82661e-05
-0.00162613
0.000115752
-0.00174958
0.000159372
-0.00182483
0.00021545
-0.00185126
0.000272428
-0.0018393
0.000320777
-0.00180183
0.0003565
-0.00174915
0.00037981
-0.00168936
0.000393223
-0.00163267
0.000400601
-0.00159697
0.000408549
-0.00161414
0.000429601
-0.001732
0.000486946
-0.00200225
0.00061945
-0.00247256
0.000878564
-0.00319017
0.00130765
-0.00428729
0.00185648
-0.00583723
0.00228586
-0.00605388
0.0019431
-0.00184325
0.00549397
0.0027818
0.00391098
0.000305471
0.00291094
-0.0014735
0.00146208
-0.00133747
-0.00020278
-0.000770475
-0.0016125
-0.000214493
-0.00249779
3.84462e-05
-0.0028913
0.00017873
-0.00303401
0.000207114
-0.00303561
0.000215471
-0.00296792
0.000231404
-0.00286052
0.000256336
-0.00273475
0.000281644
-0.00261516
0.000294944
-0.00252943
0.000286582
-0.00250084
0.000255796
-0.00252772
0.000216703
-0.00259086
0.000185037
-0.00266359
0.000170555
-0.00272222
0.000173938
-0.00275317
0.000189874
-0.00275103
0.00021285
-0.00271679
0.000237743
-0.00265632
0.000259865
-0.00257722
0.000276971
-0.00248772
0.000289897
-0.00239743
0.000302541
-0.00231861
0.000321404
-0.00226543
0.000355013
-0.00225003
0.000413853
-0.00227648
0.000513058
-0.00233566
0.000678279
-0.00240124
0.00094377
-0.0024215
0.00132751
-0.00235349
0.00178803
-0.0020106
0.00194251
-0.000643029
0.000575057
-0.00244894
0.000224515
0.00263147
9.3514e-08
0.00053013
-0.00149363
2.03667e-05
-0.00282443
-6.76174e-06
-0.0037031
0.000108023
-0.0041137
0.000195893
-0.00427469
0.000199197
-0.00428135
0.00018514
-0.0042331
0.000158588
-0.00415876
0.000140849
-0.00406638
0.000138704
-0.00395976
0.000149387
-0.00384468
0.000166214
-0.00373174
0.000181631
-0.00363482
0.000189275
-0.00356584
0.000186405
-0.00352587
0.00017631
-0.0035059
0.000164634
-0.00349203
0.000156242
-0.00347183
0.000153285
-0.00343815
0.000155747
-0.00338856
0.000162817
-0.0033241
0.000172842
-0.0032483
0.000183624
-0.0031654
0.000193654
-0.00307878
0.000202859
-0.00298948
0.000212831
-0.0028952
0.00022673
-0.00278958
0.000248999
-0.00266124
0.000285122
-0.0024914
0.00034281
-0.00224954
0.000436005
-0.00188954
0.000583343
-0.00132628
0.000763786
-0.000372132
0.000833409
0.000959663
0.000610222
0.00171135
-0.000177117
-0.000698179
-0.00688078
-0.00942761
-0.00677705
-0.00625081
-0.00624365
-0.00626808
-0.00618081
-0.00600816
-0.00583407
-0.00567528
-0.00554386
-0.00543074
-0.0053202
-0.00519939
-0.00506222
-0.00491023
-0.00475133
-0.00459615
-0.00445201
-0.00432045
-0.00419813
-0.00407949
-0.003959
-0.00383198
-0.00369544
-0.00354865
-0.00339238
-0.00322753
-0.00305335
-0.00286591
-0.0026568
-0.00241202
-0.00210983
-0.00171444
-0.00117142
-0.000447477
0.0003464
0.000916136
0.00069663
)
;

boundaryField
{
    floor
    {
        type            calculated;
        value           nonuniform List<scalar> 
29
(
0
0
0
0
0
0
0
0
0
0
0
0
0
0
0
0
0
0
0
0
-1.54468e-06
-4.40637e-06
-7.14207e-06
-9.69116e-06
-1.65908e-06
-1.55609e-06
-4.65634e-06
-7.79948e-06
-8.39713e-06
)
;
    }
    ceiling
    {
        type            calculated;
        value           nonuniform List<scalar> 
43
(
-2.02917e-05
-2.00353e-05
-1.94337e-05
3.6997e-06
1.30207e-05
1.74772e-05
2.05261e-05
2.29958e-05
2.48526e-05
2.60756e-05
2.68804e-05
2.74236e-05
2.78392e-05
2.82362e-05
2.86962e-05
2.92747e-05
2.9997e-05
3.08485e-05
3.17703e-05
3.26821e-05
3.35148e-05
3.42349e-05
3.48483e-05
3.5388e-05
3.58989e-05
3.64225e-05
3.69862e-05
3.75978e-05
3.82435e-05
3.88871e-05
3.94724e-05
3.993e-05
4.01854e-05
4.01713e-05
3.98643e-05
3.93707e-05
3.90504e-05
3.99886e-05
4.19039e-05
4.45016e-05
7.76742e-06
5.40883e-06
-7.41159e-05
)
;
    }
    sWall
    {
        type            calculated;
        value           uniform -0.000232877;
    }
    nWall
    {
        type            calculated;
        value           nonuniform List<scalar> 6(-3.25299e-05 -4.24792e-05 -4.94758e-05 -3.77978e-05 -3.98813e-05 -4.64309e-05);
    }
    sideWalls
    {
        type            empty;
        value           nonuniform 0();
    }
    glass1
    {
        type            calculated;
        value           nonuniform List<scalar> 9(-5.498e-05 -0.000149873 -0.000231229 -0.000301532 -0.000362099 -0.000414324 -0.000464776 -0.000522842 -0.000586677);
    }
    glass2
    {
        type            calculated;
        value           nonuniform List<scalar> 2(-0.000189689 -0.000187037);
    }
    sun
    {
        type            calculated;
        value           uniform 0;
    }
    heatsource1
    {
        type            calculated;
        value           nonuniform List<scalar> 3(2.02641e-07 2.02113e-07 2.02281e-07);
    }
    heatsource2
    {
        type            calculated;
        value           nonuniform List<scalar> 4(5.08907e-08 5.11063e-08 0 0);
    }
    Table_master
    {
        type            calculated;
        value           nonuniform List<scalar> 9(-1.52155e-07 -1.52372e-07 -1.5243e-07 -1.52458e-07 -1.5247e-07 -1.52471e-07 -1.52462e-07 -1.52436e-07 -1.52359e-07);
    }
    Table_slave
    {
        type            calculated;
        value           nonuniform List<scalar> 9(1.51782e-07 1.51813e-07 1.51781e-07 1.51759e-07 1.51764e-07 1.51791e-07 1.51839e-07 1.51911e-07 1.52019e-07);
    }
    inlet
    {
        type            calculated;
        value           uniform -0.00687769;
    }
    outlet
    {
        type            calculated;
        value           nonuniform List<scalar> 2(0.00713365 0.00256654);
    }
}


// ************************************************************************* //
