/*--------------------------------*- C++ -*----------------------------------*\
  =========                 |
  \\      /  F ield         | OpenFOAM: The Open Source CFD Toolbox
   \\    /   O peration     | Website:  https://openfoam.org
    \\  /    A nd           | Version:  6
     \\/     M anipulation  |
\*---------------------------------------------------------------------------*/
FoamFile
{
    version     2.0;
    format      ascii;
    class       volScalarField;
    location    "800";
    object      epsilon;
}
// * * * * * * * * * * * * * * * * * * * * * * * * * * * * * * * * * * * * * //

dimensions      [0 2 -3 0 0 0 0];

internalField   nonuniform List<scalar> 
459
(
0.000455914
0.000594067
0.000631371
0.000727638
0.000825814
0.000927212
0.00103762
0.00114398
0.00121773
0.00123775
0.00118828
0.00106615
0.000880388
0.000655973
0.000440315
3.72761e-05
6.24833e-05
9.15857e-05
9.81407e-05
9.13144e-05
8.08863e-05
6.65536e-05
5.36312e-05
4.34505e-05
3.56201e-05
2.95661e-05
2.48329e-05
2.10845e-05
1.80849e-05
1.56068e-05
1.34632e-05
1.14892e-05
1.03521e-05
7.94013e-06
0.00113494
0.0016313
0.00055742
0.000541645
0.000568661
0.000616289
0.000689474
0.000780231
0.000860257
0.000901264
0.000884868
0.000810623
0.000690148
0.000547773
0.000432264
0.00050645
0.000147998
4.05771e-05
9.33824e-05
0.000108582
0.000104197
9.26526e-05
8.04123e-05
7.50122e-05
6.04071e-05
4.72839e-05
3.69993e-05
2.91799e-05
2.3263e-05
1.87654e-05
1.5359e-05
1.28425e-05
1.1252e-05
1.05261e-05
2.63247e-05
1.81103e-05
0.00204668
0.00394098
0.00067859
0.000515183
0.000543049
0.000616681
0.000727008
0.000858376
0.000967356
0.00102066
0.00100545
0.000929541
0.000805057
0.000660356
0.000537508
0.000476473
0.000591879
0.000243343
0.000203509
0.00016882
0.000139734
0.000115571
0.000101138
0.000190755
0.000129513
9.09061e-05
6.60421e-05
4.95495e-05
3.8276e-05
3.03621e-05
2.47219e-05
2.07282e-05
1.57135e-05
1.32002e-05
5.06256e-05
2.88356e-05
0.00328421
0.00812694
0.00105459
0.000520546
0.000534144
0.000640531
0.000812023
0.00100192
0.00113153
0.00117987
0.00114905
0.00105575
0.000905602
0.000747784
0.000612881
0.000528232
0.000512588
0.000923919
0.00054204
0.000339428
0.000235441
0.000175277
0.000137178
0.000119791
0.000279397
0.000210283
0.000168345
0.000140283
0.000118998
0.000101496
8.63656e-05
7.22056e-05
5.79146e-05
3.39165e-05
2.20131e-05
8.71943e-05
3.97797e-05
0.00497447
0.0144752
0.00205672
0.00061037
0.000548214
0.000700892
0.00101887
0.0012737
0.00139354
0.00140879
0.00134175
0.00120869
0.00102569
0.000824621
0.000639071
0.000494353
0.000401759
0.000367623
0.000307544
0.000251602
0.00020562
0.000168218
0.000137922
0.000115958
0.000111285
0.000102545
9.40688e-05
8.58835e-05
7.75363e-05
6.89398e-05
6.04334e-05
5.23914e-05
4.50408e-05
3.55564e-05
2.73213e-05
6.13964e-05
4.68924e-05
7.55172e-05
0.000131629
0.000187172
0.00731802
0.0215385
0.00460892
0.00113381
0.000784847
0.00100969
0.0015633
0.00176812
0.00180076
0.00174171
0.0016166
0.00142708
0.00118429
0.000919968
0.000675455
0.00048508
0.000362139
0.000297808
0.000259068
0.000225693
0.000192553
0.00016143
0.000134438
0.000113768
0.000101874
9.55353e-05
9.13856e-05
8.72904e-05
8.21206e-05
7.50076e-05
6.5641e-05
5.58514e-05
4.6921e-05
3.90009e-05
3.4332e-05
4.61474e-05
4.92532e-05
5.90669e-05
0.000243656
0.000215401
0.0100771
0.0257969
0.00956194
0.00368505
0.00251134
0.00266664
0.00271539
0.00259624
0.00241623
0.00221679
0.00198778
0.00170707
0.00137672
0.00103094
0.000718668
0.000485245
0.000343052
0.000271971
0.000234428
0.000204208
0.000174209
0.000146557
0.000123934
0.0001082
0.000100253
9.81573e-05
9.87233e-05
0.000100068
0.000101137
0.000100526
9.52988e-05
8.53587e-05
7.52757e-05
6.68912e-05
6.46575e-05
7.31354e-05
9.18165e-05
0.000139265
0.00033447
0.000323072
0.0107381
0.028467
0.0155947
0.0100933
0.0073846
0.00568381
0.00451203
0.00373696
0.00321365
0.00281613
0.00244235
0.0020286
0.00157263
0.0011186
0.000722296
0.000450117
0.000301148
0.000232763
0.000197997
0.000170076
0.00014483
0.000124169
0.000109579
0.000101596
9.98767e-05
0.000103045
0.000109656
0.000119247
0.000132011
0.000148088
0.000166851
0.000183097
0.000195576
0.000219965
0.000268091
0.000395926
0.000685915
0.00125163
0.00417246
0.00110733
0.0099706
0.016887
0.0135312
0.010251
0.00786855
0.00626006
0.00518284
0.0044542
0.00392085
0.00344024
0.00291186
0.00229462
0.00164692
0.00105398
0.000556779
0.000322005
0.000222492
0.000176508
0.000149683
0.000129166
0.000112595
0.000100551
9.36601e-05
9.18878e-05
9.48107e-05
0.000101917
0.000113114
0.000129081
0.000151255
0.000181792
0.000223627
0.000280641
0.000359752
0.000473722
0.000640947
0.000869156
0.00113851
0.00139295
0.00159343
0.000881181
0.0048005
0.00647952
0.00674869
0.0063006
0.00568924
0.00508909
0.00442787
0.00364833
0.0027651
0.00174431
0.000954058
0.000519221
0.000293619
0.000191845
0.000143685
0.000117742
0.000100829
8.84985e-05
7.98919e-05
7.48409e-05
7.30464e-05
7.42386e-05
7.82134e-05
8.49878e-05
9.49622e-05
0.000108981
0.000128387
0.000155211
0.000192562
0.000245381
0.000319236
0.000421796
0.000560098
0.000730907
0.000910939
0.00106063
0.000990633
0.000446871
0.00331107
0.00672925
0.00680082
0.00547757
0.00457575
0.00379346
0.00285412
0.00194471
0.00122353
0.00072004
0.000415434
0.000249173
0.000164951
0.00012379
0.000102246
8.96937e-05
8.16377e-05
7.64197e-05
7.34885e-05
7.25665e-05
7.34337e-05
7.59717e-05
8.01873e-05
8.63129e-05
9.48601e-05
0.000106623
0.000122723
0.000144908
0.000175749
0.000218626
0.000278091
0.000358958
0.000462832
0.000582261
0.000695431
0.00083072
0.00046422
0.00047736
0.00212703
0.00248317
0.0027679
0.00308766
0.00234714
0.00187557
0.00169899
0.00146395
0.00117059
0.000869121
0.000612452
0.000421123
0.000293134
0.000214036
0.000166072
0.000135177
0.000113573
9.76545e-05
8.59855e-05
7.79902e-05
7.32283e-05
7.12141e-05
7.15251e-05
7.39296e-05
7.83978e-05
8.51621e-05
9.45492e-05
0.000106866
0.000122961
0.000144127
0.000171227
0.000205668
0.000249433
0.000304911
0.000374
0.000458916
0.000470872
0.000336615
0.000287208
0.000477401
)
;

boundaryField
{
    floor
    {
        Cmu             0.09;
        kappa           0.41;
        E               9.8;
        type            epsilonWallFunction;
        value           nonuniform List<scalar> 
29
(
0.000440315
3.72761e-05
6.24833e-05
9.15857e-05
9.81407e-05
9.13144e-05
8.08863e-05
6.65536e-05
5.36312e-05
4.34505e-05
3.56201e-05
2.95661e-05
2.48329e-05
2.10845e-05
1.80849e-05
1.56068e-05
1.34632e-05
1.14892e-05
1.03521e-05
7.94013e-06
7.94013e-06
1.81103e-05
2.88356e-05
3.97797e-05
0.000440315
3.72761e-05
4.05771e-05
0.000243343
0.000923919
)
;
    }
    ceiling
    {
        Cmu             0.09;
        kappa           0.41;
        E               9.8;
        type            epsilonWallFunction;
        value           nonuniform List<scalar> 
43
(
0.00212703
0.00248317
0.0027679
0.00308766
0.00234714
0.00187557
0.00169899
0.00146395
0.00117059
0.000869121
0.000612452
0.000421123
0.000293134
0.000214036
0.000166072
0.000135177
0.000113573
9.76545e-05
8.59855e-05
7.79902e-05
7.32283e-05
7.12141e-05
7.15251e-05
7.39296e-05
7.83978e-05
8.51621e-05
9.45492e-05
0.000106866
0.000122961
0.000144127
0.000171227
0.000205668
0.000249433
0.000304911
0.000374
0.000458916
0.000470872
0.000336615
0.000287208
0.000477401
0.0099706
0.016887
0.00331107
)
;
    }
    sWall
    {
        Cmu             0.09;
        kappa           0.41;
        E               9.8;
        type            epsilonWallFunction;
        value           uniform 0.00212703;
    }
    nWall
    {
        Cmu             0.09;
        kappa           0.41;
        E               9.8;
        type            epsilonWallFunction;
        value           nonuniform List<scalar> 6(0.000187172 0.000215401 0.000323072 0.000446871 0.00047736 0.000477401);
    }
    sideWalls
    {
        type            empty;
    }
    glass1
    {
        Cmu             0.09;
        kappa           0.41;
        E               9.8;
        type            epsilonWallFunction;
        value           nonuniform List<scalar> 9(0.000455914 0.00113494 0.00204668 0.00328421 0.00497447 0.00731802 0.0100771 0.0107381 0.0099706);
    }
    glass2
    {
        Cmu             0.09;
        kappa           0.41;
        E               9.8;
        type            epsilonWallFunction;
        value           nonuniform List<scalar> 2(0.00110733 0.000881181);
    }
    sun
    {
        Cmu             0.09;
        kappa           0.41;
        E               9.8;
        type            epsilonWallFunction;
        value           nonuniform List<scalar> 
14
(
0.000455914
0.000594067
0.000631371
0.000727638
0.000825814
0.000927212
0.00103762
0.00114398
0.00121773
0.00123775
0.00118828
0.00106615
0.000880388
0.000655973
)
;
    }
    heatsource1
    {
        Cmu             0.09;
        kappa           0.41;
        E               9.8;
        type            epsilonWallFunction;
        value           nonuniform List<scalar> 3(7.55172e-05 0.000131629 0.000187172);
    }
    heatsource2
    {
        Cmu             0.09;
        kappa           0.41;
        E               9.8;
        type            epsilonWallFunction;
        value           nonuniform List<scalar> 4(0.00050645 0.000147998 0.000147998 0.000591879);
    }
    Table_master
    {
        Cmu             0.09;
        kappa           0.41;
        E               9.8;
        type            epsilonWallFunction;
        value           nonuniform List<scalar> 9(0.000190755 0.000129513 9.09061e-05 6.60421e-05 4.95495e-05 3.8276e-05 3.03621e-05 2.47219e-05 2.07282e-05);
    }
    Table_slave
    {
        Cmu             0.09;
        kappa           0.41;
        E               9.8;
        type            epsilonWallFunction;
        value           nonuniform List<scalar> 9(0.000279397 0.000210283 0.000168345 0.000140283 0.000118998 0.000101496 8.63656e-05 7.22056e-05 5.79146e-05);
    }
    inlet
    {
        type            turbulentMixingLengthDissipationRateInlet;
        mixingLength    0.01;
        phi             phi;
        k               k;
        value           uniform 0.000101881;
    }
    outlet
    {
        type            zeroGradient;
    }
}


// ************************************************************************* //
