// -*- C++ -*-
// File generated by PyFoam - sorry for the ugliness

FoamFile
{
 version 2.0;
 format ascii;
 class volScalarField;
 location "800";
 object T;
}

dimensions [ 0 0 0 1 0 0 0 ];

internalField nonuniform List<scalar> 459
(
  303.339
  303.077
  303.064
  303.06
  303.057
  303.053
  303.048
  303.042
  303.032
  303.021
  303.009
  303
  302.996
  302.998
  303.01
  303.103
  303.083
  303.076
  303.079
  303.084
  303.089
  303.094
  303.098
  303.103
  303.107
  303.112
  303.116
  303.12
  303.125
  303.129
  303.134
  303.139
  303.145
  303.166
  303.516
  303.118
  303.096
  303.098
  303.101
  303.102
  303.099
  303.089
  303.071
  303.044
  303.018
  302.998
  302.986
  302.983
  302.985
  302.982
  302.979
  303.106
  303.066
  303.061
  303.064
  303.071
  303.077
  303.08
  303.082
  303.084
  303.085
  303.087
  303.089
  303.091
  303.093
  303.096
  303.1
  303.107
  303.117
  303.15
  303.701
  303.169
  303.132
  303.144
  303.159
  303.169
  303.172
  303.161
  303.128
  303.081
  303.035
  303
  302.982
  302.977
  302.979
  302.981
  302.981
  303.059
  303.05
  303.053
  303.063
  303.075
  303.086
  303.086
  303.086
  303.086
  303.087
  303.087
  303.088
  303.089
  303.09
  303.091
  303.094
  303.099
  303.109
  303.144
  303.889
  303.231
  303.17
  303.19
  303.221
  303.249
  303.265
  303.251
  303.198
  303.121
  303.05
  303.001
  302.976
  302.972
  302.977
  302.984
  302.987
  302.998
  303.012
  303.032
  303.054
  303.076
  303.097
  303.113
  303.127
  303.139
  303.15
  303.159
  303.168
  303.175
  303.18
  303.185
  303.187
  303.159
  303.134
  303.121
  303.145
  304.072
  303.31
  303.211
  303.229
  303.274
  303.324
  303.36
  303.337
  303.257
  303.148
  303.055
  302.995
  302.967
  302.966
  302.977
  302.992
  303.005
  303.021
  303.041
  303.066
  303.092
  303.118
  303.141
  303.161
  303.179
  303.194
  303.207
  303.218
  303.226
  303.23
  303.231
  303.228
  303.22
  303.198
  303.166
  303.14
  303.145
  303.23
  303.278
  303.284
  304.238
  303.41
  303.277
  303.273
  303.318
  303.388
  303.434
  303.386
  303.277
  303.15
  303.043
  302.976
  302.952
  302.958
  302.981
  303.009
  303.034
  303.059
  303.087
  303.116
  303.145
  303.172
  303.196
  303.216
  303.233
  303.248
  303.26
  303.269
  303.275
  303.276
  303.271
  303.263
  303.25
  303.228
  303.197
  303.164
  303.154
  303.187
  303.206
  303.242
  304.389
  303.572
  303.431
  303.403
  303.43
  303.495
  303.49
  303.394
  303.246
  303.099
  302.989
  302.933
  302.927
  302.954
  302.997
  303.042
  303.082
  303.117
  303.15
  303.18
  303.208
  303.233
  303.254
  303.271
  303.286
  303.298
  303.307
  303.313
  303.316
  303.314
  303.306
  303.293
  303.277
  303.255
  303.227
  303.196
  303.178
  303.185
  303.195
  303.225
  304.608
  303.995
  303.835
  303.741
  303.71
  303.661
  303.52
  303.318
  303.116
  302.963
  302.88
  302.867
  302.904
  302.967
  303.041
  303.105
  303.155
  303.194
  303.224
  303.25
  303.273
  303.293
  303.309
  303.322
  303.332
  303.34
  303.345
  303.347
  303.346
  303.342
  303.335
  303.322
  303.305
  303.286
  303.265
  303.243
  303.232
  303.243
  303.26
  303.388
  304.92
  304.632
  304.369
  304.141
  303.937
  303.629
  303.261
  302.954
  302.765
  302.698
  302.726
  302.815
  302.925
  303.033
  303.138
  303.204
  303.244
  303.272
  303.295
  303.314
  303.33
  303.344
  303.355
  303.363
  303.369
  303.372
  303.373
  303.372
  303.37
  303.366
  303.363
  303.362
  303.363
  303.367
  303.378
  303.399
  303.428
  303.459
  303.483
  303.545
  296.895
  298.849
  299.852
  300.449
  301.025
  301.563
  302.025
  302.398
  302.689
  302.936
  303.098
  303.193
  303.253
  303.29
  303.316
  303.336
  303.352
  303.366
  303.376
  303.384
  303.39
  303.394
  303.396
  303.397
  303.397
  303.397
  303.396
  303.396
  303.397
  303.398
  303.401
  303.407
  303.418
  303.434
  303.455
  303.477
  303.498
  303.542
  297.324
  299.117
  300.128
  300.948
  301.68
  302.231
  302.609
  302.872
  303.053
  303.173
  303.25
  303.298
  303.331
  303.353
  303.37
  303.383
  303.393
  303.401
  303.407
  303.411
  303.413
  303.415
  303.415
  303.416
  303.416
  303.416
  303.416
  303.416
  303.417
  303.418
  303.42
  303.424
  303.431
  303.442
  303.455
  303.472
  303.494
  303.519
  299.54
  299.469
  299.464
  301.307
  302.201
  302.632
  302.862
  303.027
  303.144
  303.227
  303.286
  303.327
  303.354
  303.373
  303.386
  303.396
  303.403
  303.408
  303.412
  303.415
  303.417
  303.418
  303.419
  303.42
  303.42
  303.421
  303.422
  303.423
  303.423
  303.424
  303.425
  303.426
  303.428
  303.43
  303.434
  303.441
  303.449
  303.456
  303.514
  303.604
)
;

boundaryField
{
  floor
  {
    type wallHeatTransfer;
    Tinf uniform 305.2;
    alphaWall uniform 0.24;
    value nonuniform List<scalar> 29
(
  303.242
  303.501
  303.441
  303.405
  303.403
  303.412
  303.426
  303.445
  303.466
  303.488
  303.509
  303.529
  303.548
  303.567
  303.585
  303.602
  303.62
  303.64
  303.655
  303.697
  303.697
  303.604
  303.557
  303.53
  303.242
  303.501
  303.496
  303.321
  303.19
)
;
  }
  ceiling
  {
    type wallHeatTransfer;
    Tinf uniform 303.2;
    alphaWall uniform 0.24;
    value nonuniform List<scalar> 43
(
  299.795
  299.718
  299.707
  301.427
  302.269
  302.674
  302.887
  303.041
  303.148
  303.225
  303.278
  303.313
  303.336
  303.351
  303.361
  303.368
  303.373
  303.377
  303.379
  303.38
  303.381
  303.382
  303.383
  303.384
  303.385
  303.386
  303.388
  303.389
  303.391
  303.393
  303.395
  303.397
  303.4
  303.403
  303.408
  303.416
  303.423
  303.427
  303.477
  303.562
  304.84
  304.575
  297.686
)
;
  }
  sWall
  {
    type wallHeatTransfer;
    Tinf uniform 315.2;
    alphaWall uniform 0.36;
    value uniform 301.127;
  }
  nWall
  {
    type wallHeatTransfer;
    Tinf uniform 307.2;
    alphaWall uniform 0.36;
    value nonuniform List<scalar> 6
(
  304.006
  303.949
  303.871
  304.093
  304.065
  304.137
)
;
  }
  sideWalls
  {
    type empty;
  }
  glass1
  {
    type wallHeatTransfer;
    Tinf uniform 315.2;
    alphaWall uniform 4.3;
    value nonuniform List<scalar> 9
(
  311.432
  310.801
  310.404
  310.102
  309.851
  309.622
  309.447
  309.515
  309.74
)
;
  }
  glass2
  {
    type wallHeatTransfer;
    Tinf uniform 307.2;
    alphaWall uniform 4.3;
    value nonuniform List<scalar> 2
(
  305.759
  305.873
)
;
  }
  sun
  {
    type wallHeatTransfer;
    Tinf uniform 305.2;
    alphaWall uniform 0.24;
    value nonuniform List<scalar> 14
(
  303.535
  303.285
  303.27
  303.26
  303.25
  303.241
  303.231
  303.221
  303.209
  303.198
  303.189
  303.186
  303.192
  303.209
)
;
  }
  heatsource1
  {
    type fixedGradient;
    gradient uniform 0;
  }
  heatsource2
  {
    type fixedGradient;
    gradient uniform 0;
  }
  Table_master
  {
    type zeroGradient;
  }
  Table_slave
  {
    type zeroGradient;
  }
  inlet
  {
    type fixedValue;
    value uniform 293.15;
  }
  outlet
  {
    type zeroGradient;
  }
} 	// ************************************************************************* //

