/*--------------------------------*- C++ -*----------------------------------*\
  =========                 |
  \\      /  F ield         | OpenFOAM: The Open Source CFD Toolbox
   \\    /   O peration     | Website:  https://openfoam.org
    \\  /    A nd           | Version:  6
     \\/     M anipulation  |
\*---------------------------------------------------------------------------*/
FoamFile
{
    version     2.0;
    format      ascii;
    class       surfaceScalarField;
    location    "1500";
    object      phi;
}
// * * * * * * * * * * * * * * * * * * * * * * * * * * * * * * * * * * * * * //

dimensions      [1 0 -1 0 0 0 0];

internalField   nonuniform List<scalar> 
852
(
-0.00295825
0.00301556
-0.00399861
0.00104035
-0.00479862
0.000800014
-0.00542162
0.000623
-0.00583418
0.000412566
-0.00600828
0.000174097
-0.00591579
-9.24903e-05
-0.0055348
-0.000380991
-0.00488122
-0.000653578
-0.0040201
-0.000861124
-0.00305135
-0.000968748
-0.00208668
-0.000964667
-0.00122834
-0.000858348
-0.000538558
-0.000689778
-0.000536897
-0.00077774
0.000780709
-0.000523048
-0.000254692
7.17518e-05
-0.0005948
0.000574082
-0.000502331
0.000923721
-0.000349639
0.00115229
-0.00022857
0.00127992
-0.000127629
0.00134174
-6.18203e-05
0.00137601
-3.42707e-05
0.00139717
-2.11614e-05
0.00140927
-1.20942e-05
0.00141385
-4.57827e-06
0.00140958
4.26972e-06
0.00138895
2.06309e-05
0.00133084
5.81046e-05
0.00119974
0.0001311
0.000983253
0.000216487
0.000716313
0.00026694
0.000720281
-0.00211923
0.00528922
-0.00313952
0.00206064
-0.00396817
0.00162867
-0.00458741
0.00124224
-0.0049984
0.000823554
-0.00518204
0.000357742
-0.00510696
-0.000167579
-0.00475545
-0.000732501
-0.00415594
-0.00125308
-0.00338413
-0.00163294
-0.00253816
-0.00181472
-0.00171274
-0.00179008
-0.000988485
-0.0015826
-0.000439303
-0.00123896
-0.000170791
-0.000805409
0.00011833
-0.000289172
0.000118279
0.000251694
0.000537665
0.00065744
-0.000660438
0.00092583
-0.00086319
0.00115116
-0.000727657
0.00133056
-0.000529038
0.00144665
-0.000344668
0.00146746
-0.000148432
0.00147253
-6.68984e-05
0.00147869
-4.04241e-05
0.00148386
-2.63372e-05
0.0014873
-1.55343e-05
0.00148918
-6.45184e-06
0.00148885
4.5968e-06
0.0014831
2.63785e-05
0.00144428
9.69249e-05
0.00127782
0.00029756
0.000988295
0.000506014
0.000625026
0.000630209
0.00135542
-0.00148941
0.0070149
-0.00237205
0.00294327
-0.0031124
0.00236902
-0.00364804
0.00177788
-0.00401311
0.00118862
-0.00418339
0.000528016
-0.0041047
-0.000246268
-0.00375131
-0.00108589
-0.00317735
-0.00182704
-0.00247627
-0.00233401
-0.00174311
-0.00254789
-0.00105048
-0.00248271
-0.000450417
-0.00218267
2.25185e-05
-0.0017119
0.000333884
-0.00111677
0.000473805
-0.000429093
0.000592084
0.00149324
-0.000946101
0.00171333
-0.000880528
0.00167259
-0.000822457
0.00166229
-0.00071735
0.00168754
-0.000554287
0.00173016
-0.000387289
0.00158188
0.00151513
0.00147486
0.00144868
0.0014333
0.001427
0.00143175
0.00145828
0.00155536
0.00128531
0.000567608
0.000954321
0.000837004
0.000536616
0.00104791
0.00190736
-0.00104286
0.00836372
-0.00174468
0.00364509
-0.00224246
0.00286679
-0.00260141
0.00213683
-0.00285301
0.00144023
-0.00296054
0.000635544
-0.00282741
-0.000379396
-0.00243698
-0.00147632
-0.00189046
-0.00237357
-0.00129026
-0.00293421
-0.000711978
-0.00312617
-0.000195272
-0.00299941
0.000244017
-0.00262196
0.000606567
-0.00207445
0.000929587
-0.00143979
0.00129435
-0.000793856
0.00214298
-0.000256541
0.00249951
-0.000348173
0.00214904
-0.000595631
0.00201355
-0.000745039
0.00188438
-0.000693285
0.00176847
-0.000601449
0.00169471
-0.00048052
0.00163513
-0.000327712
0.00177642
-0.000141439
0.00186261
-8.63478e-05
0.00193142
-6.89653e-05
0.00198492
-5.36499e-05
0.00200918
-2.44119e-05
0.00198273
2.62926e-05
0.00188027
0.000102311
0.00166844
0.000211675
0.00129222
0.00037607
0.00113402
0.000725807
0.000824489
0.00114654
0.000360507
0.0015119
0.00228786
-0.000728615
0.00945745
-0.00126189
0.00417837
-0.0013843
0.0029892
-0.00147784
0.00223037
-0.00154017
0.00150256
-0.00150164
0.000597017
-0.001228
-0.000653034
-0.000787733
-0.00191659
-0.000312277
-0.00284902
0.000119477
-0.00336597
0.000473083
-0.00347978
0.000743793
-0.00327012
0.000953374
-0.00283154
0.0011315
-0.00225257
0.00131233
-0.00162062
0.00154377
-0.00102529
0.00186942
-0.000582192
0.00197591
-0.000454664
0.00189379
-0.000513517
0.00171756
-0.000568805
0.00155884
-0.000534569
0.00142286
-0.000465464
0.00132313
-0.000380791
0.00127561
-0.00028019
0.00131786
-0.000183688
0.00137122
-0.000139707
0.00142881
-0.000126561
0.00148741
-0.000112253
0.00153662
-7.36192e-05
0.00155628
6.6325e-06
0.00152512
0.000133469
0.00143117
0.00030563
0.0012752
0.000532035
0.00113041
0.000870597
0.00096802
0.00130893
0.000616193
0.00186372
0.00052148
0.00238258
-0.000984008
0.00150528
-0.00144902
0.000464808
-0.00140063
-0.000630815
0.0105033
-0.000996882
0.00454444
-0.000603298
0.00259562
-0.000310408
0.00193748
-9.63215e-05
0.00128847
0.0002271
0.000273595
0.000707257
-0.00113319
0.00114487
-0.00235421
0.00145764
-0.00316178
0.00163147
-0.0035398
0.00169195
-0.00354025
0.00167135
-0.00324953
0.00160232
-0.00276251
0.00152247
-0.00217272
0.00146513
-0.00156328
0.00145532
-0.00101548
0.0014862
-0.00061307
0.00145435
-0.000422821
0.00132955
-0.000388718
0.00115094
-0.000390191
0.000986856
-0.000370484
0.000856096
-0.000334704
0.000766869
-0.000291564
0.000729985
-0.000243305
0.000749026
-0.000202729
0.000798901
-0.000189582
0.000865412
-0.000193073
0.000942717
-0.000189557
0.0010249
-0.000155798
0.00110036
-6.88292e-05
0.0011509
8.29272e-05
0.00117132
0.00028521
0.00117047
0.000532888
0.00119269
0.000848377
0.00128425
0.00121736
0.00146146
0.00168651
0.00190282
0.00194122
0.00216486
0.00124324
0.00177446
0.000855212
0.000431953
-0.000716315
0.0116791
-0.000602129
0.00443025
0.000473094
0.0015204
0.00115015
0.00126042
0.00172347
0.00071515
0.00236821
-0.00037115
0.00292203
-0.00168701
0.00322788
-0.00266006
0.00327975
-0.00321365
0.00312335
-0.00338341
0.00282275
-0.00323965
0.00244205
-0.00286882
0.00203625
-0.00235671
0.00165375
-0.00179023
0.00132744
-0.00123697
0.00107749
-0.000765535
0.000900841
-0.000436422
0.000750504
-0.000272483
0.000591035
-0.000229249
0.000430232
-0.000229388
0.00029141
-0.000231662
0.000186017
-0.000229311
0.000118642
-0.000224189
9.38338e-05
-0.000218498
0.000110081
-0.000218976
0.000153683
-0.000233184
0.000213974
-0.000253364
0.000288952
-0.000264534
0.000382514
-0.00024936
0.000499584
-0.000185899
0.000628483
-4.59716e-05
0.00075787
0.000155822
0.000897814
0.000392944
0.00108608
0.000660106
0.00136916
0.000934291
0.00181321
0.00124246
0.00248409
0.00127034
0.00302919
0.000698142
0.00304603
0.000838365
0.00354043
0.00260247
0.0095902
0.00328042
0.0037523
0.00344511
0.0013557
0.00389698
0.00080856
0.00458682
2.53027e-05
0.00527849
-0.00106281
0.00556079
-0.00196931
0.00543654
-0.00253581
0.00499321
-0.00277033
0.00433539
-0.00272559
0.00356538
-0.00246964
0.00276966
-0.00207309
0.0020089
-0.00159595
0.00133813
-0.00111946
0.000784554
-0.000683385
0.000370712
-0.000351694
9.51942e-05
-0.000160904
-8.81666e-05
-8.9122e-05
-0.000228958
-8.84577e-05
-0.00034797
-0.000110376
-0.000446171
-0.000133461
-0.0005212
-0.000154282
-0.000571944
-0.000173445
-0.000597836
-0.000192605
-0.000601894
-0.000214918
-0.000592978
-0.0002421
-0.000577229
-0.000269113
-0.000554201
-0.000287563
-0.000515792
-0.000287768
-0.000443292
-0.000258399
-0.000306658
-0.000182606
-0.00012024
-3.0596e-05
9.8508e-05
0.000174196
0.000370126
0.000388488
0.000704779
0.000599638
0.00114292
0.000804321
0.00161622
0.000797036
0.00180765
0.000506714
0.0010643
0.00158171
0.00486281
0.0101538
0.0138989
0.0122273
0.00302729
0.0113268
0.0017091
0.0105925
0.000759567
0.00970197
-0.000172259
0.00855464
-0.000821983
0.00725751
-0.00123867
0.00590473
-0.00141755
0.00456534
-0.0013862
0.00330246
-0.00120676
0.00216624
-0.000936875
0.00116839
-0.000598103
0.000350911
-0.000301986
-0.000251021
-8.14535e-05
-0.000625314
2.2599e-05
-0.000828308
4.20911e-05
-0.000944448
2.70181e-05
-0.00103092
-1.99071e-06
-0.00110814
-3.3153e-05
-0.00117874
-6.28573e-05
-0.00124241
-9.06174e-05
-0.00129947
-0.000116383
-0.00135142
-0.000140653
-0.00140223
-0.000164107
-0.00145919
-0.000185141
-0.0015298
-0.000198508
-0.00162143
-0.000195928
-0.00174312
-0.00016608
-0.00190626
-9.52555e-05
-0.00211796
2.90857e-05
-0.00236514
0.000216591
-0.00267345
0.000482506
-0.00312851
0.00084355
-0.00382518
0.0012963
-0.00482823
0.00180737
-0.00625233
0.00222114
-0.00796744
0.00222182
-0.00746183
0.0010761
-0.00231302
0.0051
0.00455582
0.00409471
0.00271439
0.00449522
0.000359056
0.00453525
-0.000212291
0.00412714
-0.000413876
0.00344249
-0.000554017
0.00259455
-0.000569616
0.00167572
-0.000467364
0.00075979
-0.00029083
-9.8689e-05
-7.83961e-05
-0.000795331
9.85391e-05
-0.00125154
0.000154224
-0.00149858
0.000165583
-0.00162035
0.000144368
-0.00168806
0.000109807
-0.00173624
7.51936e-05
-0.00178148
4.3248e-05
-0.00183045
1.58158e-05
-0.00188648
-6.82184e-06
-0.00194962
-2.74813e-05
-0.00201934
-4.66603e-05
-0.00209672
-6.32691e-05
-0.00218313
-7.76993e-05
-0.00228058
-8.76893e-05
-0.00239018
-8.89089e-05
-0.00251083
-7.52767e-05
-0.00263809
-3.88237e-05
-0.00276351
3.01608e-05
-0.00287534
0.00014092
-0.00297148
0.000312734
-0.00306009
0.000571117
-0.00314792
0.000931378
-0.00323252
0.0013809
-0.00326754
0.00184239
-0.00319444
0.00214804
-0.00283327
0.00186065
-0.00156246
-0.000194712
-0.00380066
-0.00043928
0.00505167
0.00085565
0.00141946
0.00081978
0.000394926
0.000546756
6.07329e-05
0.000168602
-3.57215e-05
-0.000353612
-3.18028e-05
-0.000941403
1.81741e-05
-0.00148969
8.09264e-05
-0.00191881
0.000138289
-0.00217912
0.000181908
-0.00228215
0.000201573
-0.00231621
0.000188282
-0.00231316
0.000162539
-0.00230231
0.000133519
-0.00229968
0.000107168
-0.00230927
8.47883e-05
-0.00233091
6.48888e-05
-0.00236181
4.67098e-05
-0.00239898
3.03509e-05
-0.00244229
1.58271e-05
-0.0024912
2.25065e-06
-0.00254513
-9.33143e-06
-0.00260399
-1.88394e-05
-0.00266634
-2.53444e-05
-0.00272846
-2.67914e-05
-0.0027837
-2.00333e-05
-0.00282153
-9.93682e-07
-0.00283047
3.91048e-05
-0.00279802
0.000108465
-0.00270096
0.000215673
-0.0025066
0.000376757
-0.00218763
0.00061241
-0.00172873
0.000921995
-0.00110598
0.00121964
-0.00014011
0.00118218
0.0011588
0.000561745
0.00157035
-0.000606267
-0.00214821
-0.00793543
-0.0107882
-0.0056924
-0.00425007
-0.00384107
-0.00377113
-0.00380074
-0.00382872
-0.00380845
-0.00372672
-0.00358871
-0.00340802
-0.00320848
-0.00302292
-0.00286367
-0.00273388
-0.0026308
-0.00255038
-0.00249007
-0.00244809
-0.00242256
-0.00241159
-0.00241419
-0.00242833
-0.00245192
-0.00248193
-0.00251328
-0.00253776
-0.00254307
-0.00250812
-0.00240367
-0.00219185
-0.00181879
-0.00120995
-0.000291423
0.0009248
0.00210347
0.00266152
0.00205129
)
;

boundaryField
{
    floor
    {
        type            calculated;
        value           nonuniform List<scalar> 
29
(
0
0
0
0
0
0
0
0
0
0
0
0
0
0
0
0
0
0
0
0
-3.96794e-06
-1.0115e-05
-1.53257e-05
-1.99914e-05
-1.66126e-06
-2.96819e-06
-8.65056e-06
-9.47036e-06
-8.35768e-06
)
;
    }
    ceiling
    {
        type            calculated;
        value           nonuniform List<scalar> 
43
(
-4.66436e-05
-4.537e-05
-4.41007e-05
-2.28699e-05
-1.40789e-05
-9.2068e-06
-6.10679e-06
-3.81916e-06
-2.10422e-06
-8.01438e-07
2.83543e-07
1.21823e-06
2.03065e-06
2.72154e-06
3.28375e-06
3.73124e-06
4.08799e-06
4.3701e-06
4.5833e-06
4.73023e-06
4.81714e-06
4.85389e-06
4.85002e-06
4.81147e-06
4.74824e-06
4.66474e-06
4.56333e-06
4.44572e-06
4.31266e-06
4.16299e-06
4.00735e-06
3.8525e-06
3.70411e-06
3.57005e-06
3.46474e-06
3.41814e-06
3.50809e-06
3.69612e-06
3.95807e-06
5.01537e-06
1.02732e-05
7.22805e-06
-5.65712e-05
)
;
    }
    sWall
    {
        type            calculated;
        value           uniform -0.000271693;
    }
    nWall
    {
        type            calculated;
        value           nonuniform List<scalar> 6(-4.85897e-05 -5.81274e-05 -6.2443e-05 -7.48241e-05 -8.21006e-05 -0.000101932);
    }
    sideWalls
    {
        type            empty;
        value           nonuniform 0();
    }
    glass1
    {
        type            calculated;
        value           nonuniform List<scalar> 9(-5.73094e-05 -0.000154426 -0.000236268 -0.000305951 -0.000365117 -0.000414989 -0.000459579 -0.000513523 -0.000573898);
    }
    glass2
    {
        type            calculated;
        value           nonuniform List<scalar> 2(-0.000258079 -0.000285994);
    }
    sun
    {
        type            calculated;
        value           uniform 0;
    }
    heatsource1
    {
        type            calculated;
        value           nonuniform List<scalar> 3(2.04189e-07 2.04131e-07 2.04149e-07);
    }
    heatsource2
    {
        type            calculated;
        value           nonuniform List<scalar> 4(5.11922e-08 5.12768e-08 0 0);
    }
    Table_master
    {
        type            calculated;
        value           nonuniform List<scalar> 9(-1.53138e-07 -1.53229e-07 -1.53261e-07 -1.53283e-07 -1.53299e-07 -1.53309e-07 -1.53315e-07 -1.5331e-07 -1.5328e-07);
    }
    Table_slave
    {
        type            calculated;
        value           nonuniform List<scalar> 9(1.53015e-07 1.53034e-07 1.53013e-07 1.52996e-07 1.52989e-07 1.52992e-07 1.53007e-07 1.53049e-07 1.5313e-07);
    }
    inlet
    {
        type            calculated;
        value           uniform -0.00662853;
    }
    outlet
    {
        type            calculated;
        value           nonuniform List<scalar> 2(0.00825376 0.00289812);
    }
}


// ************************************************************************* //
