// -*- C++ -*-
// File generated by PyFoam - sorry for the ugliness

FoamFile
{
 version 2.0;
 format ascii;
 class volVectorField;
 location "100";
 object U;
}

dimensions [ 0 1 -1 0 0 0 0 ];

internalField nonuniform List<vector> 459
(
  (0.114635 0.0688512 0)
  (-0.14236 -0.00209957 0)
  (-0.111317 0.00131557 0)
  (-0.118445 0.00382627 0)
  (-0.126924 0.00393548 0)
  (-0.134904 0.00290463 0)
  (-0.141009 0.00118102 0)
  (-0.144293 -0.00108914 0)
  (-0.143972 -0.00387454 0)
  (-0.139246 -0.00725553 0)
  (-0.129081 -0.0112468 0)
  (-0.112118 -0.0159424 0)
  (-0.0881659 -0.0220468 0)
  (-0.0647757 -0.0308977 0)
  (-0.0700447 -0.0405974 0)
  (0.0262091 0.0134741 0)
  (-0.0381888 -0.0119474 0)
  (-0.0233305 -0.0137709 0)
  (-0.014809 -0.00844697 0)
  (-0.00762168 0.00258414 0)
  (-0.0193378 0.00625817 0)
  (-0.0245575 -0.00255967 0)
  (-0.0181197 -0.00811569 0)
  (-0.00903642 -0.00799122 0)
  (0.00183262 -0.00569634 0)
  (0.00911374 -0.00482652 0)
  (0.0152586 -0.00415337 0)
  (0.0203483 -0.0028247 0)
  (0.0222958 -0.00023282 0)
  (0.0198209 0.00197008 0)
  (0.0221555 -0.00323896 0)
  (0.0285168 -0.0156272 0)
  (0.0450722 -0.0106869 0)
  (-0.0148353 0.0164297 0)
  (0.328258 0.151683 0)
  (-0.169536 0.0108844 0)
  (-0.104074 0.00939995 0)
  (-0.118128 0.0129334 0)
  (-0.128405 0.013281 0)
  (-0.137352 0.0113818 0)
  (-0.144197 0.00793872 0)
  (-0.148313 0.00322938 0)
  (-0.149052 -0.00267578 0)
  (-0.145854 -0.00975568 0)
  (-0.138077 -0.0178312 0)
  (-0.124971 -0.0267248 0)
  (-0.106352 -0.0368692 0)
  (-0.0840349 -0.049207 0)
  (-0.0620074 -0.0619348 0)
  (-0.0407625 -0.0676487 0)
  (0.035317 0.00650851 0)
  (0.139964 0.0181379 0)
  (0.0460385 0.00932657 0)
  (0.00960161 0.000655362 0)
  (-0.00209108 -0.00217315 0)
  (0.0027731 0.00484828 0)
  (0.000706526 0.0182615 0)
  (-0.00246587 0.00413154 0)
  (-0.0062192 -0.0116825 0)
  (-0.0076535 -0.0122415 0)
  (-0.00535891 -0.00920778 0)
  (-0.004219 -0.00792558 0)
  (-0.0037277 -0.00672105 0)
  (-0.0031377 -0.00341449 0)
  (-0.0080771 0.00288924 0)
  (-0.0105638 0.00207871 0)
  (0.00137617 -0.0133392 0)
  (0.00521335 -0.0243676 0)
  (0.0277718 -0.00963572 0)
  (-0.0929981 0.0466622 0)
  (0.502513 0.231894 0)
  (-0.216884 0.0377758 0)
  (-0.08849 0.0250501 0)
  (-0.111872 0.0242534 0)
  (-0.123901 0.0228862 0)
  (-0.133859 0.0190474 0)
  (-0.141725 0.0131154 0)
  (-0.147158 0.00537173 0)
  (-0.14971 -0.00401365 0)
  (-0.148959 -0.0148905 0)
  (-0.144962 -0.0270538 0)
  (-0.137777 -0.0400828 0)
  (-0.127912 -0.0537343 0)
  (-0.116444 -0.0672386 0)
  (-0.104924 -0.0773151 0)
  (-0.0966938 -0.0779777 0)
  (-0.100251 -0.0670164 0)
  (0.0672583 0.017806 0)
  (-0.0554638 0.0139453 0)
  (-0.0525085 0.0100734 0)
  (-0.0502345 0.0011657 0)
  (-0.0439466 -0.00510014 0)
  (-0.0365221 -0.0070283 0)
  (0.0281121 0.00610739 0)
  (0.010793 -0.00957256 0)
  (-0.00976075 -0.0138805 0)
  (-0.0192126 -0.0111697 0)
  (-0.0278667 -0.00843932 0)
  (-0.0351572 -0.00510481 0)
  (-0.040645 -0.00194656 0)
  (-0.0420747 -0.000444398 0)
  (-0.0365845 -0.00318929 0)
  (-0.0121418 -0.0120465 0)
  (-0.0331106 -0.00209557 0)
  (-0.0744645 0.0133825 0)
  (-0.178519 0.0306411 0)
  (0.641339 0.29833 0)
  (-0.262739 0.0708581 0)
  (-0.0684986 0.0441179 0)
  (-0.10164 0.0377128 0)
  (-0.114912 0.0341149 0)
  (-0.124818 0.0283489 0)
  (-0.132758 0.0203501 0)
  (-0.138613 0.0102295 0)
  (-0.142193 -0.00183647 0)
  (-0.143011 -0.0153668 0)
  (-0.142107 -0.0296878 0)
  (-0.14043 -0.0440031 0)
  (-0.139288 -0.0575321 0)
  (-0.140177 -0.0687279 0)
  (-0.145102 -0.0740499 0)
  (-0.157569 -0.0668229 0)
  (-0.176835 -0.0351483 0)
  (-0.172267 0.0327275 0)
  (-0.127762 0.0207731 0)
  (-0.128621 0.014541 0)
  (-0.118384 0.00484832 0)
  (-0.116758 -0.00511212 0)
  (-0.117187 -0.0134567 0)
  (-0.119928 -0.0185687 0)
  (-0.115923 -0.013653 0)
  (-0.101635 -0.0139733 0)
  (-0.0859485 -0.0161789 0)
  (-0.068054 -0.0186578 0)
  (-0.0483205 -0.0211186 0)
  (-0.0277523 -0.0232132 0)
  (-0.00547908 -0.0242448 0)
  (0.0167572 -0.0223926 0)
  (0.0355369 -0.0197159 0)
  (0.0410851 -0.0159674 0)
  (0.044741 0.000510647 0)
  (0.0481727 0.00797718 0)
  (-0.0837994 0.00464351 0)
  (0.750431 0.353237 0)
  (-0.301344 0.107018 0)
  (-0.0480544 0.0634654 0)
  (-0.0879181 0.0513957 0)
  (-0.101838 0.0448385 0)
  (-0.110102 0.0367787 0)
  (-0.116181 0.02677 0)
  (-0.120276 0.0146737 0)
  (-0.122384 0.000587142 0)
  (-0.122236 -0.0146714 0)
  (-0.121395 -0.0295809 0)
  (-0.121297 -0.0431439 0)
  (-0.123195 -0.0548026 0)
  (-0.127959 -0.0637771 0)
  (-0.136033 -0.0687008 0)
  (-0.14661 -0.0673312 0)
  (-0.154957 -0.0552635 0)
  (-0.155377 -0.0281544 0)
  (-0.14548 -0.00500619 0)
  (-0.132032 0.00371801 0)
  (-0.120277 0.000592282 0)
  (-0.113617 -0.00549954 0)
  (-0.110392 -0.0118889 0)
  (-0.108394 -0.0162225 0)
  (-0.104028 -0.0169654 0)
  (-0.0963357 -0.0196173 0)
  (-0.0868277 -0.0230075 0)
  (-0.0759702 -0.0264462 0)
  (-0.0642271 -0.0292897 0)
  (-0.0522681 -0.0309707 0)
  (-0.040479 -0.0308597 0)
  (-0.028928 -0.028555 0)
  (-0.0175052 -0.0246539 0)
  (-0.00551036 -0.0202606 0)
  (0.0140306 -0.00981242 0)
  (0.047722 0.00205224 0)
  (0.0591637 0.0123853 0)
  (0.0988919 0.0215249 0)
  (0.197751 0.0719638 0)
  (-0.483419 -0.0199095 0)
  (0.820554 0.40283 0)
  (-0.33353 0.140824 0)
  (-0.0329997 0.0765831 0)
  (-0.0691841 0.0645889 0)
  (-0.084068 0.0542637 0)
  (-0.0899723 0.0427942 0)
  (-0.0924595 0.0304377 0)
  (-0.0927596 0.0165143 0)
  (-0.0909848 0.000691494 0)
  (-0.087482 -0.0157875 0)
  (-0.0848837 -0.0301747 0)
  (-0.084438 -0.0417213 0)
  (-0.0869493 -0.0505086 0)
  (-0.092555 -0.0562927 0)
  (-0.100801 -0.0580733 0)
  (-0.110102 -0.0542001 0)
  (-0.116811 -0.0435047 0)
  (-0.117683 -0.0285267 0)
  (-0.112556 -0.0152932 0)
  (-0.104406 -0.00847013 0)
  (-0.0969624 -0.00794749 0)
  (-0.0922122 -0.0108149 0)
  (-0.0899405 -0.0150025 0)
  (-0.0889475 -0.0187906 0)
  (-0.0876363 -0.0217655 0)
  (-0.0854849 -0.0254854 0)
  (-0.0829036 -0.0296567 0)
  (-0.0802767 -0.0335002 0)
  (-0.0780223 -0.036225 0)
  (-0.076506 -0.0372931 0)
  (-0.075734 -0.0365788 0)
  (-0.0752314 -0.0345105 0)
  (-0.0741725 -0.0321373 0)
  (-0.0706996 -0.0305688 0)
  (-0.0605536 -0.0304325 0)
  (-0.0404731 -0.034794 0)
  (-0.0141438 -0.04753 0)
  (0.0355792 -0.0391843 0)
  (0.156984 0.0592834 0)
  (0.00228847 0.0994856 0)
  (0.840146 0.449404 0)
  (-0.348547 0.145197 0)
  (-0.0145901 0.0584836 0)
  (-0.027726 0.0773292 0)
  (-0.0510885 0.0644199 0)
  (-0.0584186 0.0441032 0)
  (-0.0568964 0.0280214 0)
  (-0.052279 0.0122957 0)
  (-0.0440524 -0.00497193 0)
  (-0.0374316 -0.0210258 0)
  (-0.0337915 -0.0328081 0)
  (-0.0336251 -0.0408378 0)
  (-0.0370721 -0.0462362 0)
  (-0.04369 -0.0494491 0)
  (-0.0524627 -0.0499535 0)
  (-0.0617018 -0.0465289 0)
  (-0.0687394 -0.0386722 0)
  (-0.071634 -0.0285086 0)
  (-0.0703293 -0.0193818 0)
  (-0.0666802 -0.0138226 0)
  (-0.0629629 -0.0121141 0)
  (-0.0606271 -0.0130125 0)
  (-0.0600284 -0.0153073 0)
  (-0.0608651 -0.0180174 0)
  (-0.0626452 -0.0209153 0)
  (-0.0653421 -0.0243116 0)
  (-0.0693378 -0.0278339 0)
  (-0.0750618 -0.0306986 0)
  (-0.0829517 -0.0321531 0)
  (-0.0932473 -0.031959 0)
  (-0.105689 -0.0305393 0)
  (-0.119524 -0.0288048 0)
  (-0.133702 -0.0280059 0)
  (-0.146578 -0.0298142 0)
  (-0.156328 -0.036876 0)
  (-0.161384 -0.0529285 0)
  (-0.1583 -0.0772917 0)
  (-0.135259 -0.0901148 0)
  (-0.0601908 -0.0366904 0)
  (-0.133529 0.229324 0)
  (0.945347 0.474856 0)
  (-0.140519 0.12789 0)
  (0.0660644 0.00944954 0)
  (0.0932016 0.0576407 0)
  (0.0457015 0.0576915 0)
  (0.0179119 0.0277148 0)
  (0.0153807 0.00735436 0)
  (0.0189237 -0.0077627 0)
  (0.029364 -0.0201727 0)
  (0.0330598 -0.0295343 0)
  (0.0328387 -0.0356658 0)
  (0.0296179 -0.0390992 0)
  (0.0236213 -0.0407195 0)
  (0.0151805 -0.0411608 0)
  (0.00502248 -0.0404366 0)
  (-0.00575093 -0.0377627 0)
  (-0.0143247 -0.0326779 0)
  (-0.0198173 -0.0261041 0)
  (-0.0220833 -0.0199713 0)
  (-0.0222121 -0.01574 0)
  (-0.0216443 -0.0137705 0)
  (-0.0214637 -0.0135595 0)
  (-0.0222198 -0.0144103 0)
  (-0.0241155 -0.0156961 0)
  (-0.0272858 -0.0171365 0)
  (-0.03212 -0.0186195 0)
  (-0.0392108 -0.0196644 0)
  (-0.0491911 -0.0194776 0)
  (-0.06275 -0.0173773 0)
  (-0.0804467 -0.0134044 0)
  (-0.102265 -0.00829181 0)
  (-0.128195 -0.00335621 0)
  (-0.159598 -0.00113358 0)
  (-0.196347 -0.00458544 0)
  (-0.237383 -0.0159398 0)
  (-0.279292 -0.0350207 0)
  (-0.31455 -0.0576214 0)
  (-0.345005 -0.0748264 0)
  (-0.417796 -0.0706043 0)
  (-0.680816 -0.0200921 0)
  (1.08949 0.432963 0)
  (0.525659 0.271366 0)
  (0.459492 0.214456 0)
  (0.405374 0.200409 0)
  (0.291327 0.155829 0)
  (0.221288 0.100145 0)
  (0.188469 0.0558341 0)
  (0.168965 0.024232 0)
  (0.148531 0.000509933 0)
  (0.129762 -0.0158253 0)
  (0.114572 -0.0255322 0)
  (0.101647 -0.0303453 0)
  (0.0897621 -0.0319548 0)
  (0.0781576 -0.0316472 0)
  (0.0664979 -0.0302535 0)
  (0.0549815 -0.0281747 0)
  (0.0446334 -0.0252893 0)
  (0.0364166 -0.021738 0)
  (0.0307408 -0.0182957 0)
  (0.0271625 -0.0157518 0)
  (0.0248306 -0.0144085 0)
  (0.0229673 -0.0140691 0)
  (0.021043 -0.0143143 0)
  (0.0187289 -0.0146905 0)
  (0.0157801 -0.0148623 0)
  (0.0119148 -0.0145849 0)
  (0.00690462 -0.0134894 0)
  (0.000683836 -0.0109693 0)
  (-0.00638679 -0.00639808 0)
  (-0.0131326 0.000237798 0)
  (-0.0193196 0.0084748 0)
  (-0.0267361 0.0174666 0)
  (-0.0345871 0.025718 0)
  (-0.043147 0.030221 0)
  (-0.0532174 0.0272897 0)
  (-0.068462 0.0131284 0)
  (-0.0892435 -0.0166356 0)
  (-0.0847453 -0.0714304 0)
  (-0.116146 -0.173766 0)
  (-0.577946 -0.301969 0)
  (-1.05653 0.188652 0)
  (0.211165 0.21464 0)
  (0.163538 0.157273 0)
  (0.16708 0.103984 0)
  (0.182706 0.062521 0)
  (0.188605 0.0326047 0)
  (0.185326 0.0118138 0)
  (0.176972 -0.00268106 0)
  (0.166356 -0.0121798 0)
  (0.154857 -0.0177659 0)
  (0.143203 -0.0204546 0)
  (0.131828 -0.0211998 0)
  (0.120885 -0.0208072 0)
  (0.110361 -0.0198752 0)
  (0.100424 -0.0186966 0)
  (0.0915329 -0.0174079 0)
  (0.0841665 -0.0162024 0)
  (0.0784219 -0.0152735 0)
  (0.0740076 -0.0146948 0)
  (0.0704793 -0.014394 0)
  (0.0674275 -0.014209 0)
  (0.0645472 -0.0139403 0)
  (0.0616359 -0.0134005 0)
  (0.0585727 -0.0124236 0)
  (0.0553688 -0.010834 0)
  (0.0522245 -0.00844876 0)
  (0.0495555 -0.00504839 0)
  (0.048238 -1.52273e-05 0)
  (0.0483882 0.00669505 0)
  (0.0504432 0.0142319 0)
  (0.0543171 0.020794 0)
  (0.0593136 0.0240731 0)
  (0.0643546 0.0223726 0)
  (0.0679553 0.0160123 0)
  (0.0727396 0.00712228 0)
  (0.0823269 -0.00957404 0)
  (0.131481 -0.0832316 0)
  (-0.160316 -0.245395 0)
  (-0.526624 0.192003 0)
  (0.192761 0.128791 0)
  (0.0859029 0.0883215 0)
  (0.121398 0.0675552 0)
  (0.162006 0.0465672 0)
  (0.183724 0.029907 0)
  (0.190932 0.0192102 0)
  (0.190534 0.0137227 0)
  (0.186054 0.0113418 0)
  (0.179448 0.0111359 0)
  (0.171736 0.0128021 0)
  (0.163702 0.0160146 0)
  (0.155915 0.0203998 0)
  (0.148683 0.0254684 0)
  (0.142126 0.030587 0)
  (0.136288 0.0350306 0)
  (0.131179 0.0381709 0)
  (0.126728 0.0397486 0)
  (0.122761 0.0399751 0)
  (0.119065 0.0393767 0)
  (0.115475 0.0385493 0)
  (0.111926 0.0379887 0)
  (0.108467 0.0380075 0)
  (0.105258 0.0387082 0)
  (0.102558 0.0400404 0)
  (0.10068 0.041987 0)
  (0.0999687 0.0445765 0)
  (0.100795 0.0463763 0)
  (0.103942 0.0474247 0)
  (0.109792 0.0486292 0)
  (0.118109 0.0496388 0)
  (0.127953 0.0493458 0)
  (0.1376 0.0466618 0)
  (0.144597 0.0409118 0)
  (0.146414 0.0299777 0)
  (0.140656 0.00356579 0)
  (0.16176 -0.0588135 0)
  (-0.164887 -0.178711 0)
  (0.065816 -0.203348 0)
  (-0.21377 -0.0217859 0)
  (-0.305578 0.192072 0)
  (0.192737 0.0308257 0)
  (0.0753775 0.0141566 0)
  (0.111924 0.00655914 0)
  (0.158897 -0.00622575 0)
  (0.18735 -0.0202102 0)
  (0.200319 -0.0336032 0)
  (0.204653 -0.0462724 0)
  (0.204368 -0.0579299 0)
  (0.201292 -0.068611 0)
  (0.196633 -0.0787754 0)
  (0.191399 -0.0887281 0)
  (0.18639 -0.0985902 0)
  (0.182118 -0.10827 0)
  (0.178794 -0.117467 0)
  (0.176334 -0.125754 0)
  (0.174411 -0.132759 0)
  (0.172555 -0.138344 0)
  (0.170317 -0.142666 0)
  (0.167417 -0.146079 0)
  (0.163804 -0.148983 0)
  (0.159637 -0.151673 0)
  (0.155221 -0.154252 0)
  (0.150934 -0.156564 0)
  (0.147182 -0.158177 0)
  (0.144412 -0.158435 0)
  (0.143305 -0.156672 0)
  (0.144329 -0.151449 0)
  (0.147756 -0.142191 0)
  (0.154153 -0.130697 0)
  (0.16374 -0.119508 0)
  (0.175699 -0.111149 0)
  (0.18803 -0.107556 0)
  (0.197928 -0.110129 0)
  (0.202275 -0.119751 0)
  (0.195246 -0.132983 0)
  (0.198761 -0.156319 0)
  (-0.161266 -0.211548 0)
)
;

boundaryField
{
  floor
  {
    type noSlip;
  }
  ceiling
  {
    type noSlip;
  }
  sWall
  {
    type noSlip;
  }
  nWall
  {
    type noSlip;
  }
  sideWalls
  {
    type empty;
  }
  glass1
  {
    type noSlip;
  }
  glass2
  {
    type noSlip;
  }
  sun
  {
    type noSlip;
  }
  heatsource1
  {
    type noSlip;
  }
  heatsource2
  {
    type noSlip;
  }
  Table_master
  {
    type noSlip;
  }
  Table_slave
  {
    type noSlip;
  }
  inlet
  {
    type fixedValue;
    value uniform (0.0382683 -0.092388 0);
  }
  outlet
  {
    type zeroGradient;
  }
} 	// ************************************************************************* //

