/*--------------------------------*- C++ -*----------------------------------*\
  =========                 |
  \\      /  F ield         | OpenFOAM: The Open Source CFD Toolbox
   \\    /   O peration     | Website:  https://openfoam.org
    \\  /    A nd           | Version:  6
     \\/     M anipulation  |
\*---------------------------------------------------------------------------*/
FoamFile
{
    version     2.0;
    format      ascii;
    class       volScalarField;
    location    "500";
    object      alphat;
}
// * * * * * * * * * * * * * * * * * * * * * * * * * * * * * * * * * * * * * //

dimensions      [1 -1 -1 0 0 0 0];

internalField   nonuniform List<scalar> 
459
(
0.00130581
0.00143159
0.00146477
0.00153751
0.00160617
0.00167289
0.00174239
0.00179721
0.0018279
0.00182654
0.00178784
0.00170787
0.00157838
0.00134758
0.00105713
0.000576258
0.00068201
0.000782239
0.000817971
0.000807998
0.000780903
0.000731634
0.000679713
0.000632614
0.000591264
0.00055508
0.000523329
0.000495269
0.000470415
0.000447786
0.000426249
0.000404277
0.000387759
0.00035308
0.00175559
0.00432327
0.004155
0.0048282
0.00549992
0.00614041
0.00661375
0.00704403
0.00741686
0.00769167
0.00783426
0.00781705
0.00759654
0.00703944
0.00554272
0.0013441
0.000961439
0.000577897
0.00136851
0.00202386
0.00255517
0.00288527
0.00287878
0.00212744
0.00178272
0.00155065
0.00137904
0.00124659
0.00114116
0.00105511
0.000974905
0.000895245
0.0008224
0.000760451
0.000884097
0.000446618
0.00212464
0.0058532
0.00510517
0.00619202
0.00670338
0.00708515
0.00738227
0.00770503
0.00806201
0.00842393
0.00874335
0.0089766
0.0090442
0.00882494
0.00804935
0.00583332
0.00138391
0.000975126
0.0016103
0.0023194
0.00306063
0.00361471
0.0035281
0.00102645
0.000896303
0.000791716
0.000707924
0.00064032
0.000585233
0.000539956
0.000503008
0.000473977
0.000520408
0.000612928
0.00101806
0.000513733
0.00247474
0.00737526
0.00510304
0.00641768
0.00671616
0.00682417
0.00697005
0.00721478
0.0075587
0.00797888
0.00840819
0.00878384
0.00899555
0.00902286
0.00877486
0.00780713
0.00462366
0.00159182
0.00193538
0.00262024
0.00348902
0.00432629
0.0049015
0.0046063
0.00116682
0.00105842
0.000979877
0.000918541
0.000865182
0.000817234
0.00077053
0.00072145
0.00066511
0.000616948
0.000638604
0.00119447
0.00056645
0.00282972
0.00933874
0.00551852
0.00624723
0.00659055
0.00655997
0.0066232
0.00682253
0.00715097
0.00760067
0.00806739
0.00844643
0.0086604
0.00869896
0.0085899
0.00826542
0.00735508
0.00651659
0.00633629
0.00649777
0.0067745
0.00700364
0.0070733
0.00679323
0.00558471
0.00498047
0.00461328
0.00432831
0.00404251
0.00365173
0.00317071
0.0026209
0.00203852
0.00149379
0.0011139
0.00118579
0.00076789
0.00069478
0.000836452
0.000941503
0.00320711
0.0115054
0.00744463
0.00632638
0.0067331
0.00665714
0.00665762
0.0067604
0.00702929
0.00746444
0.00795335
0.00834076
0.00851756
0.00848213
0.00834614
0.0082559
0.00826441
0.00840665
0.0086423
0.00882266
0.0088647
0.00875767
0.00850799
0.00809837
0.00747368
0.00691131
0.00642779
0.0059843
0.00554914
0.0050768
0.00452623
0.00388722
0.00317048
0.00243374
0.00182992
0.00140643
0.00108291
0.000932633
0.00132553
0.000988809
0.00355398
0.0130246
0.0103651
0.00801278
0.00770023
0.00728595
0.00694491
0.00687304
0.00711008
0.00758055
0.00811287
0.00850822
0.00864191
0.00853835
0.00839594
0.00850356
0.00897667
0.00955459
0.00992514
0.00999824
0.00981404
0.00944581
0.00894825
0.00835158
0.00768451
0.0070447
0.00646216
0.00593254
0.00545539
0.00503864
0.00468238
0.0042359
0.00367615
0.00303324
0.00245173
0.0019612
0.00161432
0.00154405
0.00159809
0.00116328
0.00362229
0.0115614
0.0101894
0.00926232
0.00830906
0.00738248
0.00688902
0.00689743
0.00731486
0.00795282
0.00856504
0.00892987
0.00896071
0.0087747
0.00870733
0.00912074
0.00983792
0.0102665
0.0103364
0.0101044
0.00963685
0.00900146
0.00825342
0.00745116
0.00666907
0.00597536
0.00538893
0.00490942
0.0045396
0.00428305
0.00413676
0.00405455
0.003817
0.00344249
0.00314595
0.00304239
0.00325975
0.00382327
0.00458809
0.00176384
0.00352833
0.00419824
0.00470662
0.00478093
0.00489302
0.00525514
0.00592564
0.00686331
0.00790776
0.00882869
0.0093951
0.00947482
0.00917712
0.00895822
0.00918323
0.00956228
0.00982105
0.0098093
0.00951994
0.00899495
0.00828771
0.00745141
0.00655655
0.00569871
0.00495993
0.00437383
0.00392769
0.00359486
0.00334876
0.00316383
0.00301741
0.00290037
0.00281698
0.00276151
0.00274482
0.00275077
0.00270992
0.00256894
0.00238121
0.00163806
0.00200948
0.00368176
0.00588707
0.00763956
0.00897525
0.00994066
0.0104492
0.0104895
0.0101005
0.0094076
0.00876055
0.00851072
0.00860479
0.00865505
0.00849721
0.008113
0.00752635
0.00678472
0.00596186
0.00514827
0.0044256
0.00383988
0.00339922
0.00308681
0.00287402
0.00273558
0.00265331
0.00261438
0.00261399
0.00264237
0.00268486
0.00273411
0.00277689
0.00278249
0.00270759
0.00255174
0.00230427
0.00135399
0.00244631
0.00572768
0.00823084
0.00941666
0.0100477
0.00997602
0.00940484
0.00858708
0.00776945
0.00713828
0.00672674
0.00650094
0.00631486
0.00605424
0.00569711
0.0052435
0.00471436
0.00416242
0.00365403
0.00323715
0.00292529
0.00270575
0.00255712
0.00245717
0.00239373
0.00236353
0.00236675
0.00240092
0.00246373
0.00255204
0.00266071
0.00277803
0.0028813
0.00295677
0.00292466
0.00294804
0.00290653
0.00137823
0.00211095
0.00222247
0.00230245
0.00238524
0.00219529
0.00207121
0.00199059
0.00188198
0.00173431
0.00157039
0.00140916
0.00126584
0.00115211
0.00106841
0.00100563
0.000954493
0.000908969
0.000866324
0.000826853
0.000792666
0.00076593
0.000747714
0.000737977
0.00073624
0.000742222
0.000755918
0.000777657
0.000807581
0.000845498
0.000891697
0.000945634
0.00100732
0.00107713
0.00115534
0.00124042
0.00134835
0.0013681
0.0013245
0.00124414
0.0011526
)
;

boundaryField
{
    floor
    {
        type            compressible::alphatWallFunction;
        Prt             0.85;
        value           nonuniform List<scalar> 
29
(
0.000150306
8.0812e-05
9.65537e-05
0.000111202
0.000116369
0.000114931
0.000111011
0.00010384
9.62188e-05
8.92443e-05
8.30688e-05
7.76211e-05
7.28045e-05
6.85175e-05
6.46947e-05
6.11922e-05
5.78375e-05
5.43928e-05
5.17873e-05
4.62699e-05
4.62693e-05
6.10095e-05
7.134e-05
7.93356e-05
0.000150304
8.0811e-05
8.10565e-05
0.000138778
0.000223286
)
;
    }
    ceiling
    {
        type            compressible::alphatWallFunction;
        Prt             0.85;
        value           nonuniform List<scalar> 
43
(
0.000291425
0.000305825
0.000316106
0.000326838
0.00030251
0.000286484
0.00027601
0.000261817
0.00024237
0.000220565
0.00019887
0.00017935
0.000163681
0.000152038
0.000143235
0.000136016
0.000129552
0.000123461
0.000117792
0.000112855
0.000108975
0.000106323
0.000104901
0.000104646
0.000105518
0.000107513
0.000110671
0.000115002
0.000120463
0.000127078
0.00013475
0.000143462
0.000153249
0.000164124
0.00017586
0.000190618
0.000193305
0.000187371
0.000176374
0.00016375
0.000470038
0.000551488
0.000334346
)
;
    }
    sWall
    {
        type            compressible::alphatWallFunction;
        Prt             0.85;
        value           uniform 0.00029021;
    }
    nWall
    {
        type            compressible::alphatWallFunction;
        Prt             0.85;
        value           nonuniform List<scalar> 6(0.000133835 0.000140519 0.000164876 0.00019106 0.000194352 0.000163424);
    }
    sideWalls
    {
        type            empty;
    }
    glass1
    {
        type            compressible::alphatWallFunction;
        Prt             0.85;
        value           nonuniform List<scalar> 9(0.000180168 0.000239738 0.000287481 0.000332035 0.000376593 0.00042337 0.000465907 0.000474367 0.000463144);
    }
    glass2
    {
        type            compressible::alphatWallFunction;
        Prt             0.85;
        value           nonuniform List<scalar> 2(0.000244496 0.00022796);
    }
    sun
    {
        type            compressible::alphatWallFunction;
        Prt             0.85;
        value           nonuniform List<scalar> 
14
(
0.000184691
0.000201765
0.000206244
0.000216025
0.00022521
0.000234093
0.000243307
0.000250543
0.000254585
0.000254404
0.000249305
0.00023873
0.000221492
0.000190355
)
;
    }
    heatsource1
    {
        type            compressible::alphatWallFunction;
        Prt             0.85;
        value           nonuniform List<scalar> 3(9.85491e-05 0.000119148 0.000134151);
    }
    heatsource2
    {
        type            compressible::alphatWallFunction;
        Prt             0.85;
        value           nonuniform List<scalar> 4(0.000190029 0.000136982 0.00013698 0.000195437);
    }
    Table_master
    {
        type            compressible::alphatWallFunction;
        Prt             0.85;
        value           nonuniform List<scalar> 9(0.000146142 0.000127724 0.000112694 0.000100482 9.05007e-05 8.22725e-05 7.54379e-05 6.98075e-05 6.53472e-05);
    }
    Table_slave
    {
        type            compressible::alphatWallFunction;
        Prt             0.85;
        value           nonuniform List<scalar> 9(0.000165709 0.000150627 0.000139587 0.000130894 0.000123276 0.000116384 0.000109623 0.000102465 9.41756e-05);
    }
    inlet
    {
        type            fixedValue;
        value           uniform 1.94e-05;
    }
    outlet
    {
        type            zeroGradient;
    }
}


// ************************************************************************* //
