// -*- C++ -*-
// File generated by PyFoam - sorry for the ugliness

FoamFile
{
 version 2.0;
 format ascii;
 class volVectorField;
 location "600";
 object U;
}

dimensions [ 0 1 -1 0 0 0 0 ];

internalField nonuniform List<vector> 459
(
  (0.100416 0.0576513 0)
  (-0.121841 -0.00455998 0)
  (-0.0863843 -0.00491377 0)
  (-0.08241 -0.00225357 0)
  (-0.0804411 -0.00107099 0)
  (-0.0798284 -0.000695073 0)
  (-0.0796637 -0.0008016 0)
  (-0.0793718 -0.00129794 0)
  (-0.0784413 -0.0021984 0)
  (-0.076299 -0.00356496 0)
  (-0.0720851 -0.00549865 0)
  (-0.0644771 -0.00822192 0)
  (-0.0525141 -0.012277 0)
  (-0.0391107 -0.0184227 0)
  (-0.03713 -0.0254019 0)
  (0.0359849 0.00819661 0)
  (-0.0236459 -0.00433956 0)
  (-0.0121857 -0.00585188 0)
  (-0.00805365 -0.00465668 0)
  (-0.0019093 -0.00484655 0)
  (0.00472633 -0.00496116 0)
  (0.010237 -0.005441 0)
  (0.0154944 -0.00460667 0)
  (0.0195883 -0.00371569 0)
  (0.022671 -0.00307849 0)
  (0.0252147 -0.00282904 0)
  (0.0273646 -0.00280869 0)
  (0.0291866 -0.00257856 0)
  (0.0297812 -0.00215871 0)
  (0.0288363 -0.00154585 0)
  (0.0279378 -0.00126682 0)
  (0.027127 -0.00395993 0)
  (0.032844 -0.0041783 0)
  (-0.0167649 0.0122362 0)
  (0.280791 0.127572 0)
  (-0.144898 0.00440884 0)
  (-0.0812637 -0.00752053 0)
  (-0.0833922 -0.00351559 0)
  (-0.0835983 -0.00120989 0)
  (-0.0836256 -0.000225698 0)
  (-0.0835557 -8.51082e-05 0)
  (-0.0832984 -0.000671022 0)
  (-0.0825972 -0.00202437 0)
  (-0.0810724 -0.00426061 0)
  (-0.078142 -0.00753466 0)
  (-0.0729862 -0.0121048 0)
  (-0.0648983 -0.0185212 0)
  (-0.0541962 -0.027478 0)
  (-0.0426691 -0.0378621 0)
  (-0.0317376 -0.0440416 0)
  (0.0229239 0.00690104 0)
  (0.0854567 0.00267565 0)
  (0.0318971 0.00326844 0)
  (0.0104832 0.00223636 0)
  (0.00237638 0.000643352 0)
  (-0.00176253 -0.00225137 0)
  (-0.00526413 -0.00416232 0)
  (-0.00820833 -0.00793934 0)
  (-0.00593551 -0.00590515 0)
  (-0.00469319 -0.00413659 0)
  (-0.00494796 -0.00290677 0)
  (-0.00586573 -0.0017552 0)
  (-0.00768342 8.41624e-05 0)
  (-0.0111225 0.00281141 0)
  (-0.0143425 0.00508759 0)
  (-0.0169902 0.00653614 0)
  (-0.0193233 0.00729042 0)
  (-0.0220631 0.00704129 0)
  (-0.0377718 0.0114787 0)
  (-0.091834 0.018448 0)
  (0.422636 0.193697 0)
  (-0.179263 0.0253992 0)
  (-0.0696081 -0.00253169 0)
  (-0.0782939 -0.00213699 0)
  (-0.0813706 -0.00088687 0)
  (-0.0821111 -0.000400531 0)
  (-0.0822812 -0.000509164 0)
  (-0.0822997 -0.00137272 0)
  (-0.0822332 -0.00319454 0)
  (-0.0819779 -0.00621258 0)
  (-0.0812893 -0.0106919 0)
  (-0.0798322 -0.016926 0)
  (-0.0773494 -0.0251853 0)
  (-0.073839 -0.0352595 0)
  (-0.069781 -0.0452447 0)
  (-0.0680325 -0.0511033 0)
  (-0.0770353 -0.0501732 0)
  (0.0149606 0.0070358 0)
  (-0.0348102 0.00798804 0)
  (-0.0342728 0.00816786 0)
  (-0.0333941 0.00459176 0)
  (-0.0328811 0.000504232 0)
  (-0.0335344 -0.00361702 0)
  (-0.0312875 -0.00669538 0)
  (-0.0405366 -0.00606287 0)
  (-0.0447899 -0.00466143 0)
  (-0.0476119 -0.00365449 0)
  (-0.0493759 -0.00282349 0)
  (-0.0497797 -0.00201798 0)
  (-0.0483963 -0.00127244 0)
  (-0.0456375 -0.00102158 0)
  (-0.0402234 -0.00159164 0)
  (-0.0319695 -0.00120236 0)
  (-0.0184201 0.000225718 0)
  (-0.00666521 -0.00127686 0)
  (-0.0441016 -0.00377323 0)
  (0.532612 0.24629 0)
  (-0.206988 0.0500546 0)
  (-0.0536832 0.00793353 0)
  (-0.0663562 0.00252834 0)
  (-0.0741589 0.000988484 0)
  (-0.0759909 0.000239619 0)
  (-0.0763378 -0.000294315 0)
  (-0.0763643 -0.00114927 0)
  (-0.0765856 -0.00278004 0)
  (-0.0772684 -0.00557941 0)
  (-0.0785683 -0.00988516 0)
  (-0.0806291 -0.0159444 0)
  (-0.0836852 -0.0237301 0)
  (-0.0881729 -0.0325124 0)
  (-0.095278 -0.0402802 0)
  (-0.108009 -0.0432082 0)
  (-0.125998 -0.0337402 0)
  (-0.125616 -0.00046263 0)
  (-0.0995806 0.00882556 0)
  (-0.0954332 0.00770749 0)
  (-0.0906479 0.00569072 0)
  (-0.0906337 0.00301046 0)
  (-0.0925856 -0.000421918 0)
  (-0.0948834 -0.00387956 0)
  (-0.0952785 -0.00408285 0)
  (-0.0922297 -0.00415908 0)
  (-0.0885906 -0.00476027 0)
  (-0.0843141 -0.00525062 0)
  (-0.0795233 -0.00570776 0)
  (-0.0742347 -0.00620027 0)
  (-0.0682378 -0.00681451 0)
  (-0.0610928 -0.00768832 0)
  (-0.0526444 -0.00892694 0)
  (-0.0447935 -0.0104573 0)
  (-0.0356559 -0.0115114 0)
  (-0.0235567 -0.0131776 0)
  (-0.0139219 -0.0145584 0)
  (0.617499 0.286855 0)
  (-0.226706 0.0752836 0)
  (-0.036669 0.0189916 0)
  (-0.0445134 0.00950512 0)
  (-0.0575306 0.00511867 0)
  (-0.0627742 0.00183013 0)
  (-0.064194 -2.61127e-05 0)
  (-0.0642654 -0.00109394 0)
  (-0.0642124 -0.00226087 0)
  (-0.0647545 -0.00418132 0)
  (-0.0663412 -0.00730732 0)
  (-0.0693212 -0.0119103 0)
  (-0.0739631 -0.0179364 0)
  (-0.0804957 -0.0247874 0)
  (-0.0892906 -0.0312031 0)
  (-0.100516 -0.0349574 0)
  (-0.111313 -0.0317759 0)
  (-0.115677 -0.017629 0)
  (-0.11229 -0.00503511 0)
  (-0.106444 0.00138795 0)
  (-0.101087 0.00303436 0)
  (-0.097537 0.00251968 0)
  (-0.095347 0.000512553 0)
  (-0.0940893 -0.001759 0)
  (-0.0927291 -0.00293047 0)
  (-0.0906771 -0.00419933 0)
  (-0.0883245 -0.00519928 0)
  (-0.0856987 -0.0060103 0)
  (-0.0827881 -0.00675214 0)
  (-0.0795777 -0.00757475 0)
  (-0.0759819 -0.0087083 0)
  (-0.071833 -0.0105423 0)
  (-0.0670089 -0.0136116 0)
  (-0.0612919 -0.0181064 0)
  (-0.0538519 -0.0231856 0)
  (-0.0428626 -0.0305252 0)
  (-0.0281916 -0.0400854 0)
  (0.00400341 -0.0541279 0)
  (0.0611028 -0.0376766 0)
  (-0.0533348 0.00901988 0)
  (0.672214 0.32066 0)
  (-0.243111 0.0931569 0)
  (-0.019783 0.0201643 0)
  (-0.0100093 0.0150417 0)
  (-0.0235347 0.01463 0)
  (-0.0360659 0.00732502 0)
  (-0.0422188 0.00160377 0)
  (-0.0443649 -0.000895074 0)
  (-0.0448026 -0.00212901 0)
  (-0.0451665 -0.00328977 0)
  (-0.0463216 -0.00510534 0)
  (-0.0488848 -0.00800731 0)
  (-0.0532281 -0.0121007 0)
  (-0.0595172 -0.0169622 0)
  (-0.0677536 -0.0215176 0)
  (-0.0773549 -0.0238844 0)
  (-0.0860609 -0.0216757 0)
  (-0.0909495 -0.0148313 0)
  (-0.0913934 -0.00789726 0)
  (-0.089083 -0.00329422 0)
  (-0.086007 -0.00115595 0)
  (-0.0831669 -0.000906084 0)
  (-0.0810028 -0.00203862 0)
  (-0.0796173 -0.003647 0)
  (-0.078589 -0.00495501 0)
  (-0.0776006 -0.0061841 0)
  (-0.076627 -0.00727922 0)
  (-0.075655 -0.00823091 0)
  (-0.0746964 -0.009101 0)
  (-0.0738005 -0.0100231 0)
  (-0.0730308 -0.011256 0)
  (-0.0724487 -0.0132627 0)
  (-0.0720515 -0.0167036 0)
  (-0.0715017 -0.0221784 0)
  (-0.0699497 -0.0300541 0)
  (-0.0663276 -0.041423 0)
  (-0.0586643 -0.0554722 0)
  (-0.0408921 -0.0645914 0)
  (0.00393449 -0.0426337 0)
  (-0.140194 0.0700915 0)
  (0.688088 0.350993 0)
  (-0.248722 0.0750239 0)
  (0.013204 -0.0284731 0)
  (0.0415442 0.00732946 0)
  (0.0295508 0.0273828 0)
  (0.00920049 0.0205192 0)
  (-0.00436756 0.00770087 0)
  (-0.0115316 0.0013172 0)
  (-0.0158065 -0.00137589 0)
  (-0.0177495 -0.00267806 0)
  (-0.0191529 -0.00364889 0)
  (-0.021243 -0.00506702 0)
  (-0.0247073 -0.00739212 0)
  (-0.0298688 -0.0105191 0)
  (-0.0366866 -0.0137232 0)
  (-0.044519 -0.0156533 0)
  (-0.0517647 -0.0149022 0)
  (-0.0566656 -0.0116765 0)
  (-0.0586784 -0.00790857 0)
  (-0.0585757 -0.00499384 0)
  (-0.0574325 -0.00336791 0)
  (-0.0560422 -0.00295637 0)
  (-0.0549029 -0.00351123 0)
  (-0.0542205 -0.00455294 0)
  (-0.0539027 -0.00565785 0)
  (-0.0538137 -0.00673866 0)
  (-0.0539024 -0.00771387 0)
  (-0.0541475 -0.00853662 0)
  (-0.0545795 -0.00920652 0)
  (-0.0553103 -0.00979242 0)
  (-0.0565665 -0.0104959 0)
  (-0.0587185 -0.011741 0)
  (-0.0622312 -0.014221 0)
  (-0.0675009 -0.0188326 0)
  (-0.0748776 -0.0265623 0)
  (-0.0843525 -0.0380488 0)
  (-0.0924371 -0.0514076 0)
  (-0.0918534 -0.0575189 0)
  (-0.0992794 -0.034296 0)
  (-0.201217 0.0523046 0)
  (0.779301 0.364199 0)
  (-0.0632589 0.0310844 0)
  (0.0878224 -0.0864605 0)
  (0.137164 -0.0131478 0)
  (0.101031 0.0325026 0)
  (0.0618974 0.0321703 0)
  (0.0437549 0.0191371 0)
  (0.0344328 0.009177 0)
  (0.0268647 0.00327471 0)
  (0.0208125 1.68719e-05 0)
  (0.0167031 -0.0015969 0)
  (0.0137786 -0.00257986 0)
  (0.0107387 -0.00374199 0)
  (0.00677018 -0.00540639 0)
  (0.00159385 -0.00739142 0)
  (-0.00454335 -0.00898632 0)
  (-0.0104282 -0.00924884 0)
  (-0.0149889 -0.00813144 0)
  (-0.0177254 -0.00644737 0)
  (-0.0189364 -0.00493394 0)
  (-0.0192009 -0.00397039 0)
  (-0.0190573 -0.00366134 0)
  (-0.0189167 -0.00394288 0)
  (-0.0190108 -0.00459734 0)
  (-0.019378 -0.00539841 0)
  (-0.0199871 -0.00622311 0)
  (-0.0208075 -0.00697769 0)
  (-0.021797 -0.00758555 0)
  (-0.0229241 -0.00798007 0)
  (-0.0242015 -0.00811823 0)
  (-0.0257411 -0.00802819 0)
  (-0.027835 -0.0078945 0)
  (-0.0310463 -0.00818366 0)
  (-0.036354 -0.00984384 0)
  (-0.0455084 -0.0144993 0)
  (-0.0606281 -0.0240591 0)
  (-0.0800935 -0.0399826 0)
  (-0.0971958 -0.0641198 0)
  (-0.132025 -0.0980925 0)
  (-0.333259 -0.141193 0)
  (0.906662 0.346849 0)
  (0.42061 0.17151 0)
  (0.194813 0.0764397 0)
  (0.248238 0.10195 0)
  (0.161018 0.102179 0)
  (0.0960406 0.0745059 0)
  (0.0774637 0.04607 0)
  (0.0726368 0.0269615 0)
  (0.067917 0.0156383 0)
  (0.0632216 0.00898073 0)
  (0.059442 0.00514618 0)
  (0.0562149 0.00298337 0)
  (0.053077 0.00162012 0)
  (0.0496684 0.000456602 0)
  (0.0457813 -0.00072916 0)
  (0.0414373 -0.0018183 0)
  (0.036997 -0.00247652 0)
  (0.0330765 -0.0025201 0)
  (0.0300945 -0.0021422 0)
  (0.0280501 -0.00164746 0)
  (0.0267167 -0.00127876 0)
  (0.0257953 -0.00116316 0)
  (0.0250096 -0.00132798 0)
  (0.0241657 -0.00171188 0)
  (0.0231786 -0.00221948 0)
  (0.0220055 -0.00276227 0)
  (0.0206372 -0.00328403 0)
  (0.0191136 -0.00373249 0)
  (0.0175126 -0.00404721 0)
  (0.0159415 -0.00416448 0)
  (0.0145296 -0.00403895 0)
  (0.0134165 -0.00368868 0)
  (0.012744 -0.0032722 0)
  (0.0126194 -0.00321646 0)
  (0.0129266 -0.00428822 0)
  (0.0132636 -0.00703317 0)
  (0.0147428 -0.0106897 0)
  (0.0224073 -0.0176684 0)
  (0.0537356 -0.0566433 0)
  (-0.210718 -0.146922 0)
  (-1.49484 0.0669304 0)
  (0.0363647 0.125869 0)
  (0.0190714 0.0919055 0)
  (0.0295535 0.0599866 0)
  (0.0596759 0.0383644 0)
  (0.0809887 0.0258971 0)
  (0.090464 0.0201968 0)
  (0.0942524 0.0183037 0)
  (0.0960039 0.0181505 0)
  (0.0967244 0.0184739 0)
  (0.0965908 0.0185575 0)
  (0.0956524 0.0180997 0)
  (0.0938797 0.0170637 0)
  (0.0913285 0.0156126 0)
  (0.0882862 0.0140535 0)
  (0.0851186 0.012629 0)
  (0.0821598 0.0114252 0)
  (0.0795807 0.0104098 0)
  (0.0774329 0.00944099 0)
  (0.0755995 0.00850611 0)
  (0.0739404 0.0075796 0)
  (0.0723324 0.00664726 0)
  (0.0706946 0.00571596 0)
  (0.0689528 0.00483347 0)
  (0.0670716 0.00398606 0)
  (0.065072 0.00316795 0)
  (0.0630137 0.00238319 0)
  (0.0609961 0.00162677 0)
  (0.059165 0.000855029 0)
  (0.0577116 -6.91698e-05 0)
  (0.0568515 -0.00146871 0)
  (0.0567619 -0.00397245 0)
  (0.0574414 -0.00854734 0)
  (0.0585809 -0.0161409 0)
  (0.0600298 -0.027105 0)
  (0.0621642 -0.0427189 0)
  (0.0790106 -0.0715025 0)
  (-0.0415075 -0.123828 0)
  (-0.642684 0.0931985 0)
  (0.218676 0.0426472 0)
  (0.0926337 -9.15994e-05 0)
  (0.0778279 -0.0187462 0)
  (0.102027 -0.0377756 0)
  (0.123957 -0.0563738 0)
  (0.135368 -0.0722257 0)
  (0.140041 -0.0846626 0)
  (0.141442 -0.0932968 0)
  (0.141156 -0.098148 0)
  (0.139925 -0.0998459 0)
  (0.138222 -0.0993361 0)
  (0.136329 -0.0975251 0)
  (0.13434 -0.09509 0)
  (0.132279 -0.092444 0)
  (0.130194 -0.0898363 0)
  (0.128159 -0.0874456 0)
  (0.126235 -0.0853933 0)
  (0.124381 -0.0836625 0)
  (0.122553 -0.0822738 0)
  (0.120698 -0.0812078 0)
  (0.118754 -0.0804185 0)
  (0.116669 -0.0798341 0)
  (0.114467 -0.0791578 0)
  (0.112149 -0.0784661 0)
  (0.109735 -0.0778156 0)
  (0.107249 -0.0772298 0)
  (0.104726 -0.0767209 0)
  (0.102221 -0.076306 0)
  (0.0997898 -0.0760237 0)
  (0.0974511 -0.0759503 0)
  (0.0950964 -0.0762121 0)
  (0.09236 -0.0769736 0)
  (0.0884896 -0.0783673 0)
  (0.0824673 -0.0803933 0)
  (0.0728534 -0.0830725 0)
  (0.0777727 -0.0881827 0)
  (-0.0674341 -0.103933 0)
  (0.514275 0.206284 0)
  (0.279817 -0.150586 0)
  (-0.134529 0.156861 0)
  (0.213338 0.122872 0)
  (0.223292 0.133503 0)
  (0.189682 0.160315 0)
  (0.182301 0.189805 0)
  (0.184205 0.220475 0)
  (0.183956 0.249143 0)
  (0.181734 0.272616 0)
  (0.179902 0.289109 0)
  (0.17925 0.298354 0)
  (0.179515 0.301336 0)
  (0.180273 0.299715 0)
  (0.181202 0.295206 0)
  (0.182067 0.289176 0)
  (0.182708 0.282556 0)
  (0.183039 0.275934 0)
  (0.183031 0.269689 0)
  (0.182673 0.264057 0)
  (0.18196 0.259105 0)
  (0.180902 0.254874 0)
  (0.179503 0.251337 0)
  (0.177772 0.248423 0)
  (0.17573 0.24603 0)
  (0.173372 0.243701 0)
  (0.170763 0.241483 0)
  (0.167921 0.239432 0)
  (0.164827 0.237558 0)
  (0.161441 0.235833 0)
  (0.157684 0.234212 0)
  (0.153413 0.232628 0)
  (0.148371 0.230995 0)
  (0.142133 0.229188 0)
  (0.134022 0.227028 0)
  (0.123012 0.224298 0)
  (0.107738 0.220838 0)
  (0.0869996 0.216899 0)
  (0.0834433 0.211559 0)
  (-0.137236 0.263853 0)
)
;

boundaryField
{
  floor
  {
    type noSlip;
  }
  ceiling
  {
    type noSlip;
  }
  sWall
  {
    type noSlip;
  }
  nWall
  {
    type noSlip;
  }
  sideWalls
  {
    type empty;
  }
  glass1
  {
    type noSlip;
  }
  glass2
  {
    type noSlip;
  }
  sun
  {
    type noSlip;
  }
  heatsource1
  {
    type noSlip;
  }
  heatsource2
  {
    type noSlip;
  }
  Table_master
  {
    type noSlip;
  }
  Table_slave
  {
    type noSlip;
  }
  inlet
  {
    type fixedValue;
    value uniform (0.3 0 0);
  }
  outlet
  {
    type zeroGradient;
  }
} 	// ************************************************************************* //

