/*--------------------------------*- C++ -*----------------------------------*\
  =========                 |
  \\      /  F ield         | OpenFOAM: The Open Source CFD Toolbox
   \\    /   O peration     | Website:  https://openfoam.org
    \\  /    A nd           | Version:  6
     \\/     M anipulation  |
\*---------------------------------------------------------------------------*/
FoamFile
{
    version     2.0;
    format      ascii;
    class       volScalarField;
    location    "700";
    object      nut;
}
// * * * * * * * * * * * * * * * * * * * * * * * * * * * * * * * * * * * * * //

dimensions      [0 2 -1 0 0 0 0];

internalField   nonuniform List<scalar> 
459
(
0.00112217
0.00122939
0.00125832
0.00132087
0.00137981
0.00143699
0.00149638
0.00154387
0.00157102
0.001571
0.00153923
0.00147231
0.00136351
0.00117761
0.000918418
0.000492538
0.000582588
0.000668121
0.000698351
0.000689584
0.000666285
0.000623834
0.000579117
0.000538622
0.000503129
0.000472111
0.000444924
0.000420878
0.000399616
0.000380293
0.000361932
0.000343244
0.000329052
0.000299565
0.00150824
0.00370644
0.0035624
0.00414027
0.00471796
0.00527089
0.0056849
0.00605718
0.00638147
0.00662339
0.00675371
0.00674875
0.00657175
0.00611388
0.0048882
0.00116538
0.000829373
0.000494362
0.00116461
0.00171565
0.00216153
0.00243997
0.00243777
0.00180223
0.00150957
0.00131216
0.00116612
0.00105337
0.000963645
0.000891227
0.000823861
0.000756738
0.000695045
0.00064261
0.000745783
0.000378124
0.00182592
0.00501972
0.00438144
0.00531808
0.0057628
0.00609456
0.00635311
0.00663048
0.00693811
0.0072519
0.00753201
0.00774093
0.00781162
0.00764242
0.00699796
0.00510574
0.00120066
0.000838765
0.00137333
0.00196529
0.0025831
0.00304851
0.00298527
0.000877716
0.000766044
0.000676213
0.000604185
0.000546032
0.000498619
0.000459611
0.000427741
0.000402627
0.000440593
0.000517378
0.000857439
0.000434672
0.00212807
0.0063269
0.00437882
0.00551586
0.00577937
0.00587219
0.005996
0.00620373
0.00649759
0.00685895
0.0072321
0.00756393
0.00775978
0.00779875
0.00760421
0.00679547
0.00403765
0.00138081
0.00166448
0.00223208
0.00295308
0.00365259
0.00414025
0.00390622
0.000998275
0.000903753
0.000834728
0.000780725
0.000734205
0.000692899
0.000652865
0.000611072
0.000563483
0.00052427
0.000541567
0.0010038
0.000480245
0.00243515
0.00801585
0.00473279
0.00536494
0.00567273
0.00564519
0.00569161
0.00586043
0.00613966
0.00652499
0.00693021
0.00726657
0.00746556
0.00751434
0.00743355
0.00716377
0.00638797
0.00563024
0.0054486
0.00556288
0.00578137
0.00596753
0.0060254
0.00579135
0.00476765
0.00424595
0.0039263
0.00367965
0.00343349
0.00310407
0.00270248
0.002242
0.00175089
0.00128808
0.000962389
0.00100687
0.000656077
0.000591435
0.000713273
0.000802804
0.00276214
0.00988251
0.00638857
0.00541937
0.00577957
0.00571904
0.00571801
0.00580515
0.00603216
0.00640383
0.0068282
0.00717361
0.00734377
0.00733096
0.00722298
0.00714031
0.00713055
0.00722745
0.00740983
0.00755427
0.0075885
0.00750071
0.00729402
0.00695151
0.00642268
0.00594119
0.00552409
0.00513919
0.00475856
0.00434356
0.00386929
0.00332839
0.00272727
0.00210847
0.00159815
0.00122111
0.000937891
0.000799515
0.00112585
0.000841895
0.00306335
0.0111964
0.00890438
0.00686923
0.00660814
0.00626249
0.0059704
0.00590346
0.00610084
0.00650284
0.00696653
0.00732214
0.00745881
0.00738903
0.00727011
0.00734053
0.00771349
0.00819281
0.00851306
0.00858626
0.00844221
0.00814244
0.00773329
0.00723911
0.00667952
0.00613221
0.00562244
0.00514839
0.00471144
0.00432117
0.00398505
0.00360592
0.00314898
0.0026245
0.00215029
0.00173655
0.00143553
0.00133002
0.00131241
0.0009701
0.00312498
0.00995663
0.00877052
0.00796797
0.00715815
0.00635899
0.00592515
0.00592196
0.00627451
0.00682444
0.00736326
0.00769898
0.00775094
0.00760821
0.00754125
0.00785285
0.00844546
0.00883634
0.00891455
0.00873483
0.00835539
0.00783461
0.00721695
0.00654543
0.00587477
0.00525967
0.00472022
0.00426292
0.00389729
0.00363242
0.00346976
0.00338136
0.00323338
0.00294362
0.00270904
0.00260616
0.00269995
0.0029798
0.00366299
0.00145394
0.00304741
0.0036233
0.00406012
0.00412293
0.00421307
0.00451285
0.00507776
0.00587826
0.0067804
0.00758666
0.00810025
0.00820093
0.00797075
0.00777146
0.00795052
0.00826595
0.00848934
0.00849796
0.0082707
0.00784227
0.00725938
0.00656776
0.00581689
0.00507595
0.00441111
0.0038578
0.00341828
0.0030816
0.00283165
0.00264848
0.00251112
0.00240595
0.00233325
0.00228513
0.00226613
0.00226817
0.00224301
0.00215027
0.00200198
0.00134439
0.00168892
0.00310844
0.00497034
0.00647161
0.00764115
0.0085089
0.00898784
0.00906007
0.00876513
0.00820394
0.00765124
0.00741622
0.00747733
0.00751717
0.00738914
0.00707489
0.0065905
0.00597415
0.00528471
0.00459104
0.00395925
0.00342838
0.00301041
0.00269527
0.00246646
0.00230903
0.0022085
0.00215363
0.00213797
0.00215287
0.0021848
0.00222744
0.00227297
0.00230287
0.00228874
0.00221891
0.00195035
0.0010698
0.0020554
0.00482639
0.00695641
0.00800042
0.0086239
0.00863192
0.0081885
0.00751164
0.00681675
0.00626901
0.00590069
0.0056882
0.0055172
0.00529246
0.00499396
0.00462055
0.00418658
0.00373112
0.00330392
0.00294185
0.00265778
0.00244473
0.00228799
0.00217367
0.00209153
0.00203608
0.00200682
0.00200441
0.00202757
0.00207487
0.00214265
0.00222297
0.00229937
0.00234946
0.00234831
0.00226525
0.00166863
0.0010929
0.00178842
0.00188298
0.00195087
0.00203505
0.00188261
0.00178491
0.00172194
0.00163319
0.00150985
0.00137049
0.00123229
0.0011091
0.00101103
0.000939118
0.000885885
0.000843231
0.000805727
0.000770699
0.000737957
0.000708863
0.000684971
0.000667121
0.00065537
0.000649424
0.000649108
0.00065459
0.000666282
0.000684601
0.0007099
0.000742288
0.000781571
0.000827701
0.000880762
0.000940701
0.00100626
0.00107637
0.00108082
0.000965427
0.000919808
0.00109784
)
;

boundaryField
{
    floor
    {
        type            nutkWallFunction;
        Cmu             0.09;
        kappa           0.41;
        E               9.8;
        value           nonuniform List<scalar> 
29
(
0.000111076
5.87569e-05
7.01665e-05
8.08052e-05
8.45257e-05
8.34493e-05
8.05799e-05
7.532e-05
6.97321e-05
6.46263e-05
6.01121e-05
5.61347e-05
5.26218e-05
4.94921e-05
4.67058e-05
4.41572e-05
4.17202e-05
3.92232e-05
3.7315e-05
3.33153e-05
3.33152e-05
4.38682e-05
5.12873e-05
5.71774e-05
0.000111076
5.87568e-05
5.89894e-05
0.000101561
0.000164675
)
;
    }
    ceiling
    {
        type            nutkWallFunction;
        Cmu             0.09;
        kappa           0.41;
        E               9.8;
        value           nonuniform List<scalar> 
43
(
0.000210102
0.000220485
0.000227908
0.000237172
0.000220573
0.000209847
0.000202895
0.000193043
0.00017925
0.000163511
0.000147727
0.000133489
0.000122026
0.00011354
0.00010721
0.000102106
9.75926e-05
9.33549e-05
8.93731e-05
8.58172e-05
8.28839e-05
8.06842e-05
7.9232e-05
7.84958e-05
7.84559e-05
7.91337e-05
8.05776e-05
8.28344e-05
8.59393e-05
8.98954e-05
9.46666e-05
0.000100234
0.000106593
0.000113723
0.000121462
0.000129674
0.000130193
0.000116648
0.000111244
0.00013218
0.00034506
0.000404577
0.000239157
)
;
    }
    sWall
    {
        type            nutkWallFunction;
        Cmu             0.09;
        kappa           0.41;
        E               9.8;
        value           uniform 0.00021016;
    }
    nWall
    {
        type            nutkWallFunction;
        Cmu             0.09;
        kappa           0.41;
        E               9.8;
        value           nonuniform List<scalar> 6(9.72338e-05 0.00010194 0.000117204 0.000128916 0.00013161 0.000132188);
    }
    sideWalls
    {
        type            empty;
    }
    glass1
    {
        type            nutkWallFunction;
        Cmu             0.09;
        kappa           0.41;
        E               9.8;
        value           nonuniform List<scalar> 9(0.000135124 0.000179298 0.000214688 0.000247726 0.000280792 0.000315519 0.00034713 0.000353568 0.000345492);
    }
    glass2
    {
        type            nutkWallFunction;
        Cmu             0.09;
        kappa           0.41;
        E               9.8;
        value           nonuniform List<scalar> 2(0.000173026 0.000160605);
    }
    sun
    {
        type            nutkWallFunction;
        Cmu             0.09;
        kappa           0.41;
        E               9.8;
        value           nonuniform List<scalar> 
14
(
0.000135008
0.00014739
0.000150711
0.000157862
0.000164566
0.000171038
0.000177733
0.000183064
0.000186102
0.0001861
0.000182541
0.00017502
0.000162712
0.000141417
)
;
    }
    heatsource1
    {
        type            nutkWallFunction;
        Cmu             0.09;
        kappa           0.41;
        E               9.8;
        value           nonuniform List<scalar> 3(7.12744e-05 8.63514e-05 9.72331e-05);
    }
    heatsource2
    {
        type            nutkWallFunction;
        Cmu             0.09;
        kappa           0.41;
        E               9.8;
        value           nonuniform List<scalar> 4(0.000140005 0.000100437 0.000100437 0.000144077);
    }
    Table_master
    {
        type            nutkWallFunction;
        Cmu             0.09;
        kappa           0.41;
        E               9.8;
        value           nonuniform List<scalar> 9(0.000106231 9.27871e-05 8.18046e-05 7.28727e-05 6.55671e-05 5.95401e-05 5.45283e-05 5.03941e-05 4.7109e-05);
    }
    Table_slave
    {
        type            nutkWallFunction;
        Cmu             0.09;
        kappa           0.41;
        E               9.8;
        value           nonuniform List<scalar> 9(0.000120523 0.000109336 0.000101081 9.45665e-05 8.89124e-05 8.38562e-05 7.89211e-05 7.37302e-05 6.77667e-05);
    }
    inlet
    {
        type            calculated;
        value           uniform 0.000100623;
    }
    outlet
    {
        type            calculated;
        value           nonuniform List<scalar> 2(0.00178842 0.00188298);
    }
}


// ************************************************************************* //
