/*--------------------------------*- C++ -*----------------------------------*\
  =========                 |
  \\      /  F ield         | OpenFOAM: The Open Source CFD Toolbox
   \\    /   O peration     | Website:  https://openfoam.org
    \\  /    A nd           | Version:  6
     \\/     M anipulation  |
\*---------------------------------------------------------------------------*/
FoamFile
{
    version     2.0;
    format      ascii;
    class       volScalarField;
    location    "700";
    object      nut;
}
// * * * * * * * * * * * * * * * * * * * * * * * * * * * * * * * * * * * * * //

dimensions      [0 2 -1 0 0 0 0];

internalField   nonuniform List<scalar> 
459
(
0.000654003
0.000671429
0.000578264
0.000590245
0.000608439
0.000627518
0.000646177
0.000663797
0.000680248
0.000695194
0.000707883
0.000717108
0.000721385
0.000718678
0.000702948
0.000251871
0.000387286
0.000335771
0.000294338
0.000267442
0.000253673
0.00025026
0.000257122
0.000268679
0.000281231
0.000292562
0.000301564
0.000312077
0.000323231
0.000333651
0.00034462
0.000346916
0.000319816
0.000333068
0.00119745
0.00232303
0.00158968
0.0024814
0.00282067
0.00297659
0.00309741
0.00319611
0.00326955
0.00330833
0.0032947
0.00319763
0.00296446
0.00251014
0.00174604
0.00078831
0.000527293
0.000476914
0.00103007
0.000978838
0.000825289
0.000674722
0.000569434
0.000489822
0.000553669
0.000648419
0.000745407
0.000841531
0.000935135
0.000976453
0.000940891
0.000839804
0.000839297
0.000744555
0.000786516
0.000394115
0.00171729
0.00451808
0.00205014
0.00290133
0.0039973
0.00439818
0.00459064
0.00471407
0.0047863
0.00479975
0.00473461
0.0045554
0.00420527
0.00361101
0.00273896
0.0017314
0.000876841
0.000681553
0.00198477
0.00179909
0.00149707
0.00116894
0.000816766
0.000314703
0.000324838
0.000354644
0.00038434
0.000412438
0.000439087
0.000463338
0.000485446
0.000516766
0.00132108
0.00131879
0.00113624
0.000468548
0.00220945
0.00730865
0.00366294
0.00298643
0.00409627
0.00488495
0.00530617
0.00556845
0.00575017
0.00586148
0.00589115
0.00580879
0.00555656
0.00504611
0.00418734
0.00299283
0.00176245
0.00103588
0.00329267
0.00326949
0.00283453
0.00231849
0.00176305
0.0012154
0.000793732
0.000779875
0.000769124
0.000759157
0.00075017
0.000743083
0.000739598
0.000742501
0.000757977
0.0019634
0.00190153
0.00157277
0.00061842
0.00264772
0.0101484
0.00642937
0.00432398
0.00406756
0.00458536
0.00525466
0.00579617
0.00622655
0.00656482
0.00682106
0.00699557
0.0070763
0.00704101
0.00686721
0.00654968
0.00613279
0.00576388
0.00587025
0.00565611
0.00541288
0.00518666
0.0049637
0.00473614
0.00452405
0.00438977
0.00425458
0.00411055
0.0039548
0.00378498
0.00359851
0.00339316
0.00317115
0.00294472
0.002468
0.00190153
0.00134445
0.000714723
0.000687921
0.000682952
0.00303172
0.0123735
0.00958435
0.00686059
0.00523141
0.0044996
0.0046372
0.00526835
0.00597601
0.0066241
0.00717262
0.00761336
0.00794932
0.00818111
0.0083
0.00829205
0.00815261
0.00791233
0.00765425
0.00739772
0.00717592
0.00698591
0.00681069
0.00663355
0.00644432
0.00624324
0.00602941
0.00580224
0.00555974
0.00529856
0.00501324
0.00469507
0.00433097
0.00390413
0.00339922
0.00284438
0.00229122
0.00180059
0.00140478
0.000881837
0.00334207
0.0130163
0.0110329
0.00896987
0.00711688
0.00561056
0.00471903
0.00457228
0.00511686
0.00590541
0.00675023
0.00750146
0.00810579
0.00856937
0.00890197
0.00909387
0.00912997
0.00902358
0.00883181
0.00861144
0.00839537
0.0081926
0.00799684
0.0077955
0.0075771
0.00733866
0.00708277
0.00681144
0.00652556
0.00622511
0.00590881
0.00557282
0.00520907
0.00480458
0.00434229
0.003803
0.00317501
0.00250522
0.00189424
0.00106173
0.00332062
0.0105663
0.00981611
0.00968315
0.00837459
0.00677408
0.00552518
0.00478965
0.00459825
0.00496211
0.00574613
0.0066535
0.00748223
0.008175
0.0087322
0.00914272
0.00937942
0.00945509
0.00940938
0.00928923
0.00913093
0.0089561
0.00877155
0.00857413
0.0083564
0.00811511
0.00785175
0.00756891
0.00726925
0.00695538
0.0066296
0.00629313
0.0059455
0.00558423
0.00520246
0.00478224
0.0042755
0.00360599
0.00280251
0.00121002
0.00314627
0.00370495
0.0122846
0.0121972
0.00976604
0.0075679
0.00613991
0.00535757
0.00506809
0.00516265
0.00553724
0.00607711
0.00669032
0.00732236
0.00793424
0.00847994
0.00889674
0.00916438
0.00930122
0.00933391
0.0092911
0.00920015
0.00907723
0.00892881
0.0087531
0.00854897
0.00831809
0.00806332
0.00778773
0.00749436
0.00718594
0.00686435
0.00653152
0.00619093
0.00584173
0.00548025
0.0050837
0.00457222
0.00375355
0.00135899
0.0247154
0.0204556
0.0115626
0.00849888
0.00725425
0.0066061
0.0063408
0.00635033
0.00652608
0.00678028
0.00707132
0.007384
0.00771087
0.00804016
0.00835168
0.00862322
0.00883644
0.00897787
0.00904701
0.00906043
0.0090289
0.00895673
0.00884681
0.00870333
0.00853114
0.0083347
0.00811763
0.00788257
0.00763119
0.00736414
0.0070811
0.00678114
0.00646227
0.00612013
0.00573634
0.00524407
0.00437097
0.00154851
0.00793574
0.0154229
0.0110857
0.00851189
0.00718408
0.00657862
0.00645724
0.00665091
0.00699625
0.00734994
0.00765368
0.00789395
0.00808312
0.00824022
0.00837866
0.00850282
0.00861137
0.00870165
0.00877141
0.008819
0.00884035
0.00881468
0.00874897
0.00865316
0.00853559
0.00840208
0.00825601
0.00809852
0.00792889
0.00774474
0.00754217
0.00731583
0.00705836
0.00675854
0.00639646
0.00592358
0.00517956
0.00176224
0.000942675
0.00168732
0.00500628
0.0046909
0.00405678
0.00348662
0.00304
0.00269969
0.00244597
0.00226473
0.00214542
0.00207733
0.0020437
0.00202938
0.00202371
0.00202079
0.00201796
0.00201419
0.00200909
0.00200259
0.00199468
0.00198521
0.00197417
0.00196335
0.00195139
0.00193764
0.00192202
0.00190475
0.00188607
0.00186616
0.00184503
0.00182255
0.00179836
0.00177189
0.00174223
0.00170789
0.0016663
0.00161295
0.00154231
0.00132283
)
;

boundaryField
{
    floor
    {
        type            nutkWallFunction;
        Cmu             0.09;
        kappa           0.41;
        E               9.8;
        value           nonuniform List<scalar> 
29
(
8.50809e-05
2.66986e-05
4.50236e-05
3.81368e-05
3.25338e-05
2.88542e-05
2.69532e-05
2.6483e-05
2.74435e-05
2.9049e-05
3.07817e-05
3.23379e-05
3.35712e-05
3.50048e-05
3.6521e-05
3.79331e-05
3.94123e-05
3.97186e-05
3.60602e-05
3.78442e-05
3.78441e-05
4.59806e-05
5.56795e-05
7.46907e-05
8.50809e-05
2.66985e-05
5.66207e-05
8.23819e-05
0.000124926
)
;
    }
    ceiling
    {
        type            nutkWallFunction;
        Cmu             0.09;
        kappa           0.41;
        E               9.8;
        value           nonuniform List<scalar> 
43
(
0.000113991
0.000199504
0.000545399
0.000513793
0.000449744
0.000391326
0.000344902
0.000309066
0.000282044
0.000262561
0.000249641
0.000242227
0.000238548
0.000236973
0.000236344
0.000236017
0.000235702
0.000235286
0.000234724
0.000234009
0.00023314
0.0002321
0.000230888
0.000229699
0.000228385
0.000226873
0.000225157
0.000223257
0.000221201
0.000219006
0.000216677
0.000214194
0.00021152
0.000208589
0.0002053
0.000201488
0.000196859
0.000190906
0.000182995
0.000158156
0.000355521
0.000413172
0.00082984
)
;
    }
    sWall
    {
        type            nutkWallFunction;
        Cmu             0.09;
        kappa           0.41;
        E               9.8;
        value           uniform 0.000113998;
    }
    nWall
    {
        type            nutkWallFunction;
        Cmu             0.09;
        kappa           0.41;
        E               9.8;
        value           nonuniform List<scalar> 6(8.26086e-05 0.000106736 0.000128022 0.000183706 0.000207507 0.000158165);
    }
    sideWalls
    {
        type            empty;
    }
    glass1
    {
        type            nutkWallFunction;
        Cmu             0.09;
        kappa           0.41;
        E               9.8;
        value           nonuniform List<scalar> 9(7.89826e-05 0.00014384 0.000202667 0.000256552 0.000303456 0.000343887 0.000376176 0.000373972 0.000355885);
    }
    glass2
    {
        type            nutkWallFunction;
        Cmu             0.09;
        kappa           0.41;
        E               9.8;
        value           nonuniform List<scalar> 2(0.00014525 0.000162306);
    }
    sun
    {
        type            nutkWallFunction;
        Cmu             0.09;
        kappa           0.41;
        E               9.8;
        value           nonuniform List<scalar> 
14
(
7.90333e-05
8.11854e-05
6.96009e-05
7.11074e-05
7.33841e-05
7.57625e-05
7.80815e-05
8.02637e-05
8.22947e-05
8.41346e-05
8.56928e-05
8.68232e-05
8.73459e-05
8.70125e-05
)
;
    }
    heatsource1
    {
        type            nutkWallFunction;
        Cmu             0.09;
        kappa           0.41;
        E               9.8;
        value           nonuniform List<scalar> 3(8.65827e-05 8.32753e-05 8.26093e-05);
    }
    heatsource2
    {
        type            nutkWallFunction;
        Cmu             0.09;
        kappa           0.41;
        E               9.8;
        value           nonuniform List<scalar> 4(9.54686e-05 6.31584e-05 6.31583e-05 0.000106103);
    }
    Table_master
    {
        type            nutkWallFunction;
        Cmu             0.09;
        kappa           0.41;
        E               9.8;
        value           nonuniform List<scalar> 9(3.53539e-05 3.67305e-05 4.07311e-05 4.4677e-05 4.83775e-05 5.1859e-05 5.5008e-05 5.78633e-05 6.18753e-05);
    }
    Table_slave
    {
        type            nutkWallFunction;
        Cmu             0.09;
        kappa           0.41;
        E               9.8;
        value           nonuniform List<scalar> 9(9.61518e-05 9.44779e-05 9.31771e-05 9.19692e-05 9.08782e-05 9.00171e-05 8.95944e-05 8.99512e-05 9.18396e-05);
    }
    inlet
    {
        type            calculated;
        value           uniform 0.0247154;
    }
    outlet
    {
        type            calculated;
        value           nonuniform List<scalar> 2(0.000942675 0.00168732);
    }
}


// ************************************************************************* //
