/*--------------------------------*- C++ -*----------------------------------*\
  =========                 |
  \\      /  F ield         | OpenFOAM: The Open Source CFD Toolbox
   \\    /   O peration     | Website:  https://openfoam.org
    \\  /    A nd           | Version:  6
     \\/     M anipulation  |
\*---------------------------------------------------------------------------*/
FoamFile
{
    version     2.0;
    format      ascii;
    class       surfaceScalarField;
    location    "200";
    object      phi;
}
// * * * * * * * * * * * * * * * * * * * * * * * * * * * * * * * * * * * * * //

dimensions      [1 0 -1 0 0 0 0];

internalField   nonuniform List<scalar> 
852
(
-0.00204966
0.00209965
-0.00203694
-1.24988e-05
-0.00181745
-0.000219256
-0.00166509
-0.000152143
-0.00155492
-0.000109943
-0.00146917
-8.55265e-05
-0.00139955
-6.94074e-05
-0.00133893
-6.04059e-05
-0.00127871
-6.00033e-05
-0.0012074
-7.10947e-05
-0.00111036
-9.68201e-05
-0.00096926
-0.000140884
-0.000757718
-0.000211317
-0.0004363
-0.000321189
-0.000436451
-0.000106113
0.000108375
-8.10031e-05
-2.49989e-05
-1.65649e-05
-6.43177e-05
5.30529e-05
-6.94951e-05
0.000140527
-8.73512e-05
0.000263469
-0.000122819
0.000372661
-0.000109073
0.000465336
-9.25602e-05
0.000536024
-7.05766e-05
0.000591214
-5.508e-05
0.000637723
-4.64012e-05
0.000675566
-3.77384e-05
0.00068054
-4.87217e-06
0.000656469
2.41704e-05
0.000606553
5.00132e-05
0.000528608
7.80391e-05
0.000486391
4.23076e-05
0.000382921
0.000103553
0.000385416
-0.00145615
0.0036809
-0.00180952
0.00034111
-0.0018026
-0.000225924
-0.00175322
-0.000201271
-0.00169413
-0.000168794
-0.00163431
-0.000145106
-0.00157968
-0.0001238
-0.00153113
-0.000108725
-0.00148507
-0.000105823
-0.00143371
-0.00012222
-0.00136509
-0.000165203
-0.00126344
-0.000242296
-0.00111302
-0.000361494
-0.000908182
-0.000525775
-0.000632881
-0.000711494
0.000124546
-0.000757213
0.000124735
0.000382157
-0.00027054
0.000301589
5.57821e-05
0.000134897
0.000102568
2.48434e-05
4.07325e-05
-4.48233e-05
-1.75303e-05
-0.000144254
-2.32486e-05
-7.2263e-05
-0.000180921
-4.2835e-05
-0.000121855
-3.55297e-05
-7.77587e-05
-4.15974e-05
-4.88968e-05
-6.26826e-05
-2.52072e-05
-0.000103642
3.3209e-06
-0.000152204
4.37776e-05
-0.000198996
7.10395e-05
-0.000244594
9.56848e-05
-0.000323281
0.000156805
-0.00045492
0.000174035
-0.000526282
0.000175035
-0.000136387
-0.00101597
0.00487903
-0.00147501
0.000800415
-0.00162781
-7.28558e-05
-0.00167943
-0.000149385
-0.00167848
-0.000169485
-0.00165087
-0.000172462
-0.00161793
-0.000156489
-0.00159041
-0.000135998
-0.00157189
-0.000124095
-0.00156025
-0.000133614
-0.00154939
-0.000175816
-0.00153115
-0.000260288
-0.00149924
-0.000393143
-0.00145509
-0.000569671
-0.00140449
-0.000761816
-0.00123139
-0.000930032
-0.00110638
-0.000641077
0.000372382
-0.000732796
0.000147747
-0.000714581
8.45915e-05
-0.000706417
3.2796e-05
-0.000703055
-2.06819e-05
-0.000612256
-0.000113856
-0.000792886
-0.000914466
-0.000991961
-0.0010406
-0.00106557
-0.001062
-0.00101798
-0.000946695
-0.00085076
-0.000533801
-0.000160044
-0.000246877
-0.000112797
0.000104941
-0.000176707
-3.35316e-05
-0.000655546
0.00576329
-0.00108437
0.00122952
-0.00127385
0.000116922
-0.00141188
-1.10611e-05
-0.00150343
-7.76567e-05
-0.00153295
-0.000142675
-0.00153112
-0.000158053
-0.00152508
-0.000141781
-0.00153158
-0.000117337
-0.00155717
-0.000107773
-0.00160386
-0.000128865
-0.00167344
-0.000190454
-0.0017716
-0.000294719
-0.00190879
-0.000432212
-0.00208917
-0.000581153
-0.00231635
-0.000702569
-0.00276339
-0.000659046
-0.0024829
-0.000282904
-0.00209959
-1.06372e-05
-0.00203598
8.44266e-05
-0.0020478
9.67121e-05
-0.00209066
7.59575e-05
-0.00213937
2.83301e-05
-0.0022293
-2.36107e-05
-0.00220031
-2.88249e-05
-0.00215262
-4.75191e-05
-0.00208611
-6.63407e-05
-0.00200425
-8.16919e-05
-0.0019073
-9.67823e-05
-0.00179299
-0.000114147
-0.00165617
-0.000136665
-0.00148583
-0.000170204
-0.00125739
-0.000228319
-0.00108264
-0.00033454
-0.0007875
-0.000407685
-0.000515325
-0.00044863
-0.000558134
-0.000364097
0.00639645
-0.000690762
0.00155648
-0.000689375
0.000115873
-0.000795119
9.50203e-05
-0.00103628
0.000163815
-0.0012191
4.0441e-05
-0.00128979
-8.70878e-05
-0.00131124
-0.00012007
-0.00133184
-9.64646e-05
-0.00136927
-7.00844e-05
-0.0014316
-6.62681e-05
-0.00152365
-9.81469e-05
-0.0016492
-0.000168896
-0.00181005
-0.000271086
-0.00200596
-0.000384951
-0.00224265
-0.000465582
-0.00247365
-0.000427744
-0.00249494
-0.000261304
-0.00240794
-9.73248e-05
-0.00231888
-4.31274e-06
-0.0022565
3.46498e-05
-0.00221538
3.51695e-05
-0.0021934
6.68056e-06
-0.00218693
-2.97467e-05
-0.00215798
-5.7434e-05
-0.0021215
-8.36615e-05
-0.00207984
-0.000107654
-0.00203207
-0.00012912
-0.00197874
-0.00014977
-0.00192072
-0.000171824
-0.00185881
-0.000198246
-0.00179454
-0.000234147
-0.00173666
-0.00028587
-0.00172369
-0.00034719
-0.001732
-0.000399048
-0.00174417
-0.000436099
-0.00187981
-0.000422075
-0.00153757
-0.000341974
-0.0009554
-0.00058189
-0.00094964
-0.000313529
0.00701464
-0.000395864
0.00163914
4.72374e-05
-0.00032681
0.000157783
-1.5109e-05
-0.000167049
0.00048903
-0.000583987
0.000457709
-0.00083806
0.000167277
-0.000937269
-2.05825e-05
-0.000983927
-4.95326e-05
-0.00102633
-2.74036e-05
-0.00108402
-8.31029e-06
-0.00116746
-1.44355e-05
-0.00128238
-5.36916e-05
-0.00143044
-0.000122747
-0.00160989
-0.000205201
-0.00180881
-0.00026636
-0.00197527
-0.000260973
-0.0020479
-0.000188357
-0.0020417
-0.000103199
-0.00200256
-4.31188e-05
-0.00195495
-1.26287e-05
-0.00191034
-9.09603e-06
-0.00187697
-2.6339e-05
-0.00185336
-5.30072e-05
-0.00182993
-8.05089e-05
-0.00180525
-0.00010798
-0.00177848
-0.000134069
-0.00174856
-0.000158673
-0.00171528
-0.000182689
-0.00167906
-0.000207672
-0.00164087
-0.000236078
-0.001603
-0.000271659
-0.00157073
-0.000317783
-0.0015452
-0.000372371
-0.00151335
-0.000430542
-0.001465
-0.000484103
-0.00136864
-0.000518076
-0.00109585
-0.000614391
-0.000684159
-0.000993213
-0.00162937
-0.000703756
0.00805596
0.000126007
0.000809728
0.00119488
-0.00139521
0.0013181
-0.000137859
0.000838539
0.000969024
0.000308242
0.000988379
-0.000102888
0.000578729
-0.000350978
0.000227794
-0.000471117
7.08905e-05
-0.000532496
3.42627e-05
-0.00058117
4.06556e-05
-0.000642382
4.70716e-05
-0.00072921
3.34336e-05
-0.000844923
-6.73557e-06
-0.000985988
-6.38312e-05
-0.00113868
-0.000113355
-0.00126917
-0.000130154
-0.00134637
-0.000110834
-0.00137148
-7.77514e-05
-0.00136417
-5.00798e-05
-0.00134106
-3.53868e-05
-0.00131413
-3.5665e-05
-0.00129094
-4.91741e-05
-0.00127287
-7.07067e-05
-0.00125762
-9.53928e-05
-0.00124378
-0.000121441
-0.00122984
-0.000147632
-0.00121436
-0.000173766
-0.00119629
-0.000200376
-0.00117497
-0.000228601
-0.00115033
-0.000260334
-0.00112333
-0.000298268
-0.00109575
-0.000344976
-0.00106631
-0.000401432
-0.0010293
-0.000467174
-0.000974556
-0.000538466
-0.000879661
-0.000612597
-0.000747343
-0.000746339
-0.000582362
-0.00115783
-0.0022081
0.00221124
0.00622857
0.00343514
-0.000413802
0.00340868
-0.00136826
0.00250583
0.000765499
0.00159141
0.00188389
0.00100324
0.00157693
0.000627582
0.000954707
0.000368776
0.000486889
0.000205664
0.000234294
0.000115866
0.000124363
7.00716e-05
8.67599e-05
3.77826e-05
7.96751e-05
-4.56347e-06
7.60989e-05
-7.23665e-05
6.13967e-05
-0.000167101
3.12375e-05
-0.000274614
-5.50666e-06
-0.000371849
-3.25766e-05
-0.000440157
-4.21754e-05
-0.000476541
-4.10119e-05
-0.000488731
-3.75268e-05
-0.000486101
-3.76489e-05
-0.000477183
-4.42109e-05
-0.000467931
-5.80479e-05
-0.000461046
-7.72091e-05
-0.000456922
-9.91307e-05
-0.000455545
-0.000122427
-0.000456049
-0.000146733
-0.000457142
-0.000172275
-0.000457465
-0.00019965
-0.000455789
-0.000229872
-0.00045121
-0.000264505
-0.000443379
-0.000305691
-0.00043216
-0.000355785
-0.000416379
-0.000416804
-0.00039316
-0.000489985
-0.000357051
-0.00057417
-0.000301682
-0.000667564
-0.000241089
-0.000806535
-0.000194367
-0.00120417
-0.00238923
0.00663796
0.00620357
0.00454368
0.000292428
0.00205518
0.00325464
0.00120432
0.00273519
0.000970193
0.00181137
0.000931539
0.000993636
0.00091073
0.000507982
0.000885943
0.000259389
0.000871643
0.000138992
0.000873425
8.53247e-05
0.000880733
7.27221e-05
0.000882547
7.46453e-05
0.000869347
7.49612e-05
0.000834306
6.66459e-05
0.000778646
5.05304e-05
0.00071495
3.14994e-05
0.000658769
1.43901e-05
0.00061784
3.02356e-07
0.000591959
-1.12583e-05
0.000576473
-2.17712e-05
0.000566508
-3.38511e-05
0.000558712
-4.98545e-05
0.000550468
-6.85639e-05
0.000539946
-8.82044e-05
0.000525705
-0.000107778
0.000507791
-0.000128409
0.000487009
-0.00015108
0.000464414
-0.000176641
0.000441123
-0.000206164
0.000418176
-0.000241138
0.000396468
-0.000283561
0.000376927
-0.00033582
0.00036088
-0.000400334
0.000350159
-0.000478841
0.000346989
-0.000570581
0.000352489
-0.000672647
0.000355166
-0.000808801
0.000287901
-0.00113651
-0.00209041
-0.00445616
0.00248631
-0.00273725
0.00153639
-0.000747274
0.000745678
0.000483884
0.000580584
0.00112175
0.000356114
0.00145186
0.000178246
0.00164007
7.15659e-05
0.00176186
1.7615e-05
0.00185125
-3.63612e-06
0.00191222
1.21865e-05
0.00194996
3.73338e-05
0.00196734
5.80074e-05
0.00196598
6.84195e-05
0.00194844
6.84992e-05
0.0019192
6.11541e-05
0.00188399
5.00187e-05
0.00184703
3.76906e-05
0.00181175
2.44387e-05
0.00177971
1.06934e-05
0.0017509
-4.6162e-06
0.00172355
-2.20848e-05
0.0016955
-4.00946e-05
0.00166484
-5.71119e-05
0.00162982
-7.23404e-05
0.00159037
-8.8529e-05
0.00154663
-0.000106921
0.00149884
-0.000128418
0.00144719
-0.000154087
0.0013918
-0.000185324
0.00133264
-0.000223974
0.00126956
-0.000272307
0.00120245
-0.000332795
0.00113152
-0.000407485
0.00105771
-0.000496346
0.000980642
-0.000595154
0.000876125
-0.000703869
0.000619117
-0.000879093
-0.00146954
-0.000503129
0.00295988
0.00101789
1.60656e-05
0.00166106
0.00010311
0.00220343
3.87611e-05
0.00266191
-0.000101809
0.00297122
-0.000130502
0.00313796
-9.4608e-05
0.00319998
-4.38502e-05
0.00319257
4.31308e-06
0.00315728
4.79977e-05
0.00311877
7.63504e-05
0.00308713
9.01491e-05
0.00306333
9.27028e-05
0.00304421
8.80862e-05
0.00302613
7.97047e-05
0.00300678
6.98323e-05
0.00298532
5.96078e-05
0.00296106
4.91585e-05
0.00293374
3.8464e-05
0.0029019
2.76674e-05
0.00286293
1.73331e-05
0.00281681
6.47572e-06
0.00276427
-4.13294e-06
0.0027069
-1.45214e-05
0.00264457
-2.5768e-05
0.00257638
-3.82841e-05
0.00250107
-5.26806e-05
0.00241715
-6.9726e-05
0.00232269
-9.04347e-05
0.0022153
-0.000116145
0.002092
-0.000148583
0.00194956
-0.00018992
0.00178536
-0.000242854
0.00160019
-0.000310757
0.00140404
-0.000398576
0.00121359
-0.000513003
0.000973334
-0.000638432
-0.000495131
0.00443398
0.00233509
0.0052462
0.00521193
0.00526006
0.00523809
0.00506966
0.00486709
0.0046958
0.00457196
0.00449464
0.00446121
0.00445754
0.00446958
0.00448614
0.00449991
0.00450691
0.0045055
0.00449517
0.00447559
0.00444642
0.00440747
0.00435915
0.00430087
0.00423285
0.0041553
0.00406732
0.00396759
0.00385417
0.00372438
0.0035745
0.00339948
0.00319256
0.00294478
0.00264448
0.00227663
0.00182118
0.00125133
0.000555807
)
;

boundaryField
{
    floor
    {
        type            calculated;
        value           nonuniform List<scalar> 
29
(
0
0
0
0
0
0
0
0
0
0
0
0
0
0
0
0
0
0
0
0
-2.41853e-06
-4.31388e-06
2.17742e-06
9.55584e-06
3.81894e-07
-2.15623e-06
-2.99993e-06
-1.59507e-06
2.70058e-06
)
;
    }
    ceiling
    {
        type            calculated;
        value           nonuniform List<scalar> 
43
(
0.000143387
0.000112525
4.94231e-05
5.10218e-05
5.56792e-05
6.14398e-05
6.73112e-05
7.27605e-05
7.73578e-05
8.06451e-05
8.2273e-05
8.20519e-05
8.06225e-05
7.86849e-05
7.67003e-05
7.48684e-05
7.32318e-05
7.17695e-05
7.04482e-05
6.92417e-05
6.81313e-05
6.7101e-05
6.61355e-05
6.52298e-05
6.43563e-05
6.34956e-05
6.26744e-05
6.19032e-05
6.11834e-05
6.05127e-05
5.98884e-05
5.93091e-05
5.87756e-05
5.82919e-05
5.78673e-05
5.75213e-05
5.72923e-05
5.72564e-05
5.74994e-05
6.23601e-05
2.41245e-05
2.09781e-05
3.04767e-05
)
;
    }
    sWall
    {
        type            calculated;
        value           uniform -7.02208e-05;
    }
    nWall
    {
        type            calculated;
        value           nonuniform List<scalar> 6(-5.47242e-06 -4.05932e-06 -3.2718e-06 -1.35276e-06 -6.78082e-07 -1.29687e-06);
    }
    sideWalls
    {
        type            empty;
        value           nonuniform 0();
    }
    glass1
    {
        type            calculated;
        value           nonuniform List<scalar> 9(-4.97791e-05 -0.000124875 -0.000181939 -0.000228494 -0.000268835 -0.000304423 -0.000337317 -0.000383593 -0.000433233);
    }
    glass2
    {
        type            calculated;
        value           nonuniform List<scalar> 2(-1.28697e-05 -1.05421e-05);
    }
    sun
    {
        type            calculated;
        value           uniform 0;
    }
    heatsource1
    {
        type            calculated;
        value           nonuniform List<scalar> 3(1.99423e-07 1.9953e-07 1.99764e-07);
    }
    heatsource2
    {
        type            calculated;
        value           nonuniform List<scalar> 4(5.03327e-08 5.05075e-08 0 0);
    }
    Table_master
    {
        type            calculated;
        value           nonuniform List<scalar> 9(-1.52007e-07 -1.51919e-07 -1.51831e-07 -1.51753e-07 -1.51682e-07 -1.51617e-07 -1.51548e-07 -1.51467e-07 -1.5135e-07);
    }
    Table_slave
    {
        type            calculated;
        value           nonuniform List<scalar> 9(1.49991e-07 1.49984e-07 1.49982e-07 1.49986e-07 1.49996e-07 1.50011e-07 1.50033e-07 1.50066e-07 1.501e-07);
    }
    inlet
    {
        type            calculated;
        value           uniform 0.00226336;
    }
    outlet
    {
        type            calculated;
        value           nonuniform List<scalar> 2(-0.00450673 0.0019868);
    }
}


// ************************************************************************* //
