/*--------------------------------*- C++ -*----------------------------------*\
  =========                 |
  \\      /  F ield         | OpenFOAM: The Open Source CFD Toolbox
   \\    /   O peration     | Website:  https://openfoam.org
    \\  /    A nd           | Version:  6
     \\/     M anipulation  |
\*---------------------------------------------------------------------------*/
FoamFile
{
    version     2.0;
    format      ascii;
    class       volScalarField;
    location    "1300";
    object      epsilon;
}
// * * * * * * * * * * * * * * * * * * * * * * * * * * * * * * * * * * * * * //

dimensions      [0 2 -3 0 0 0 0];

internalField   nonuniform List<scalar> 
459
(
0.000426402
0.000552464
0.000584362
0.000672042
0.000760746
0.000851267
0.000948042
0.00104717
0.00112088
0.00115039
0.00111947
0.00102219
0.000866606
0.000676934
0.000492149
3.53441e-05
6.01824e-05
8.68336e-05
8.93691e-05
8.19901e-05
7.20461e-05
5.95806e-05
4.84371e-05
3.95895e-05
3.27154e-05
2.73489e-05
2.31142e-05
1.97403e-05
1.70166e-05
1.47479e-05
1.27682e-05
1.09239e-05
9.87628e-06
7.5793e-06
0.00107759
0.00157637
0.000518658
0.000501784
0.000524109
0.000563334
0.000623824
0.000704384
0.00078163
0.000830016
0.000829168
0.000773254
0.000670676
0.000543712
0.000438928
0.000519233
0.000123992
4.01222e-05
9.48435e-05
0.000105733
9.90813e-05
8.64154e-05
7.37501e-05
6.75724e-05
5.4645e-05
4.31188e-05
3.40268e-05
2.7052e-05
2.17247e-05
1.76494e-05
1.4546e-05
1.22681e-05
1.08699e-05
1.02749e-05
2.62262e-05
1.78721e-05
0.00196325
0.00387775
0.000637104
0.000474941
0.000495335
0.000555331
0.000647044
0.000764012
0.000872121
0.000936945
0.000940815
0.000884755
0.000780386
0.000653269
0.000534934
0.00047691
0.000566857
0.000266976
0.000209711
0.00016703
0.000134021
0.000108354
9.28259e-05
0.00017127
0.000118545
8.47011e-05
6.25215e-05
4.75741e-05
3.72105e-05
2.98438e-05
2.45258e-05
2.07021e-05
1.57943e-05
1.3252e-05
4.9462e-05
2.85054e-05
0.00317946
0.00807108
0.00100502
0.000476744
0.000479871
0.00056393
0.000702132
0.000877026
0.00101464
0.00108147
0.00107369
0.00100226
0.000878076
0.00073212
0.000603393
0.000519802
0.000501329
0.000908838
0.000526116
0.000323787
0.000220821
0.00016171
0.000124791
0.00010755
0.000248446
0.000190435
0.000155178
0.000131498
0.000113271
9.77796e-05
8.42504e-05
7.13833e-05
5.81182e-05
3.46048e-05
2.2412e-05
8.19472e-05
3.94145e-05
0.0048543
0.0144402
0.00198798
0.000556778
0.000481789
0.000593117
0.000841889
0.00110511
0.00125215
0.0012956
0.00125519
0.00114911
0.000991724
0.000808951
0.000632377
0.000488022
0.000389761
0.00034869
0.000286722
0.000230332
0.000184852
0.000149083
0.000121339
0.000102111
9.85916e-05
9.22141e-05
8.60375e-05
7.9879e-05
7.32003e-05
6.5858e-05
5.85048e-05
5.15059e-05
4.50645e-05
3.62045e-05
2.78022e-05
5.88903e-05
4.54561e-05
7.42592e-05
0.000130128
0.000184319
0.00718761
0.0215092
0.00449056
0.00103977
0.000676917
0.000788737
0.00129139
0.00155903
0.00163785
0.00161184
0.00151635
0.00135963
0.00114896
0.000908933
0.000675845
0.000484391
0.000353353
0.000280196
0.00023607
0.000200562
0.000167961
0.000139483
0.000116474
0.000100198
9.20772e-05
8.88114e-05
8.71471e-05
8.50484e-05
8.12943e-05
7.49362e-05
6.58133e-05
5.62092e-05
4.73871e-05
3.94909e-05
3.42896e-05
4.48636e-05
4.69421e-05
5.73449e-05
0.000240443
0.00021084
0.00996805
0.0257625
0.00937912
0.00344354
0.00220516
0.00217891
0.00239149
0.00236979
0.00224086
0.00207365
0.00187628
0.0016341
0.00134278
0.00102691
0.000728373
0.000491071
0.000336318
0.000253197
0.000209053
0.000177365
0.000149381
0.000125918
0.000108546
9.81251e-05
9.47217e-05
9.61521e-05
9.94652e-05
0.000102899
0.000105226
0.000104737
9.81719e-05
8.70037e-05
7.58407e-05
6.63533e-05
6.25373e-05
6.97806e-05
8.87572e-05
0.000141563
0.000325186
0.000316443
0.010652
0.0287186
0.0156108
0.00994742
0.0070605
0.00546093
0.00432885
0.00356735
0.00304986
0.0026654
0.00232118
0.00195438
0.00154555
0.00112722
0.000747313
0.00046336
0.000294982
0.000212533
0.000172673
0.000145947
0.000124649
0.000109159
9.99856e-05
9.70022e-05
9.94981e-05
0.00010608
0.000115459
0.000127222
0.000141444
0.000158032
0.000175957
0.000187654
0.00019757
0.000218838
0.000262944
0.000394842
0.000728305
0.0013729
0.00399824
0.00118285
0.00990189
0.0168612
0.0135303
0.0102201
0.00779844
0.00614747
0.00503192
0.00426978
0.00372065
0.00325623
0.00277775
0.00223861
0.0016489
0.00109478
0.000620316
0.000332741
0.000212482
0.000159142
0.000131097
0.000112409
9.95337e-05
9.20633e-05
8.97469e-05
9.20985e-05
9.85195e-05
0.000108524
0.000122102
0.000139951
0.000163451
0.000194634
0.000236222
0.000292139
0.000368866
0.00048382
0.000652967
0.000882243
0.00114416
0.00137238
0.00154838
0.000968367
0.00493984
0.00664258
0.00668238
0.00619033
0.0055152
0.00487012
0.00422873
0.00352639
0.00275037
0.00192282
0.00105674
0.000562142
0.00030133
0.000180385
0.000127727
0.000101829
8.70886e-05
7.80317e-05
7.28002e-05
7.09133e-05
7.20367e-05
7.58039e-05
8.20081e-05
9.07072e-05
0.000102323
0.000117704
0.000138213
0.000165913
0.000204033
0.000257515
0.000331681
0.000433614
0.000566652
0.000718226
0.000847802
0.000901501
0.000846032
0.000535429
0.00339804
0.00675124
0.00665944
0.00535752
0.00452306
0.00384884
0.00299989
0.00209914
0.00133549
0.000782336
0.00043119
0.000243403
0.000149081
0.000104731
8.37393e-05
7.29218e-05
6.70637e-05
6.42069e-05
6.35732e-05
6.47798e-05
6.75761e-05
7.19504e-05
7.80723e-05
8.6217e-05
9.68785e-05
0.000110869
0.000129459
0.000154605
0.000189037
0.000236354
0.000301446
0.000389197
0.000500109
0.000625759
0.000718915
0.000814014
0.000762424
0.000562659
0.00270749
0.00268727
0.0028391
0.00315932
0.00234773
0.00181407
0.00159108
0.00138664
0.00112159
0.000844042
0.000587751
0.000390735
0.000258272
0.000177732
0.000131392
0.000104145
8.71578e-05
7.62862e-05
6.96985e-05
6.64636e-05
6.59363e-05
6.76377e-05
7.1297e-05
7.69205e-05
8.43593e-05
9.38132e-05
0.000105684
0.000120575
0.000139413
0.000163729
0.000194298
0.000232634
0.000281009
0.00034231
0.00041933
0.00052672
0.000563678
0.00052156
0.000428834
0.00034297
)
;

boundaryField
{
    floor
    {
        Cmu             0.09;
        kappa           0.41;
        E               9.8;
        type            epsilonWallFunction;
        value           nonuniform List<scalar> 
29
(
0.000492149
3.53441e-05
6.01824e-05
8.68336e-05
8.93691e-05
8.19901e-05
7.20461e-05
5.95806e-05
4.84371e-05
3.95895e-05
3.27154e-05
2.73489e-05
2.31142e-05
1.97403e-05
1.70166e-05
1.47479e-05
1.27682e-05
1.09239e-05
9.87628e-06
7.5793e-06
7.5793e-06
1.78721e-05
2.85054e-05
3.94145e-05
0.000492149
3.53441e-05
4.01222e-05
0.000266976
0.000908838
)
;
    }
    ceiling
    {
        Cmu             0.09;
        kappa           0.41;
        E               9.8;
        type            epsilonWallFunction;
        value           nonuniform List<scalar> 
43
(
0.00270749
0.00268727
0.0028391
0.00315932
0.00234773
0.00181407
0.00159108
0.00138664
0.00112159
0.000844042
0.000587751
0.000390735
0.000258272
0.000177732
0.000131392
0.000104145
8.71578e-05
7.62862e-05
6.96985e-05
6.64636e-05
6.59363e-05
6.76377e-05
7.1297e-05
7.69205e-05
8.43593e-05
9.38132e-05
0.000105684
0.000120575
0.000139413
0.000163729
0.000194298
0.000232634
0.000281009
0.00034231
0.00041933
0.00052672
0.000563678
0.00052156
0.000428834
0.00034297
0.00990189
0.0168612
0.00339804
)
;
    }
    sWall
    {
        Cmu             0.09;
        kappa           0.41;
        E               9.8;
        type            epsilonWallFunction;
        value           uniform 0.00270749;
    }
    nWall
    {
        Cmu             0.09;
        kappa           0.41;
        E               9.8;
        type            epsilonWallFunction;
        value           nonuniform List<scalar> 6(0.000184319 0.00021084 0.000316443 0.000535429 0.000562659 0.00034297);
    }
    sideWalls
    {
        type            empty;
    }
    glass1
    {
        Cmu             0.09;
        kappa           0.41;
        E               9.8;
        type            epsilonWallFunction;
        value           nonuniform List<scalar> 9(0.000426402 0.00107759 0.00196325 0.00317946 0.0048543 0.00718761 0.00996805 0.010652 0.00990189);
    }
    glass2
    {
        Cmu             0.09;
        kappa           0.41;
        E               9.8;
        type            epsilonWallFunction;
        value           nonuniform List<scalar> 2(0.00118285 0.000968367);
    }
    sun
    {
        Cmu             0.09;
        kappa           0.41;
        E               9.8;
        type            epsilonWallFunction;
        value           nonuniform List<scalar> 
14
(
0.000426402
0.000552464
0.000584362
0.000672042
0.000760746
0.000851267
0.000948042
0.00104717
0.00112088
0.00115039
0.00111947
0.00102219
0.000866606
0.000676934
)
;
    }
    heatsource1
    {
        Cmu             0.09;
        kappa           0.41;
        E               9.8;
        type            epsilonWallFunction;
        value           nonuniform List<scalar> 3(7.42592e-05 0.000130128 0.000184319);
    }
    heatsource2
    {
        Cmu             0.09;
        kappa           0.41;
        E               9.8;
        type            epsilonWallFunction;
        value           nonuniform List<scalar> 4(0.000519233 0.000123992 0.000123992 0.000566857);
    }
    Table_master
    {
        Cmu             0.09;
        kappa           0.41;
        E               9.8;
        type            epsilonWallFunction;
        value           nonuniform List<scalar> 9(0.00017127 0.000118545 8.47011e-05 6.25215e-05 4.75741e-05 3.72105e-05 2.98438e-05 2.45258e-05 2.07021e-05);
    }
    Table_slave
    {
        Cmu             0.09;
        kappa           0.41;
        E               9.8;
        type            epsilonWallFunction;
        value           nonuniform List<scalar> 9(0.000248446 0.000190435 0.000155178 0.000131498 0.000113271 9.77796e-05 8.42504e-05 7.13833e-05 5.81182e-05);
    }
    inlet
    {
        type            turbulentMixingLengthDissipationRateInlet;
        mixingLength    0.01;
        phi             phi;
        k               k;
        value           uniform 0.000101881;
    }
    outlet
    {
        type            zeroGradient;
    }
}


// ************************************************************************* //
