// -*- C++ -*-
// File generated by PyFoam - sorry for the ugliness

FoamFile
{
 version 2.0;
 format ascii;
 class volVectorField;
 location "1300";
 object U;
}

dimensions [ 0 1 -1 0 0 0 0 ];

internalField nonuniform List<vector> 459
(
  (0.0341984 0.085891 0)
  (-0.167091 0.0254881 0)
  (-0.191856 0.017856 0)
  (-0.222881 0.0121546 0)
  (-0.245339 0.0058663 0)
  (-0.258135 -0.000823929 0)
  (-0.25958 -0.007986 0)
  (-0.248396 -0.0156459 0)
  (-0.225172 -0.0231083 0)
  (-0.191804 -0.029041 0)
  (-0.152023 -0.0323399 0)
  (-0.110237 -0.0324642 0)
  (-0.0706959 -0.0295699 0)
  (-0.0385757 -0.0247977 0)
  (-0.0277787 -0.019993 0)
  (-0.00644989 0.00893458 0)
  (-0.0292051 -0.0166685 0)
  (-0.00754481 -0.026584 0)
  (0.0161481 -0.0205837 0)
  (0.0317644 -0.0141808 0)
  (0.0446365 -0.0092344 0)
  (0.0527868 -0.00538054 0)
  (0.0570414 -0.00335309 0)
  (0.0589635 -0.0025415 0)
  (0.0599157 -0.00219217 0)
  (0.060509 -0.00197426 0)
  (0.0608457 -0.00179687 0)
  (0.0608664 -0.00158259 0)
  (0.0603843 -0.00116433 0)
  (0.0588728 -0.00017565 0)
  (0.0551992 0.00189236 0)
  (0.0481235 0.00409511 0)
  (0.0416352 0.00589264 0)
  (-0.0130203 0.0203999 0)
  (0.208782 0.175986 0)
  (-0.156286 0.0674364 0)
  (-0.15475 0.0530667 0)
  (-0.186925 0.0412365 0)
  (-0.209237 0.0278068 0)
  (-0.222339 0.0126579 0)
  (-0.224495 -0.00453325 0)
  (-0.214267 -0.0231768 0)
  (-0.192844 -0.0406696 0)
  (-0.16254 -0.0539061 0)
  (-0.12722 -0.0607572 0)
  (-0.0909679 -0.0605852 0)
  (-0.0573506 -0.0539925 0)
  (-0.0297978 -0.0426063 0)
  (-0.0122876 -0.0289209 0)
  (0.00158874 -0.0109004 0)
  (0.000262568 0.0156766 0)
  (0.0608782 0.0364823 0)
  (0.0246194 -0.0180859 0)
  (0.033278 -0.0314661 0)
  (0.0444794 -0.0281091 0)
  (0.0535106 -0.0203372 0)
  (0.0601938 -0.0128224 0)
  (0.0631219 -0.0054788 0)
  (0.0636977 -0.00125382 0)
  (0.0636511 0.000503572 0)
  (0.0637616 0.00127593 0)
  (0.06397 0.00174829 0)
  (0.0641227 0.00213781 0)
  (0.0641768 0.00261196 0)
  (0.0640877 0.00348422 0)
  (0.0633506 0.00562079 0)
  (0.0596527 0.0115544 0)
  (0.0502713 0.016525 0)
  (0.045732 0.0198813 0)
  (-0.0492066 0.0442555 0)
  (0.369019 0.263385 0)
  (-0.173212 0.107445 0)
  (-0.116219 0.0858992 0)
  (-0.147617 0.064789 0)
  (-0.16753 0.0426625 0)
  (-0.17979 0.0180473 0)
  (-0.181654 -0.00991404 0)
  (-0.170777 -0.0397722 0)
  (-0.149621 -0.0668813 0)
  (-0.121412 -0.0861827 0)
  (-0.0902215 -0.0949761 0)
  (-0.0595577 -0.0931689 0)
  (-0.0317062 -0.0821841 0)
  (-0.0087548 -0.0642827 0)
  (0.00834066 -0.0407698 0)
  (0.0195327 -0.0143173 0)
  (0.0237594 0.0229602 0)
  (0.110227 -0.0267358 0)
  (0.0744945 -0.0376858 0)
  (0.0690826 -0.0384282 0)
  (0.0706267 -0.033087 0)
  (0.0720341 -0.0251882 0)
  (0.0734209 -0.0182517 0)
  (0.0722187 -0.014572 0)
  (0.0675191 -0.0102713 0)
  (0.0640877 -0.00792003 0)
  (0.0625371 -0.00657197 0)
  (0.061876 -0.00570415 0)
  (0.0615386 -0.00510161 0)
  (0.0615107 -0.00457163 0)
  (0.0622333 -0.00374376 0)
  (0.0648213 -0.000667799 0)
  (0.062821 0.016155 0)
  (0.0498032 0.0278683 0)
  (0.0519912 0.0358122 0)
  (-0.0811341 0.0690806 0)
  (0.513685 0.333701 0)
  (-0.208043 0.14293 0)
  (-0.075284 0.113881 0)
  (-0.105387 0.0848922 0)
  (-0.11987 0.0565274 0)
  (-0.12896 0.0242305 0)
  (-0.127891 -0.014349 0)
  (-0.113964 -0.0560171 0)
  (-0.0924215 -0.0919959 0)
  (-0.0672701 -0.115706 0)
  (-0.04201 -0.124919 0)
  (-0.0190241 -0.120898 0)
  (0.00145353 -0.105777 0)
  (0.0183195 -0.0830418 0)
  (0.0326296 -0.0562088 0)
  (0.0479298 -0.0271307 0)
  (0.069539 0.00473756 0)
  (0.100318 0.0161813 0)
  (0.105476 -0.0228013 0)
  (0.0918362 -0.0335299 0)
  (0.0828674 -0.0328641 0)
  (0.0777858 -0.0287847 0)
  (0.0739742 -0.0227521 0)
  (0.0713988 -0.0150721 0)
  (0.0726251 -0.00913277 0)
  (0.0776117 -0.00683498 0)
  (0.0818579 -0.00556349 0)
  (0.0846738 -0.0046639 0)
  (0.0864012 -0.00365951 0)
  (0.0866017 -0.00225373 0)
  (0.0841497 -0.000188119 0)
  (0.0777856 0.0028437 0)
  (0.0649945 0.00737318 0)
  (0.0527304 0.0267025 0)
  (0.0406186 0.0430317 0)
  (0.05605 0.0559803 0)
  (-0.114407 0.091343 0)
  (0.63894 0.388172 0)
  (-0.250666 0.171914 0)
  (-0.034516 0.130054 0)
  (-0.0611725 0.0964235 0)
  (-0.0676295 0.0646055 0)
  (-0.0707318 0.027226 0)
  (-0.0609341 -0.0210287 0)
  (-0.0417794 -0.0735964 0)
  (-0.02122 -0.114859 0)
  (-0.00194629 -0.139177 0)
  (0.0143353 -0.145808 0)
  (0.0267797 -0.138139 0)
  (0.0365453 -0.120353 0)
  (0.044424 -0.0959956 0)
  (0.0517186 -0.0685813 0)
  (0.0604091 -0.041902 0)
  (0.0732317 -0.022253 0)
  (0.0839483 -0.0213211 0)
  (0.0850856 -0.0290502 0)
  (0.0787059 -0.0298788 0)
  (0.0704905 -0.0269805 0)
  (0.0637156 -0.0231162 0)
  (0.0585878 -0.0185406 0)
  (0.0554619 -0.0131509 0)
  (0.0552279 -0.00735708 0)
  (0.057571 -0.00454201 0)
  (0.0602969 -0.00352881 0)
  (0.0628961 -0.00274696 0)
  (0.0652764 -0.0011608 0)
  (0.0670938 0.0018367 0)
  (0.0671157 0.00635634 0)
  (0.0647293 0.0125583 0)
  (0.0593349 0.0210793 0)
  (0.0524566 0.0362775 0)
  (0.0423604 0.0543054 0)
  (0.0644256 0.0744365 0)
  (-0.0213783 0.103534 0)
  (0.0462947 0.0323355 0)
  (-0.0620922 -0.0345186 0)
  (-0.272435 -0.0571677 0)
  (0.730051 0.433596 0)
  (-0.29227 0.191434 0)
  (-0.00329281 0.126631 0)
  (-0.0160462 0.0976907 0)
  (-0.0119456 0.0670434 0)
  (-0.00640432 0.0242775 0)
  (0.0221077 -0.038113 0)
  (0.0439575 -0.093932 0)
  (0.059518 -0.132246 0)
  (0.0689616 -0.151752 0)
  (0.0729456 -0.154383 0)
  (0.0728669 -0.143702 0)
  (0.0702308 -0.123737 0)
  (0.0665395 -0.0984746 0)
  (0.063283 -0.0715889 0)
  (0.0618752 -0.0467503 0)
  (0.0631732 -0.0282402 0)
  (0.0640335 -0.0208925 0)
  (0.060773 -0.0205069 0)
  (0.0537802 -0.0206043 0)
  (0.0458636 -0.0191765 0)
  (0.0392299 -0.0169227 0)
  (0.0344159 -0.0141963 0)
  (0.0317128 -0.0110555 0)
  (0.0313816 -0.00811452 0)
  (0.033064 -0.00697277 0)
  (0.0357038 -0.00683896 0)
  (0.0388422 -0.00646843 0)
  (0.0422929 -0.00484669 0)
  (0.0457921 -0.00108405 0)
  (0.0489856 0.00516027 0)
  (0.0506618 0.0135313 0)
  (0.0510816 0.0241785 0)
  (0.0516029 0.0386176 0)
  (0.0504338 0.056372 0)
  (0.0728921 0.0791417 0)
  (0.0525374 0.0970786 0)
  (0.0932107 0.0679148 0)
  (0.116126 0.0446206 0)
  (-0.129106 -0.00715593 0)
  (0.782012 0.474882 0)
  (-0.313215 0.176902 0)
  (0.0235129 0.0771641 0)
  (0.0425536 0.0739806 0)
  (0.0576547 0.0525441 0)
  (0.0840249 0.00160014 0)
  (0.118262 -0.0625274 0)
  (0.137621 -0.111434 0)
  (0.144097 -0.141059 0)
  (0.14038 -0.152803 0)
  (0.129206 -0.149614 0)
  (0.11349 -0.13523 0)
  (0.095803 -0.113512 0)
  (0.0783852 -0.0883652 0)
  (0.0629246 -0.0630102 0)
  (0.0506697 -0.0405619 0)
  (0.0420648 -0.0241407 0)
  (0.0355775 -0.0158658 0)
  (0.0290376 -0.0135222 0)
  (0.0219526 -0.0131645 0)
  (0.0152526 -0.012629 0)
  (0.00986266 -0.0117967 0)
  (0.00609519 -0.0108084 0)
  (0.00412264 -0.00973344 0)
  (0.00402503 -0.00898755 0)
  (0.00543878 -0.00919826 0)
  (0.00771751 -0.00985998 0)
  (0.0105834 -0.0101082 0)
  (0.0140678 -0.00906522 0)
  (0.0182939 -0.00571471 0)
  (0.024177 0.000971174 0)
  (0.0301963 0.0101678 0)
  (0.0358545 0.0209637 0)
  (0.0429929 0.0338491 0)
  (0.0507606 0.0485224 0)
  (0.0728202 0.0669531 0)
  (0.0860277 0.0746682 0)
  (0.118321 0.0520772 0)
  (0.158029 0.0440002 0)
  (-0.0353135 0.0939991 0)
  (0.886657 0.477585 0)
  (-0.070732 0.156551 0)
  (0.106016 0.00390025 0)
  (0.169108 -0.0163272 0)
  (0.182031 -0.0349837 0)
  (0.217498 -0.0690724 0)
  (0.239387 -0.10188 0)
  (0.242004 -0.125364 0)
  (0.228112 -0.136997 0)
  (0.202646 -0.136986 0)
  (0.170464 -0.127081 0)
  (0.135793 -0.109909 0)
  (0.101671 -0.0881429 0)
  (0.0705875 -0.0650465 0)
  (0.0440104 -0.0430549 0)
  (0.0233071 -0.0247585 0)
  (0.00893853 -0.0126922 0)
  (-0.000430169 -0.00731979 0)
  (-0.00705992 -0.00638814 0)
  (-0.0126127 -0.00692051 0)
  (-0.0173668 -0.00753452 0)
  (-0.0211502 -0.00804342 0)
  (-0.0238837 -0.0085017 0)
  (-0.0255172 -0.00900247 0)
  (-0.0260959 -0.00975184 0)
  (-0.0259239 -0.0108951 0)
  (-0.0253825 -0.0121608 0)
  (-0.0246026 -0.0131022 0)
  (-0.0234401 -0.013222 0)
  (-0.021513 -0.0119328 0)
  (-0.0178667 -0.0084815 0)
  (-0.00912828 -0.00211031 0)
  (-0.000263442 0.0063065 0)
  (0.010384 0.0147135 0)
  (0.0221069 0.0218624 0)
  (0.0419089 0.0292212 0)
  (0.0605188 0.022282 0)
  (0.080054 -0.00521164 0)
  (0.139176 0.0402882 0)
  (-0.413914 0.206838 0)
  (1.0317 0.430007 0)
  (0.496813 0.285119 0)
  (0.503057 0.191533 0)
  (0.511454 0.120165 0)
  (0.486618 0.068732 0)
  (0.443968 0.0154262 0)
  (0.394083 -0.0328658 0)
  (0.340685 -0.0671323 0)
  (0.283488 -0.0848367 0)
  (0.2249 -0.0879871 0)
  (0.168209 -0.0806074 0)
  (0.116194 -0.0667141 0)
  (0.0698586 -0.0490308 0)
  (0.0311082 -0.030992 0)
  (-0.000476446 -0.0148195 0)
  (-0.0213325 -0.00477713 0)
  (-0.0324713 -0.00101116 0)
  (-0.0386398 -0.0005064 0)
  (-0.0426641 -0.00147702 0)
  (-0.0461813 -0.00282336 0)
  (-0.0493982 -0.00414492 0)
  (-0.052325 -0.00538405 0)
  (-0.0549384 -0.00657331 0)
  (-0.0572596 -0.0077633 0)
  (-0.0594096 -0.00901622 0)
  (-0.0616601 -0.0103091 0)
  (-0.0643455 -0.0114238 0)
  (-0.0677702 -0.0119864 0)
  (-0.0722659 -0.0114698 0)
  (-0.0782972 -0.00917522 0)
  (-0.08647 -0.0042765 0)
  (-0.0968496 0.00385081 0)
  (-0.107411 0.0147151 0)
  (-0.122697 0.0284816 0)
  (-0.146794 0.045196 0)
  (-0.182224 0.0636544 0)
  (-0.232278 0.0797885 0)
  (-0.289279 0.0909799 0)
  (-0.357927 0.0972257 0)
  (-0.620147 0.0991991 0)
  (-0.148389 0.0829549 0)
  (0.134877 0.06208 0)
  (0.218284 0.00648101 0)
  (0.201784 -0.0285105 0)
  (0.186101 -0.0429965 0)
  (0.163646 -0.0477987 0)
  (0.131212 -0.0462488 0)
  (0.0926664 -0.0398935 0)
  (0.052769 -0.0301677 0)
  (0.0148084 -0.0179449 0)
  (-0.0226 -0.00409605 0)
  (-0.0464543 0.00364044 0)
  (-0.061034 0.00709901 0)
  (-0.0681539 0.00754023 0)
  (-0.0716124 0.00674642 0)
  (-0.0738855 0.00573596 0)
  (-0.0758358 0.00473302 0)
  (-0.0777802 0.00379132 0)
  (-0.0800289 0.0028506 0)
  (-0.0826154 0.0017933 0)
  (-0.0854653 0.000671208 0)
  (-0.0886064 -0.000448381 0)
  (-0.0921125 -0.00147989 0)
  (-0.0960791 -0.0022653 0)
  (-0.100585 -0.0025583 0)
  (-0.105635 -0.00204558 0)
  (-0.111135 -0.000372435 0)
  (-0.11687 0.00282081 0)
  (-0.122236 0.0079686 0)
  (-0.126434 0.015817 0)
  (-0.129911 0.027493 0)
  (-0.132915 0.0433828 0)
  (-0.136255 0.0625902 0)
  (-0.140439 0.0814443 0)
  (-0.142278 0.0900444 0)
  (-0.124945 0.067545 0)
  (-0.0811852 -0.0256833 0)
  (-0.278846 -0.203577 0)
  (-0.0208146 0.23262 0)
  (0.0638005 0.100258 0)
  (0.0381619 0.0196097 0)
  (0.0258346 -0.0041612 0)
  (0.0166024 -0.0097496 0)
  (-0.00191335 -0.011298 0)
  (-0.0268804 -0.00885676 0)
  (-0.052689 -0.00424333 0)
  (-0.0746088 0.000288486 0)
  (-0.0897634 0.00332563 0)
  (-0.0971324 0.00361889 0)
  (-0.0997409 0.00138121 0)
  (-0.100152 -0.00161259 0)
  (-0.0995925 -0.00500383 0)
  (-0.0991591 -0.00846259 0)
  (-0.0992565 -0.0117297 0)
  (-0.0999088 -0.0146709 0)
  (-0.101016 -0.0170795 0)
  (-0.102442 -0.0188072 0)
  (-0.10411 -0.0198437 0)
  (-0.106068 -0.0202949 0)
  (-0.108287 -0.0201771 0)
  (-0.110764 -0.0197377 0)
  (-0.113472 -0.0190048 0)
  (-0.116298 -0.017863 0)
  (-0.119012 -0.0160771 0)
  (-0.121247 -0.0132672 0)
  (-0.122495 -0.00885688 0)
  (-0.12222 -0.00263062 0)
  (-0.119451 0.00594004 0)
  (-0.112742 0.0177224 0)
  (-0.100809 0.0334712 0)
  (-0.0833634 0.0527454 0)
  (-0.0612942 0.0714389 0)
  (-0.0374693 0.082401 0)
  (0.00259758 0.0667143 0)
  (0.14343 -0.00451786 0)
  (-0.207372 -0.114255 0)
  (0.94034 -0.000452943 0)
  (-0.529481 -0.460791 0)
  (-0.317329 0.0896044 0)
  (-0.227635 -0.0196619 0)
  (-0.179931 -0.0414108 0)
  (-0.165258 -0.0294159 0)
  (-0.162786 -0.0164165 0)
  (-0.164137 -0.0060357 0)
  (-0.164788 0.00265706 0)
  (-0.162578 0.0102348 0)
  (-0.157931 0.0171816 0)
  (-0.150943 0.0235063 0)
  (-0.142543 0.0289453 0)
  (-0.134166 0.0334977 0)
  (-0.12668 0.0377335 0)
  (-0.120416 0.0418655 0)
  (-0.11539 0.0459695 0)
  (-0.111435 0.0498431 0)
  (-0.108407 0.0531135 0)
  (-0.106208 0.0554391 0)
  (-0.104757 0.056628 0)
  (-0.103977 0.0566739 0)
  (-0.10381 0.0557083 0)
  (-0.104195 0.0538527 0)
  (-0.105052 0.0515638 0)
  (-0.106283 0.0490383 0)
  (-0.107727 0.0463903 0)
  (-0.109117 0.0437111 0)
  (-0.110034 0.0410691 0)
  (-0.109799 0.0385287 0)
  (-0.107163 0.0369325 0)
  (-0.100244 0.0369724 0)
  (-0.0865724 0.0394145 0)
  (-0.0642855 0.0451601 0)
  (-0.0339821 0.0547169 0)
  (0.0144068 0.0677372 0)
  (0.0591125 0.0690021 0)
  (0.101706 0.0542863 0)
  (0.163861 0.0252218 0)
  (-0.219174 -0.0296542 0)
)
;

boundaryField
{
  floor
  {
    type noSlip;
  }
  ceiling
  {
    type noSlip;
  }
  sWall
  {
    type noSlip;
  }
  nWall
  {
    type noSlip;
  }
  sideWalls
  {
    type empty;
  }
  glass1
  {
    type noSlip;
  }
  glass2
  {
    type noSlip;
  }
  sun
  {
    type noSlip;
  }
  heatsource1
  {
    type noSlip;
  }
  heatsource2
  {
    type noSlip;
  }
  Table_master
  {
    type noSlip;
  }
  Table_slave
  {
    type noSlip;
  }
  inlet
  {
    type fixedValue;
    value uniform (0.3 0 0);
  }
  outlet
  {
    type zeroGradient;
  }
} 	// ************************************************************************* //

