/*--------------------------------*- C++ -*----------------------------------*\
  =========                 |
  \\      /  F ield         | OpenFOAM: The Open Source CFD Toolbox
   \\    /   O peration     | Website:  https://openfoam.org
    \\  /    A nd           | Version:  6
     \\/     M anipulation  |
\*---------------------------------------------------------------------------*/
FoamFile
{
    version     2.0;
    format      ascii;
    class       volScalarField;
    location    "100";
    object      nut;
}
// * * * * * * * * * * * * * * * * * * * * * * * * * * * * * * * * * * * * * //

dimensions      [0 2 -1 0 0 0 0];

internalField   nonuniform List<scalar> 
459
(
0.000723255
0.000748519
0.000730569
0.000754405
0.000775284
0.000793104
0.00080854
0.000822343
0.000835313
0.000848395
0.00085889
0.000866137
0.000870235
0.00087273
0.000873921
0.000729368
0.000689689
0.000653502
0.000632741
0.000619164
0.000601968
0.000574231
0.000547023
0.000520881
0.000496039
0.000472751
0.000451139
0.000431208
0.000412845
0.000395767
0.000379473
0.000363516
0.000362187
0.000340813
0.00113373
0.00170512
0.0013842
0.00163597
0.00173929
0.00185149
0.00196453
0.00206793
0.00214752
0.00218594
0.00219374
0.00214691
0.00201505
0.00175678
0.00134294
0.000915262
0.000853972
0.00087358
0.00164331
0.0021702
0.00253128
0.00266087
0.00250942
0.00197461
0.00166705
0.00144381
0.00127444
0.0011413
0.00103432
0.000946181
0.000870097
0.000800012
0.000740454
0.000690038
0.000891016
0.00046526
0.00151346
0.00265045
0.00145979
0.00229136
0.00245192
0.00256144
0.00264942
0.00271856
0.00276991
0.00279869
0.00280396
0.00276155
0.00264091
0.00240569
0.00203553
0.00157243
0.0010381
0.00101625
0.002987
0.00368152
0.00381842
0.00370172
0.00303842
0.000752143
0.000646652
0.000574234
0.000522297
0.000483306
0.000452839
0.000428367
0.000408657
0.00039401
0.00045501
0.000546994
0.00106035
0.000560963
0.00190237
0.0040808
0.00143562
0.00257283
0.00286169
0.00295161
0.00300506
0.00304224
0.00307181
0.00309398
0.00311021
0.00310736
0.00306283
0.00293953
0.00268182
0.00223642
0.00163693
0.00113724
0.00340144
0.00385083
0.00406593
0.00408829
0.00391753
0.00322251
0.000775926
0.000730788
0.000716097
0.000709626
0.000701379
0.000684857
0.000656666
0.000627356
0.000592206
0.000578271
0.000610412
0.00134894
0.000622842
0.00229127
0.00591728
0.00176506
0.00245731
0.00304205
0.0031378
0.00316748
0.00318074
0.00319365
0.00321235
0.00323769
0.0032749
0.00330945
0.00331972
0.00328434
0.0032053
0.00314213
0.00318092
0.00345672
0.00378642
0.00394824
0.003956
0.00388927
0.003712
0.00325745
0.00320308
0.00320373
0.00318732
0.00312719
0.00301002
0.00281429
0.00244502
0.00199368
0.00154635
0.00116415
0.00123052
0.00089014
0.000739797
0.00086994
0.000979136
0.00267732
0.00780813
0.0028916
0.00210019
0.00294929
0.00317367
0.00323392
0.0032446
0.00323286
0.00322504
0.00324081
0.0032972
0.00336678
0.00342018
0.00341535
0.00330465
0.00308351
0.00289112
0.00300383
0.00354955
0.00381134
0.00381459
0.00378126
0.00376888
0.00376326
0.00380259
0.00382664
0.00380439
0.0037317
0.00361728
0.00347434
0.00323336
0.00285407
0.00235968
0.0018434
0.00134034
0.00115138
0.00102835
0.0014524
0.00104132
0.00306989
0.00932244
0.0053345
0.00249707
0.00217463
0.00260454
0.00299406
0.00322768
0.00332327
0.00321306
0.00320717
0.00326292
0.00334275
0.00342463
0.0034674
0.00339314
0.00310731
0.00267998
0.00258609
0.0033574
0.00379478
0.00378804
0.00374179
0.00374749
0.00378817
0.00383083
0.0038391
0.00379298
0.00370642
0.0036064
0.00352167
0.00345791
0.00322338
0.00280508
0.00233809
0.00186271
0.00160533
0.0016116
0.001713
0.00125861
0.00318046
0.00966121
0.00736669
0.00516077
0.00347764
0.00268077
0.00263943
0.00293906
0.0032373
0.00320839
0.00318398
0.00320542
0.00326348
0.00334036
0.00341047
0.00342029
0.00322407
0.00266259
0.00224296
0.00316007
0.00387876
0.00387046
0.00380031
0.00379041
0.00380203
0.00379453
0.0037429
0.00364603
0.00353231
0.0034499
0.0034409
0.00352138
0.00360639
0.00331305
0.00305943
0.0030325
0.00344125
0.00429149
0.00523646
0.00179253
0.00312625
0.00382301
0.00424465
0.00427593
0.00394759
0.00349565
0.00315243
0.00298267
0.00294002
0.00294255
0.00298685
0.00305705
0.00313789
0.00321687
0.00328583
0.00332766
0.00323956
0.00273423
0.00199335
0.00289484
0.00403113
0.00403628
0.0039463
0.00392648
0.00390497
0.00384123
0.00371597
0.00352855
0.00330674
0.00310052
0.0029511
0.00286465
0.0028216
0.00280028
0.00281956
0.00285814
0.00282583
0.00265394
0.00242529
0.001633
0.002326
0.00352825
0.00379423
0.00367773
0.00348716
0.00333049
0.00322895
0.00316588
0.00313816
0.00313084
0.0031297
0.0031277
0.0031297
0.00314572
0.00309791
0.00261857
0.00180704
0.00256223
0.00423009
0.00423441
0.00414769
0.00417618
0.00418064
0.00413004
0.00401285
0.00381999
0.00356661
0.00330087
0.00308875
0.00297691
0.00293933
0.00294012
0.0029468
0.00290825
0.00276148
0.0024799
0.00209718
0.00134696
0.00242753
0.00403677
0.00419798
0.00402667
0.00383218
0.00364487
0.00347713
0.00332832
0.00315906
0.00296932
0.0027805
0.00261084
0.0024793
0.00240353
0.00234317
0.0020703
0.00151345
0.00218394
0.00401482
0.00393039
0.00391606
0.00399689
0.00403303
0.00402462
0.00397817
0.00389171
0.00376851
0.00361698
0.00344442
0.00333957
0.00330388
0.00331505
0.00333692
0.00335407
0.00332175
0.00324504
0.00265095
0.00137184
0.00216393
0.00225506
0.00233835
0.00246973
0.00230625
0.00209341
0.0019475
0.00181832
0.00170188
0.00159639
0.00150398
0.00142232
0.00134724
0.00127683
0.00121068
0.00114952
0.00109406
0.00104163
0.00098736
0.00103858
0.00111924
0.0010932
0.00109384
0.00109765
0.00109887
0.00109854
0.00109875
0.00110199
0.00111156
0.0011317
0.00116787
0.00121492
0.00127488
0.00134573
0.00142513
0.00152968
0.00155453
0.00151487
0.00141162
0.00130139
)
;

boundaryField
{
    floor
    {
        type            nutkWallFunction;
        Cmu             0.09;
        kappa           0.41;
        E               9.8;
        value           nonuniform List<scalar> 
29
(
0.000105767
8.83303e-05
8.34709e-05
7.90116e-05
7.64396e-05
7.47524e-05
7.26095e-05
6.91375e-05
6.57116e-05
6.24e-05
5.92339e-05
5.62479e-05
5.34603e-05
5.08746e-05
4.84789e-05
4.62387e-05
4.40899e-05
4.19738e-05
4.17958e-05
3.8939e-05
3.8939e-05
5.52787e-05
6.74641e-05
7.52064e-05
0.000105767
8.83303e-05
0.000105734
0.000122622
0.00013672
)
;
    }
    ceiling
    {
        type            nutkWallFunction;
        Cmu             0.09;
        kappa           0.41;
        E               9.8;
        value           nonuniform List<scalar> 
43
(
0.000251019
0.000260831
0.000269763
0.000283861
0.000266422
0.000243491
0.000227622
0.000213464
0.000200607
0.000188877
0.000178532
0.000169332
0.000160822
0.000152792
0.000145203
0.000138146
0.000131709
0.000125589
0.000119219
0.000125249
0.000134637
0.000131612
0.000131686
0.000132131
0.000132272
0.000132233
0.000132257
0.000132634
0.000133747
0.000136084
0.00014027
0.000145694
0.000152572
0.000160652
0.000169651
0.000181419
0.000184203
0.000179758
0.000168125
0.000155602
0.000353163
0.000424842
0.000279228
)
;
    }
    sWall
    {
        type            nutkWallFunction;
        Cmu             0.09;
        kappa           0.41;
        E               9.8;
        value           uniform 0.000251087;
    }
    nWall
    {
        type            nutkWallFunction;
        Cmu             0.09;
        kappa           0.41;
        E               9.8;
        value           nonuniform List<scalar> 6(0.000118254 0.000125558 0.000150713 0.000160808 0.000163635 0.000155616);
    }
    sideWalls
    {
        type            empty;
    }
    glass1
    {
        type            nutkWallFunction;
        Cmu             0.09;
        kappa           0.41;
        E               9.8;
        value           nonuniform List<scalar> 9(8.75475e-05 0.000136462 0.000179871 0.000223075 0.000265322 0.000306507 0.000347751 0.000359277 0.000353654);
    }
    glass2
    {
        type            nutkWallFunction;
        Cmu             0.09;
        kappa           0.41;
        E               9.8;
        value           nonuniform List<scalar> 2(0.000210766 0.000193085);
    }
    sun
    {
        type            nutkWallFunction;
        Cmu             0.09;
        kappa           0.41;
        E               9.8;
        value           nonuniform List<scalar> 
14
(
8.75774e-05
9.06576e-05
8.84712e-05
9.13732e-05
9.39063e-05
9.60619e-05
9.79243e-05
9.95862e-05
0.000101145
0.000102714
0.000103971
0.000104837
0.000105327
0.000105624
)
;
    }
    heatsource1
    {
        type            nutkWallFunction;
        Cmu             0.09;
        kappa           0.41;
        E               9.8;
        value           nonuniform List<scalar> 3(8.95948e-05 0.000105289 0.000118245);
    }
    heatsource2
    {
        type            nutkWallFunction;
        Cmu             0.09;
        kappa           0.41;
        E               9.8;
        value           nonuniform List<scalar> 4(0.000110687 0.000103381 0.000103381 0.00012517);
    }
    Table_master
    {
        type            nutkWallFunction;
        Cmu             0.09;
        kappa           0.41;
        E               9.8;
        value           nonuniform List<scalar> 9(9.11046e-05 7.81721e-05 6.91481e-05 6.25909e-05 5.76156e-05 5.36934e-05 5.05192e-05 4.79462e-05 4.60241e-05);
    }
    Table_slave
    {
        type            nutkWallFunction;
        Cmu             0.09;
        kappa           0.41;
        E               9.8;
        value           nonuniform List<scalar> 9(9.39902e-05 8.85035e-05 8.67085e-05 8.5916e-05 8.49052e-05 8.28769e-05 7.94036e-05 7.57733e-05 7.13925e-05);
    }
    inlet
    {
        type            calculated;
        value           uniform 0.000100623;
    }
    outlet
    {
        type            calculated;
        value           nonuniform List<scalar> 2(0.00216393 0.00225506);
    }
}


// ************************************************************************* //
