// -*- C++ -*-
// File generated by PyFoam - sorry for the ugliness

FoamFile
{
 version 2.0;
 format ascii;
 class volScalarField;
 location "600";
 object T;
}

dimensions [ 0 0 0 1 0 0 0 ];

internalField nonuniform List<scalar> 459
(
  302.788
  302.532
  302.517
  302.513
  302.51
  302.511
  302.524
  302.582
  302.666
  302.718
  302.755
  302.778
  302.797
  302.816
  302.841
  303.935
  303.839
  303.76
  303.712
  303.71
  303.735
  303.768
  303.804
  303.842
  303.879
  303.919
  303.962
  304.006
  304.051
  304.099
  304.154
  304.22
  304.3
  304.394
  302.932
  302.547
  302.507
  302.495
  302.488
  302.477
  302.482
  302.56
  302.681
  302.771
  302.83
  302.861
  302.873
  302.875
  302.871
  302.885
  302.91
  303.972
  303.872
  303.648
  303.606
  303.62
  303.655
  303.69
  303.729
  303.772
  303.82
  303.879
  303.949
  304.022
  304.09
  304.156
  304.219
  304.282
  304.349
  304.422
  303.09
  302.588
  302.527
  302.514
  302.503
  302.462
  302.442
  302.54
  302.699
  302.834
  302.921
  302.962
  302.97
  302.958
  302.938
  302.93
  302.933
  303.959
  303.67
  303.533
  303.514
  303.562
  303.627
  303.655
  303.694
  303.741
  303.804
  303.897
  304.034
  304.193
  304.308
  304.357
  304.365
  304.376
  304.403
  304.447
  303.256
  302.654
  302.579
  302.573
  302.559
  302.462
  302.408
  302.518
  302.718
  302.908
  303.033
  303.087
  303.09
  303.064
  303.024
  302.992
  302.969
  302.992
  303.156
  303.211
  303.302
  303.425
  303.559
  303.676
  303.766
  303.83
  303.884
  303.937
  303.988
  304.038
  304.087
  304.135
  304.187
  304.294
  304.372
  304.421
  304.463
  303.423
  302.748
  302.666
  302.681
  302.644
  302.465
  302.381
  302.497
  302.746
  302.998
  303.168
  303.238
  303.235
  303.19
  303.131
  303.082
  303.051
  303.066
  303.129
  303.236
  303.386
  303.556
  303.719
  303.858
  303.969
  304.05
  304.121
  304.178
  304.226
  304.267
  304.3
  304.324
  304.34
  304.363
  304.401
  304.437
  304.47
  304.499
  304.572
  304.714
  303.587
  302.873
  302.795
  302.839
  302.703
  302.454
  302.348
  302.487
  302.796
  303.12
  303.336
  303.418
  303.405
  303.339
  303.266
  303.213
  303.192
  303.232
  303.336
  303.488
  303.666
  303.842
  303.998
  304.124
  304.221
  304.298
  304.352
  304.395
  304.431
  304.46
  304.48
  304.49
  304.485
  304.469
  304.464
  304.473
  304.491
  304.518
  304.554
  304.608
  303.764
  303.056
  302.994
  302.993
  302.713
  302.382
  302.289
  302.497
  302.895
  303.298
  303.552
  303.635
  303.6
  303.523
  303.454
  303.421
  303.439
  303.534
  303.69
  303.864
  304.039
  304.195
  304.323
  304.42
  304.496
  304.541
  304.573
  304.6
  304.623
  304.64
  304.649
  304.646
  304.629
  304.598
  304.567
  304.556
  304.563
  304.589
  304.608
  304.639
  303.995
  303.474
  303.406
  303.127
  302.57
  302.176
  302.197
  302.563
  303.094
  303.576
  303.835
  303.878
  303.835
  303.78
  303.745
  303.75
  303.817
  303.956
  304.129
  304.297
  304.444
  304.56
  304.647
  304.706
  304.74
  304.761
  304.779
  304.794
  304.807
  304.814
  304.814
  304.804
  304.784
  304.758
  304.74
  304.744
  304.764
  304.776
  304.766
  304.781
  304.337
  304.073
  303.839
  302.821
  301.899
  301.706
  302.145
  302.827
  303.519
  304.008
  304.153
  304.163
  304.143
  304.13
  304.141
  304.191
  304.286
  304.423
  304.569
  304.7
  304.803
  304.874
  304.92
  304.947
  304.962
  304.972
  304.98
  304.987
  304.992
  304.992
  304.985
  304.972
  304.956
  304.945
  304.953
  304.995
  305.084
  305.214
  305.376
  305.588
  295.167
  296.244
  298.862
  301.087
  302.8
  303.849
  304.267
  304.436
  304.489
  304.506
  304.519
  304.544
  304.587
  304.654
  304.746
  304.851
  304.953
  305.037
  305.098
  305.138
  305.161
  305.173
  305.179
  305.183
  305.185
  305.184
  305.179
  305.169
  305.153
  305.133
  305.11
  305.093
  305.092
  305.117
  305.179
  305.274
  305.46
  305.598
  296.48
  299.93
  302.253
  303.556
  304.268
  304.612
  304.748
  304.816
  304.856
  304.889
  304.923
  304.963
  305.013
  305.072
  305.139
  305.207
  305.268
  305.315
  305.348
  305.368
  305.378
  305.382
  305.382
  305.379
  305.373
  305.364
  305.35
  305.332
  305.309
  305.282
  305.255
  305.231
  305.216
  305.219
  305.256
  305.34
  305.471
  305.588
  305.035
  302.569
  301.876
  303.827
  304.632
  304.929
  305.073
  305.16
  305.216
  305.261
  305.299
  305.334
  305.367
  305.399
  305.433
  305.467
  305.501
  305.531
  305.556
  305.573
  305.584
  305.588
  305.587
  305.582
  305.575
  305.564
  305.551
  305.534
  305.514
  305.491
  305.466
  305.439
  305.413
  305.389
  305.372
  305.369
  305.407
  305.517
  305.686
  305.97
)
;

boundaryField
{
  floor
  {
    type wallHeatTransfer;
    Tinf uniform 305.2;
    alphaWall uniform 0.24;
    value nonuniform List<scalar> 29
(
  303.071
  304.151
  304.047
  303.959
  303.902
  303.892
  303.914
  303.951
  303.994
  304.036
  304.078
  304.121
  304.165
  304.209
  304.253
  304.3
  304.352
  304.414
  304.492
  304.589
  304.589
  304.604
  304.621
  304.627
  303.071
  304.151
  304.187
  304.176
  303.207
)
;
  }
  ceiling
  {
    type wallHeatTransfer;
    Tinf uniform 303.2;
    alphaWall uniform 0.24;
    value nonuniform List<scalar> 43
(
  304.907
  302.61
  301.958
  303.792
  304.541
  304.811
  304.936
  305.007
  305.054
  305.091
  305.125
  305.156
  305.187
  305.217
  305.249
  305.28
  305.31
  305.337
  305.357
  305.37
  305.377
  305.378
  305.374
  305.368
  305.359
  305.348
  305.334
  305.317
  305.297
  305.273
  305.247
  305.219
  305.191
  305.166
  305.146
  305.14
  305.17
  305.268
  305.426
  305.691
  304.287
  304.039
  296.916
)
;
  }
  sWall
  {
    type wallHeatTransfer;
    Tinf uniform 315.2;
    alphaWall uniform 0.36;
    value uniform 306.073;
  }
  nWall
  {
    type wallHeatTransfer;
    Tinf uniform 307.2;
    alphaWall uniform 0.36;
    value nonuniform List<scalar> 6
(
  305.258
  305.135
  305.063
  305.82
  305.791
  306.149
)
;
  }
  sideWalls
  {
    type empty;
  }
  glass1
  {
    type wallHeatTransfer;
    Tinf uniform 315.2;
    alphaWall uniform 4.3;
    value nonuniform List<scalar> 9
(
  310.624
  310.049
  309.681
  309.398
  309.168
  308.978
  308.906
  309.025
  309.299
)
;
  }
  glass2
  {
    type wallHeatTransfer;
    Tinf uniform 307.2;
    alphaWall uniform 4.3;
    value nonuniform List<scalar> 2
(
  306.466
  306.663
)
;
  }
  sun
  {
    type wallHeatTransfer;
    Tinf uniform 305.2;
    alphaWall uniform 0.24;
    value nonuniform List<scalar> 14
(
  302.994
  302.741
  302.72
  302.706
  302.694
  302.687
  302.695
  302.75
  302.835
  302.892
  302.935
  302.968
  302.998
  303.03
)
;
  }
  heatsource1
  {
    type fixedGradient;
    gradient uniform 0;
  }
  heatsource2
  {
    type fixedGradient;
    gradient uniform 0;
  }
  Table_master
  {
    type zeroGradient;
  }
  Table_slave
  {
    type zeroGradient;
  }
  inlet
  {
    type fixedValue;
    value uniform 293.15;
  }
  outlet
  {
    type zeroGradient;
  }
} 	// ************************************************************************* //

