/*--------------------------------*- C++ -*----------------------------------*\
  =========                 |
  \\      /  F ield         | OpenFOAM: The Open Source CFD Toolbox
   \\    /   O peration     | Website:  https://openfoam.org
    \\  /    A nd           | Version:  6
     \\/     M anipulation  |
\*---------------------------------------------------------------------------*/
FoamFile
{
    version     2.0;
    format      ascii;
    class       volScalarField;
    location    "1000";
    object      nut;
}
// * * * * * * * * * * * * * * * * * * * * * * * * * * * * * * * * * * * * * //

dimensions      [0 2 -1 0 0 0 0];

internalField   nonuniform List<scalar> 
459
(
0.00110912
0.00121311
0.00123896
0.00129964
0.00135664
0.0014115
0.0014678
0.00151452
0.00154217
0.00154404
0.00151509
0.00145186
0.00134874
0.0011895
0.000969293
0.000484439
0.000574314
0.000654729
0.000677203
0.000665136
0.000640968
0.00060082
0.000558868
0.000520716
0.000487092
0.00045756
0.000431554
0.000408566
0.000388127
0.000369475
0.000351698
0.000333602
0.000321881
0.000294434
0.00149946
0.00365738
0.00349905
0.00406338
0.00462347
0.00516621
0.00558969
0.00595506
0.00627595
0.00651983
0.00665581
0.00666003
0.0065007
0.006094
0.00498065
0.00112815
0.000782413
0.000492573
0.00112056
0.00163091
0.00204123
0.00229622
0.00229886
0.00173409
0.00146399
0.00127955
0.00114185
0.00103472
0.000948837
0.000877021
0.000810484
0.000745436
0.000686784
0.000636661
0.000756649
0.000383001
0.0018211
0.00495655
0.00429402
0.00524954
0.00569462
0.00602529
0.00628563
0.00655153
0.00684613
0.00714836
0.00741656
0.00761238
0.00768546
0.00754213
0.00695398
0.00522372
0.00118732
0.000862038
0.00136217
0.00189893
0.00245672
0.00287862
0.0028225
0.000846616
0.000741612
0.000657228
0.000589506
0.000534738
0.00048999
0.000453129
0.000422885
0.000398868
0.000436525
0.000512138
0.000870746
0.000445904
0.00212725
0.00627144
0.00428157
0.00545659
0.00573767
0.00582918
0.00594685
0.00613903
0.00641311
0.00675666
0.00710893
0.00741748
0.00761227
0.00764505
0.00747175
0.00676647
0.00412298
0.00136806
0.00165991
0.00220627
0.00287161
0.0035028
0.00393947
0.00371353
0.000962935
0.000875872
0.000813667
0.000765811
0.000724419
0.00068615
0.00064898
0.000609743
0.000564281
0.000525007
0.000541482
0.00103204
0.000493797
0.00243778
0.00796822
0.00462873
0.00529015
0.00563621
0.00561094
0.0056341
0.00579182
0.00604642
0.0064123
0.00679706
0.00711948
0.00730934
0.00734708
0.00725666
0.00700207
0.00633272
0.00549765
0.00527225
0.00534161
0.00551448
0.00566591
0.00570953
0.00549382
0.00455233
0.00409022
0.00381396
0.00359929
0.0033806
0.00308066
0.00269247
0.00223787
0.00175082
0.00129173
0.000962783
0.0010152
0.000676621
0.000607647
0.000729506
0.000821265
0.00276729
0.00983606
0.00626591
0.00528869
0.00567062
0.00565005
0.00563788
0.00572676
0.00593461
0.00627594
0.00667604
0.00701078
0.00717922
0.00715859
0.00702253
0.00689285
0.00683987
0.00688295
0.00702192
0.00713373
0.00714753
0.00705424
0.00685734
0.00654051
0.00605789
0.00562436
0.00524996
0.00490534
0.00456928
0.00421697
0.00379447
0.00328897
0.00270724
0.00209587
0.00158201
0.00119996
0.000943202
0.000818186
0.0011641
0.000863477
0.00307191
0.0111592
0.00878726
0.00668436
0.00640804
0.0061653
0.00590473
0.00582846
0.00599107
0.00635123
0.00678574
0.00713295
0.00727267
0.00719156
0.00701636
0.00697664
0.0072328
0.00764742
0.0079456
0.0080111
0.00786611
0.00757163
0.00717191
0.00669128
0.0061576
0.00565274
0.00519998
0.0047953
0.00443817
0.00413352
0.00387836
0.0035546
0.00311664
0.00259141
0.0021036
0.0016822
0.00139762
0.00135002
0.00140657
0.00101923
0.00313467
0.00997473
0.0087474
0.00789434
0.00714813
0.00636981
0.0059056
0.00584651
0.00613445
0.00662919
0.0071404
0.00747544
0.00753221
0.00735482
0.00716982
0.00729646
0.00777876
0.00816573
0.00823931
0.00805227
0.00766731
0.00714266
0.006528
0.0058796
0.00526643
0.00474227
0.00431514
0.00397816
0.00372776
0.00356224
0.00347752
0.00343937
0.00327213
0.00296817
0.00272394
0.00265007
0.00286859
0.00338459
0.00404715
0.00153942
0.00305683
0.00363706
0.00408375
0.00417148
0.00423829
0.00448792
0.00498328
0.00570677
0.00654398
0.00731569
0.00783837
0.00796602
0.00772911
0.00737409
0.00737675
0.0075881
0.00777992
0.00777593
0.00753378
0.00709181
0.00649944
0.00580549
0.00508561
0.00442676
0.00389128
0.00348963
0.0031969
0.00298416
0.0028276
0.00270742
0.00260772
0.00252164
0.00245854
0.00241658
0.00240651
0.00241375
0.00237613
0.0022473
0.00207932
0.00142615
0.00173845
0.00316624
0.00488905
0.00628476
0.0073796
0.00821635
0.00870256
0.00880707
0.00854993
0.00797458
0.00729348
0.00687173
0.00681312
0.0068285
0.00669667
0.00637107
0.00587253
0.00525044
0.00457578
0.00393444
0.00339124
0.0029768
0.00268958
0.00250257
0.00238571
0.00231685
0.0022816
0.00227124
0.00228354
0.00231697
0.00235862
0.00240317
0.0024398
0.00244147
0.00236974
0.00222411
0.00199888
0.00117256
0.00208933
0.00478392
0.006876
0.00778826
0.00839841
0.0084374
0.00800999
0.00731483
0.00656207
0.00592559
0.00546393
0.00519097
0.00500878
0.00477763
0.00445253
0.00404123
0.00357411
0.00310575
0.00269695
0.00238518
0.00217294
0.00204199
0.00196559
0.00192582
0.0019213
0.0019449
0.00199038
0.00205096
0.00213002
0.0022253
0.00233289
0.00244321
0.00253727
0.00260547
0.00257797
0.00259041
0.00251547
0.00119191
0.00196287
0.00194497
0.00197859
0.00205726
0.00188142
0.00175779
0.00169296
0.00160337
0.00147984
0.00133752
0.00119305
0.00105952
0.000947462
0.000862391
0.000798759
0.00074824
0.000705274
0.000667535
0.000635319
0.000610308
0.000593899
0.000586311
0.000586861
0.000594726
0.000609311
0.000630422
0.000656678
0.000688177
0.000725454
0.00076973
0.000820243
0.00087677
0.000939773
0.0010096
0.0010852
0.00118251
0.00119954
0.00116134
0.00108925
0.00100705
)
;

boundaryField
{
    floor
    {
        type            nutkWallFunction;
        Cmu             0.09;
        kappa           0.41;
        E               9.8;
        value           nonuniform List<scalar> 
29
(
0.000117088
5.77205e-05
6.91291e-05
7.91521e-05
8.19268e-05
8.04393e-05
7.74496e-05
7.24522e-05
6.71866e-05
6.23556e-05
5.80618e-05
5.426e-05
5.08866e-05
4.78833e-05
4.5195e-05
4.27258e-05
4.03576e-05
3.79309e-05
3.63497e-05
3.26172e-05
3.26171e-05
4.45158e-05
5.27482e-05
5.89172e-05
0.000117088
5.77204e-05
5.8762e-05
0.00010435
0.000163227
)
;
    }
    ceiling
    {
        type            nutkWallFunction;
        Cmu             0.09;
        kappa           0.41;
        E               9.8;
        value           nonuniform List<scalar> 
43
(
0.000229304
0.000227265
0.000230926
0.000239576
0.000220435
0.000206847
0.000199678
0.000189715
0.000175871
0.00015976
0.000143208
0.000127707
0.000114527
0.000104402
9.67521e-05
9.06276e-05
8.53799e-05
8.07387e-05
7.67516e-05
7.36388e-05
7.15878e-05
7.06363e-05
7.07041e-05
7.1688e-05
7.35092e-05
7.61367e-05
7.93902e-05
8.3273e-05
8.78411e-05
9.32309e-05
9.93357e-05
0.000106115
0.000113612
0.000121854
0.000130703
0.000141992
0.000143956
0.000139545
0.000131176
0.000121555
0.000346039
0.000405981
0.000242837
)
;
    }
    sWall
    {
        type            nutkWallFunction;
        Cmu             0.09;
        kappa           0.41;
        E               9.8;
        value           uniform 0.000229364;
    }
    nWall
    {
        type            nutkWallFunction;
        Cmu             0.09;
        kappa           0.41;
        E               9.8;
        value           nonuniform List<scalar> 6(9.94602e-05 0.000104528 0.000122991 0.000140854 0.000143088 0.000121561);
    }
    sideWalls
    {
        type            empty;
    }
    glass1
    {
        type            nutkWallFunction;
        Cmu             0.09;
        kappa           0.41;
        E               9.8;
        value           nonuniform List<scalar> 9(0.000133604 0.000178308 0.000214156 0.000247636 0.000281071 0.00031606 0.000348022 0.000354574 0.000346475);
    }
    glass2
    {
        type            nutkWallFunction;
        Cmu             0.09;
        kappa           0.41;
        E               9.8;
        value           nonuniform List<scalar> 2(0.000182646 0.000169886);
    }
    sun
    {
        type            nutkWallFunction;
        Cmu             0.09;
        kappa           0.41;
        E               9.8;
        value           nonuniform List<scalar> 
14
(
0.000133491
0.000145517
0.000148489
0.000155439
0.000161933
0.000168156
0.000174515
0.000179769
0.000182871
0.00018308
0.000179832
0.000172714
0.000161032
0.000142788
)
;
    }
    heatsource1
    {
        type            nutkWallFunction;
        Cmu             0.09;
        kappa           0.41;
        E               9.8;
        value           nonuniform List<scalar> 3(7.33023e-05 8.83367e-05 9.94588e-05);
    }
    heatsource2
    {
        type            nutkWallFunction;
        Cmu             0.09;
        kappa           0.41;
        E               9.8;
        value           nonuniform List<scalar> 4(0.000135693 9.47755e-05 9.47755e-05 0.000142537);
    }
    Table_master
    {
        type            nutkWallFunction;
        Cmu             0.09;
        kappa           0.41;
        E               9.8;
        value           nonuniform List<scalar> 9(0.000102509 8.98171e-05 7.94632e-05 7.10385e-05 6.41392e-05 5.84377e-05 5.36927e-05 4.97633e-05 4.66177e-05);
    }
    Table_slave
    {
        type            nutkWallFunction;
        Cmu             0.09;
        kappa           0.41;
        E               9.8;
        value           nonuniform List<scalar> 9(0.000116356 0.000106011 9.8547e-05 9.27591e-05 8.77183e-05 8.30275e-05 7.84413e-05 7.35656e-05 6.78684e-05);
    }
    inlet
    {
        type            calculated;
        value           uniform 0.000100623;
    }
    outlet
    {
        type            calculated;
        value           nonuniform List<scalar> 2(0.00196287 0.00194497);
    }
}


// ************************************************************************* //
