/*--------------------------------*- C++ -*----------------------------------*\
  =========                 |
  \\      /  F ield         | OpenFOAM: The Open Source CFD Toolbox
   \\    /   O peration     | Website:  https://openfoam.org
    \\  /    A nd           | Version:  6
     \\/     M anipulation  |
\*---------------------------------------------------------------------------*/
FoamFile
{
    version     2.0;
    format      ascii;
    class       surfaceScalarField;
    location    "900";
    object      phi;
}
// * * * * * * * * * * * * * * * * * * * * * * * * * * * * * * * * * * * * * //

dimensions      [1 0 -1 0 0 0 0];

internalField   nonuniform List<scalar> 
852
(
-0.00295541
0.00301295
-0.00398705
0.00103164
-0.00478481
0.000797768
-0.00540956
0.00062475
-0.00582772
0.000418166
-0.00601139
0.000183676
-0.00593246
-7.89224e-05
-0.00556798
-0.00036448
-0.00493114
-0.000636835
-0.00408387
-0.000847263
-0.00312337
-0.000960497
-0.00216003
-0.000963331
-0.00129417
-0.000865857
-0.00058373
-0.000710438
-0.000582039
-0.000773685
0.000776735
-0.000512749
-0.000260932
8.18309e-05
-0.000594575
0.000577351
-0.000495515
0.000919011
-0.000341656
0.00114039
-0.000221373
0.00126316
-0.000122767
0.00132235
-5.91851e-05
0.00135486
-3.25093e-05
0.00137461
-1.97474e-05
0.00138553
-1.09145e-05
0.00138913
-3.59408e-06
0.00138412
5.01708e-06
0.0013631
2.1024e-05
0.00130527
5.78381e-05
0.00117582
0.000129452
0.00096403
0.000211794
0.00070994
0.000254095
0.000714029
-0.0021176
0.00528554
-0.00313378
0.00204783
-0.00396212
0.00162611
-0.00458355
0.00124618
-0.00499995
0.000834574
-0.00519275
0.000376473
-0.00513054
-0.000141124
-0.00479411
-0.000700901
-0.00420877
-0.00122217
-0.00344752
-0.00160851
-0.00260644
-0.00180157
-0.00178042
-0.00178935
-0.0010502
-0.00159607
-0.000493903
-0.00126674
-0.000231811
-0.000844126
9.01921e-05
-0.00032205
9.01456e-05
0.000269771
0.000515828
0.000669161
-0.000660317
0.000929485
-0.000854894
0.00114953
-0.000715558
0.00132411
-0.000516233
0.00143611
-0.000333364
0.00145558
-0.000142239
0.00146041
-6.40073e-05
0.00146633
-3.84224e-05
0.00147132
-2.47368e-05
0.00147464
-1.4233e-05
0.00147642
-5.36736e-06
0.00147603
5.41345e-06
0.00147032
2.67405e-05
0.00143174
9.64154e-05
0.00126604
0.000295157
0.00097856
0.000499282
0.000620601
0.000612058
0.00134499
-0.00148925
0.00701186
-0.00237092
0.00292951
-0.00311231
0.0023675
-0.00365052
0.0017844
-0.00402097
0.00120503
-0.00420044
0.000555943
-0.0041353
-0.000206263
-0.00379657
-0.00103962
-0.00323423
-0.00178451
-0.0025402
-0.00230253
-0.0018081
-0.00253366
-0.00111272
-0.00248473
-0.000506663
-0.00220212
-2.89537e-05
-0.00174444
0.000287414
-0.00116049
0.000441099
-0.000475731
0.000531249
0.00149058
-0.00096509
0.00170849
-0.000878224
0.0016642
-0.000810601
0.00165208
-0.000703433
0.00167636
-0.000540511
0.00171556
-0.000372561
0.00157348
0.00150963
0.00147137
0.00144679
0.00143271
0.0014275
0.00143307
0.00145997
0.00155654
0.00128471
0.000566999
0.000952294
0.000831697
0.000534658
0.0010297
0.00189529
-0.00104395
0.00836271
-0.00174762
0.00363318
-0.00224728
0.00286717
-0.00260933
0.00214646
-0.00286658
0.00146229
-0.00298502
0.000674389
-0.00286799
-0.000323285
-0.00249131
-0.0014163
-0.00195219
-0.00232362
-0.00135434
-0.00290039
-0.000773071
-0.00311492
-0.000251723
-0.00300607
0.000192936
-0.00264677
0.000559553
-0.00211105
0.000884032
-0.00148496
0.00125022
-0.000841916
0.00208327
-0.000301798
0.0024616
-0.000369785
0.00210332
-0.000606803
0.00197394
-0.000748839
0.00185303
-0.000689685
0.00174447
-0.000594867
0.00167775
-0.000473793
0.00162796
-0.000322767
0.00177023
-0.000142417
0.00186073
-9.06466e-05
0.00193497
-7.43958e-05
0.00199406
-5.92398e-05
0.0020233
-2.93916e-05
0.00200023
2.29202e-05
0.00189889
0.000101191
0.00168565
0.000213092
0.00130549
0.000380009
0.00114218
0.000730319
0.000825383
0.00114849
0.00034962
0.00150547
0.00226529
-0.000730151
0.00945902
-0.00126721
0.00417024
-0.00139216
0.00299212
-0.00149001
0.00224432
-0.0015579
0.00153017
-0.0015364
0.000652896
-0.00128165
-0.00057803
-0.000851177
-0.00184677
-0.000377403
-0.00279739
5.89069e-05
-0.00333669
0.000419518
-0.00347552
0.000697512
-0.00328406
0.000911292
-0.00286055
0.0010918
-0.00229156
0.00127222
-0.00166538
0.00150076
-0.00107045
0.00182062
-0.000621652
0.00193105
-0.000480211
0.00185225
-0.000528004
0.0016803
-0.000576886
0.00152829
-0.000537668
0.00139959
-0.000466162
0.00130738
-0.000381581
0.00126766
-0.000283049
0.00131584
-0.000190588
0.00137491
-0.000149715
0.00143844
-0.000137924
0.00150273
-0.000123528
0.00155687
-8.35291e-05
0.00157978
1.32967e-08
0.00154928
0.0001317
0.00145354
0.000308834
0.00129404
0.000539506
0.0011441
0.000880266
0.000974688
0.00131791
0.000609434
0.00187072
0.000494363
0.00238037
-0.000999874
0.00149404
-0.00146186
0.000461782
-0.00141306
-0.000632637
0.0105077
-0.00100359
0.0045412
-0.000613234
0.00260177
-0.00032889
0.00195998
-0.000124623
0.00132591
0.000176798
0.00035148
0.000640394
-0.00104162
0.00107728
-0.00228365
0.00139716
-0.00311726
0.00158128
-0.00352081
0.00165033
-0.00354457
0.00163822
-0.00327195
0.001575
-0.00279732
0.00149794
-0.0022145
0.00144039
-0.00160783
0.00142784
-0.00105789
0.0014549
-0.000648711
0.00142263
-0.00044794
0.00129968
-0.000405045
0.00112372
-0.00040092
0.000963799
-0.000377746
0.000838247
-0.000340606
0.000754845
-0.000298176
0.000724068
-0.000252268
0.000748563
-0.00021508
0.000803388
-0.000204537
0.000874614
-0.000209147
0.00095632
-0.000205231
0.00104227
-0.000169479
0.00112104
-7.87527e-05
0.00117353
7.92082e-05
0.00119357
0.000288804
0.00119073
0.000542351
0.00120987
0.000861124
0.00129743
0.00123035
0.00146941
0.00169875
0.00190655
0.00194323
0.00216581
0.00123479
0.00177774
0.000849852
0.000423293
-0.000723406
0.0116918
-0.00061348
0.00443127
0.000455472
0.00153282
0.001114
0.00130146
0.00165331
0.000786611
0.00228216
-0.000277373
0.00284547
-0.00160492
0.00316411
-0.00260229
0.0032307
-0.00318384
0.00308928
-0.00337938
0.00280155
-0.00325683
0.00243148
-0.00290188
0.00203259
-0.00239843
0.00165293
-0.00183483
0.00132627
-0.00128117
0.00107266
-0.000804278
0.000890799
-0.000466844
0.000736582
-0.00029372
0.000575202
-0.000243661
0.000414121
-0.000239836
0.000276667
-0.000240289
0.000173951
-0.000237888
0.000110019
-0.000234241
8.88531e-05
-0.0002311
0.000108256
-0.00023448
0.000154521
-0.000250799
0.000217222
-0.000271846
0.000294583
-0.00028259
0.00039069
-0.000265584
0.000510537
-0.000198597
0.000642596
-5.28481e-05
0.000774431
0.000156971
0.000915272
0.000401512
0.00110402
0.000672381
0.00138719
0.000947178
0.0018316
0.00125434
0.00250113
0.0012737
0.0030453
0.000690628
0.00306671
0.000828438
0.00355306
0.00259647
0.00960999
0.00326851
0.00375924
0.0034187
0.00138264
0.00384801
0.00087215
0.00451187
0.000122751
0.0052026
-0.000968094
0.0054985
-0.00190082
0.00539478
-0.00249857
0.00497252
-0.00276158
0.00433316
-0.00274001
0.00357765
-0.00250131
0.00279318
-0.00211741
0.00203817
-0.00164341
0.00136787
-0.00116453
0.000811585
-0.00072488
0.000389618
-0.000382307
0.000104243
-0.000181467
-8.71336e-05
-0.00010234
-0.000232957
-9.78339e-05
-0.000354454
-0.000118337
-0.00045332
-0.00014142
-0.000527945
-0.00016326
-0.0005779
-0.000184283
-0.000603162
-0.000205835
-0.000607128
-0.000230511
-0.00059852
-0.000259405
-0.000583149
-0.000287215
-0.000560304
-0.000305432
-0.000521669
-0.000304216
-0.000448177
-0.000272088
-0.000308493
-0.000192529
-0.000116665
-3.48544e-05
0.000107617
0.000177233
0.000383712
0.000396288
0.000721788
0.000609105
0.00116197
0.000814162
0.00163209
0.000803592
0.0018162
0.00050652
0.00106147
0.00158318
0.00487541
0.010175
0.0139271
0.0122204
0.00308936
0.011283
0.00180952
0.0105442
0.000861623
0.00967711
-0.000101031
0.00855225
-0.000775948
0.00727577
-0.00122209
0.00594163
-0.00142743
0.00461661
-0.00141499
0.00336235
-0.00124705
0.00223304
-0.000988097
0.00123459
-0.000644959
0.000411078
-0.000341017
-0.000203199
-0.000110601
-0.000593323
7.82009e-06
-0.000808573
3.37863e-05
-0.000932693
2.17824e-05
-0.00102444
-6.08724e-06
-0.00110519
-3.7583e-05
-0.00117811
-6.84956e-05
-0.00124351
-9.78582e-05
-0.00130223
-0.000125554
-0.00135601
-0.000152053
-0.00140899
-0.000177531
-0.00146837
-0.000200025
-0.00154147
-0.000214116
-0.00163557
-0.000211329
-0.00175963
-0.000180149
-0.00192518
-0.000106538
-0.00214014
2.24335e-05
-0.00239083
0.000215843
-0.00270207
0.000488477
-0.0031623
0.000856522
-0.00386849
0.00131529
-0.00488394
0.00182962
-0.00632145
0.0022411
-0.00804684
0.00223192
-0.00752447
0.00106081
-0.00235985
0.00511606
0.00459571
0.0041361
0.00278949
0.00455579
0.000441938
0.00460479
-0.00015002
0.00420845
-0.000379607
0.00353973
-0.000553364
0.00270221
-0.000589906
0.00178693
-0.000499712
0.000870403
-0.000330517
2.17518e-06
-0.000119868
-0.000716838
7.4056e-05
-0.00119769
0.00013984
-0.00146439
0.000156096
-0.00159534
0.00013877
-0.00166675
0.000105202
-0.0017166
7.16388e-05
-0.0017631
4.04098e-05
-0.00181385
1.31718e-05
-0.00187197
-1.03768e-05
-0.00193728
-3.25438e-05
-0.00200961
-5.32184e-05
-0.00208984
-7.18223e-05
-0.00217951
-8.78579e-05
-0.00228081
-9.87185e-05
-0.00239481
-0.000100122
-0.00252017
-8.59659e-05
-0.00265201
-4.83031e-05
-0.00278111
2.25649e-05
-0.00289525
0.000136573
-0.00299213
0.000312729
-0.0030806
0.000576945
-0.00316824
0.000944173
-0.00325341
0.00140046
-0.00328848
0.00186468
-0.00321164
0.00216427
-0.0028402
0.00186048
-0.00156623
-0.000213153
-0.00385039
-0.000432432
0.00508415
0.000862797
0.00149427
0.000867127
0.000437613
0.000632216
8.48936e-05
0.000289785
-3.71753e-05
-0.000213327
-5.02537e-05
-0.000805157
1.92355e-06
-0.00137326
6.83926e-05
-0.00183085
0.000127077
-0.00212307
0.000172348
-0.00224504
0.00019603
-0.00228923
0.000184031
-0.00229226
0.000159131
-0.0022838
0.000130314
-0.00228184
0.000103243
-0.0022903
8.00959e-05
-0.00230934
5.94605e-05
-0.00233679
4.06171e-05
-0.00237091
2.37499e-05
-0.00241207
8.62138e-06
-0.00246028
-5.01116e-06
-0.00251544
-1.66547e-05
-0.00257715
-2.61459e-05
-0.00264353
-3.23353e-05
-0.00271054
-3.31163e-05
-0.00277119
-2.53073e-05
-0.00281479
-4.70628e-06
-0.0028288
3.65847e-05
-0.00279982
0.000107597
-0.00270426
0.000217165
-0.00250881
0.0003815
-0.00218636
0.000621728
-0.00172356
0.000937667
-0.00109767
0.00123879
-0.000126482
0.00119309
0.00117123
0.000562772
0.00156964
-0.000611561
-0.00219765
0.000184282
-0.0108403
-0.0057121
-0.00419451
-0.00374214
-0.00364733
-0.00367773
-0.00372349
-0.00371881
-0.00364892
-0.00352138
-0.00334944
-0.00315455
-0.0029723
-0.00281544
-0.0026878
-0.00258754
-0.00251065
-0.00245457
-0.00241742
-0.0023972
-0.00239212
-0.00240066
-0.0024208
-0.00245038
-0.00248609
-0.0025225
-0.00255101
-0.00255883
-0.00252525
-0.00242054
-0.00220617
-0.00182735
-0.00120823
-0.000273103
0.000963134
0.00215356
0.00271351
0.0020989
)
;

boundaryField
{
    floor
    {
        type            calculated;
        value           nonuniform List<scalar> 
29
(
0
0
0
0
0
0
0
0
0
0
0
0
0
0
0
0
0
0
0
0
-4.08494e-06
-1.03538e-05
-1.56414e-05
-2.03765e-05
-1.686e-06
-3.04577e-06
-8.85913e-06
-9.65521e-06
-8.54208e-06
)
;
    }
    ceiling
    {
        type            calculated;
        value           nonuniform List<scalar> 
43
(
-2.37501e-05
-4.3825e-05
-4.40064e-05
-2.33234e-05
-1.47512e-05
-9.91673e-06
-6.77591e-06
-4.49024e-06
-2.7576e-06
-1.4933e-06
-4.61976e-07
4.06973e-07
1.14983e-06
1.77392e-06
2.27893e-06
2.67564e-06
2.98262e-06
3.21341e-06
3.37583e-06
3.47762e-06
3.52951e-06
3.54319e-06
3.52751e-06
3.49017e-06
3.43786e-06
3.37291e-06
3.29683e-06
3.21057e-06
3.11429e-06
3.00682e-06
2.89609e-06
2.78844e-06
2.68887e-06
2.60438e-06
2.5479e-06
2.5557e-06
2.66178e-06
2.83128e-06
3.04646e-06
4.03948e-06
1.01333e-05
7.09839e-06
-5.59982e-05
)
;
    }
    sWall
    {
        type            calculated;
        value           uniform -0.000230387;
    }
    nWall
    {
        type            calculated;
        value           nonuniform List<scalar> 6(-4.90008e-05 -5.86037e-05 -6.30561e-05 -7.56832e-05 -8.31017e-05 -0.000102783);
    }
    sideWalls
    {
        type            empty;
        value           nonuniform 0();
    }
    glass1
    {
        type            calculated;
        value           nonuniform List<scalar> 9(-5.75333e-05 -0.000154989 -0.000237064 -0.000306894 -0.000366148 -0.000416078 -0.000460658 -0.000514655 -0.000575109);
    }
    glass2
    {
        type            calculated;
        value           nonuniform List<scalar> 2(-0.000260878 -0.000289209);
    }
    sun
    {
        type            calculated;
        value           uniform 0;
    }
    heatsource1
    {
        type            calculated;
        value           nonuniform List<scalar> 3(2.04259e-07 2.04193e-07 2.0421e-07);
    }
    heatsource2
    {
        type            calculated;
        value           nonuniform List<scalar> 4(5.12008e-08 5.12926e-08 0 0);
    }
    Table_master
    {
        type            calculated;
        value           nonuniform List<scalar> 9(-1.53186e-07 -1.53274e-07 -1.53306e-07 -1.53327e-07 -1.53343e-07 -1.53354e-07 -1.53359e-07 -1.53355e-07 -1.53326e-07);
    }
    Table_slave
    {
        type            calculated;
        value           nonuniform List<scalar> 9(1.53063e-07 1.53079e-07 1.53056e-07 1.53037e-07 1.53029e-07 1.53033e-07 1.53046e-07 1.53088e-07 1.5317e-07);
    }
    inlet
    {
        type            calculated;
        value           uniform -0.00662241;
    }
    outlet
    {
        type            calculated;
        value           nonuniform List<scalar> 2(6.98561e-05 0.0110684);
    }
}


// ************************************************************************* //
