/*--------------------------------*- C++ -*----------------------------------*\
  =========                 |
  \\      /  F ield         | OpenFOAM: The Open Source CFD Toolbox
   \\    /   O peration     | Website:  https://openfoam.org
    \\  /    A nd           | Version:  6
     \\/     M anipulation  |
\*---------------------------------------------------------------------------*/
FoamFile
{
    version     2.0;
    format      ascii;
    class       volScalarField;
    location    "1600";
    object      alphat;
}
// * * * * * * * * * * * * * * * * * * * * * * * * * * * * * * * * * * * * * //

dimensions      [1 -1 -1 0 0 0 0];

internalField   nonuniform List<scalar> 
459
(
0.00123619
0.00134888
0.00137448
0.00144008
0.00150088
0.00155825
0.00161527
0.0016697
0.00170795
0.00172271
0.001707
0.00165585
0.00156691
0.00144268
0.00129679
0.000539286
0.000643939
0.000727784
0.000735092
0.000714426
0.000684404
0.000642433
0.000599558
0.000560523
0.000525944
0.00049539
0.00046831
0.000444257
0.000422756
0.000403025
0.000384087
0.000364597
0.000352505
0.000322707
0.00168245
0.00399222
0.00377957
0.00438431
0.00497673
0.00557083
0.00608709
0.00648931
0.00686309
0.00717403
0.00737958
0.00743605
0.00729075
0.00681859
0.00549252
0.0013204
0.000820685
0.000562396
0.001186
0.00166322
0.00202498
0.00223942
0.00225124
0.00177863
0.00152812
0.00135062
0.00121515
0.00110807
0.00102125
0.000947467
0.000878726
0.000812096
0.000752999
0.000701063
0.000832392
0.000429396
0.0020533
0.0054143
0.00460884
0.00574142
0.00626123
0.00663948
0.00693554
0.00719692
0.00750013
0.0078286
0.00814385
0.00838742
0.00850642
0.00841258
0.00784794
0.0060218
0.00136072
0.00105742
0.00154275
0.0020133
0.00247048
0.0028109
0.00277789
0.000913307
0.00080782
0.000722115
0.000652534
0.000595656
0.000548748
0.000509784
0.000477454
0.000451185
0.000487373
0.000562472
0.000939958
0.000501665
0.00240948
0.00692652
0.00454921
0.00599535
0.00638806
0.00648339
0.00656411
0.00671322
0.00696792
0.00730993
0.00770278
0.00806323
0.00833409
0.00843945
0.00832183
0.00767304
0.00514476
0.00159214
0.00191002
0.00244032
0.0030226
0.00354249
0.0039019
0.00371792
0.00103374
0.000945911
0.000883403
0.000835898
0.000795299
0.000757197
0.000720468
0.000681684
0.000636474
0.000597142
0.000603033
0.00109101
0.000558873
0.00277256
0.00890058
0.00491811
0.0057171
0.00625838
0.00620441
0.00615331
0.00626585
0.00650432
0.00685399
0.00728831
0.00768485
0.00796181
0.00806846
0.00800687
0.00774896
0.00709352
0.00601216
0.00564665
0.00559093
0.00564919
0.00571712
0.00572692
0.00554815
0.00471804
0.00431599
0.00408361
0.00390363
0.00371222
0.00343735
0.00305495
0.00258441
0.00205928
0.00153685
0.00113419
0.0011178
0.000759835
0.000690357
0.000832262
0.000934679
0.00315815
0.0110659
0.00676671
0.00552911
0.00605301
0.00622603
0.00606036
0.00616484
0.00636271
0.00668734
0.00711049
0.00752421
0.00779948
0.00785978
0.00772379
0.00749149
0.00727356
0.00713759
0.00715398
0.00719079
0.00716335
0.00706091
0.00688752
0.00663017
0.00624386
0.00589855
0.00559448
0.00530452
0.00501068
0.00469555
0.00429336
0.00378543
0.00317107
0.00248843
0.00187524
0.00137907
0.00105554
0.000901326
0.00128296
0.000977634
0.00351986
0.0126261
0.00970088
0.00702211
0.00656091
0.00659832
0.00643369
0.00634138
0.00643809
0.00674789
0.0071947
0.00762956
0.00789181
0.0078938
0.00767762
0.0074236
0.00736771
0.0075801
0.00783974
0.00792529
0.00780503
0.00753675
0.00717252
0.00675008
0.00630797
0.00590747
0.00555088
0.00522476
0.00492472
0.00465564
0.00441665
0.00408996
0.00361734
0.00303096
0.00245806
0.00192975
0.00155624
0.00144667
0.00148185
0.00111935
0.00359584
0.0114419
0.0099344
0.00880904
0.00812223
0.0073558
0.00671456
0.00644778
0.00657305
0.00699184
0.0075316
0.00798877
0.00818643
0.00806698
0.00774221
0.00749606
0.00760127
0.00794833
0.00809334
0.00792931
0.00754446
0.00702749
0.0064561
0.00590375
0.00542642
0.00503961
0.00472347
0.00446169
0.00425218
0.00410207
0.004021
0.00398402
0.00375641
0.00338197
0.0030451
0.00287282
0.00299664
0.00346904
0.00424879
0.00173572
0.00350569
0.00418998
0.00473673
0.00491139
0.00492907
0.0050479
0.00538494
0.00597076
0.00675263
0.00757648
0.0082482
0.00859914
0.00851924
0.00808788
0.00762842
0.00754628
0.0076234
0.00762107
0.00738108
0.00690752
0.00629101
0.00563295
0.00502693
0.00453068
0.00415178
0.00386301
0.00363228
0.00343891
0.00327084
0.00311899
0.00297523
0.00283935
0.00273186
0.00265222
0.00262088
0.0026293
0.00260842
0.00249665
0.002329
0.00162295
0.00216647
0.00383597
0.00529407
0.0065113
0.00749842
0.00838298
0.00906896
0.00941064
0.00936019
0.00893772
0.00820661
0.00739
0.00689434
0.00671226
0.00650994
0.00613977
0.00561175
0.00500619
0.00440437
0.00387907
0.00347303
0.00317882
0.00296822
0.00281383
0.00269778
0.00261071
0.00254824
0.00250885
0.00249582
0.00251114
0.00253843
0.00257322
0.00260592
0.00260754
0.00253208
0.00236587
0.00212388
0.00133209
0.00251899
0.00536636
0.00733515
0.00825043
0.00886309
0.00928241
0.00923233
0.00864108
0.00774652
0.00679278
0.00599495
0.00541947
0.00503396
0.00468663
0.00427017
0.00380578
0.00335277
0.00296502
0.00266925
0.00246155
0.00231713
0.00221777
0.00215723
0.00212805
0.00212477
0.00214386
0.00218196
0.00223421
0.00230743
0.00239816
0.00250323
0.00261478
0.00271456
0.00278143
0.00275997
0.00277808
0.00274423
0.00135432
0.00215137
0.00226606
0.00235058
0.00241783
0.00218725
0.00200743
0.00192168
0.00183447
0.00170833
0.00155278
0.00137604
0.00120112
0.00104663
0.000924297
0.000835905
0.000773677
0.000729162
0.000697559
0.000676922
0.000666274
0.000664415
0.000669918
0.000681571
0.000698805
0.000720441
0.000746227
0.000776308
0.00081106
0.000851185
0.000897978
0.00095065
0.00100941
0.00107499
0.00114804
0.00122834
0.00132528
0.00135543
0.0013207
0.00123729
0.00114835
)
;

boundaryField
{
    floor
    {
        type            compressible::alphatWallFunction;
        Prt             0.85;
        value           nonuniform List<scalar> 
29
(
0.000183445
7.52292e-05
9.09257e-05
0.000103275
0.000104343
0.00010132
9.6909e-05
9.07024e-05
8.43108e-05
7.84426e-05
7.32019e-05
6.85355e-05
6.43693e-05
6.06433e-05
5.72909e-05
5.41952e-05
5.12054e-05
4.81088e-05
4.61768e-05
4.13783e-05
4.13777e-05
5.83287e-05
6.94971e-05
7.81943e-05
0.000183443
7.52283e-05
7.87249e-05
0.000150356
0.000223337
)
;
    }
    ceiling
    {
        type            compressible::alphatWallFunction;
        Prt             0.85;
        value           nonuniform List<scalar> 
43
(
0.000296653
0.000311431
0.000322274
0.000330988
0.000301454
0.000278172
0.000266995
0.000255565
0.00023892
0.0002182
0.00019437
0.000170442
0.000148974
0.000131714
0.000119076
0.000110084
0.000103599
9.89656e-05
9.59264e-05
9.4354e-05
9.40792e-05
9.48928e-05
9.66127e-05
9.91495e-05
0.000102324
0.000106092
0.000110468
0.000115498
0.000121274
0.00012797
0.000135457
0.000143754
0.000152946
0.00016311
0.000174198
0.000187473
0.00019158
0.00018685
0.00017543
0.000163158
0.000467268
0.000550501
0.000343627
)
;
    }
    sWall
    {
        type            compressible::alphatWallFunction;
        Prt             0.85;
        value           uniform 0.000295434;
    }
    nWall
    {
        type            compressible::alphatWallFunction;
        Prt             0.85;
        value           nonuniform List<scalar> 6(0.000132866 0.000138942 0.000158785 0.000188073 0.000191096 0.000162831);
    }
    sideWalls
    {
        type            empty;
    }
    glass1
    {
        type            compressible::alphatWallFunction;
        Prt             0.85;
        value           nonuniform List<scalar> 9(0.000170838 0.000230248 0.000278416 0.000323885 0.000369567 0.000417445 0.000461851 0.00047125 0.000460478);
    }
    glass2
    {
        type            compressible::alphatWallFunction;
        Prt             0.85;
        value           nonuniform List<scalar> 2(0.000240784 0.000225939);
    }
    sun
    {
        type            compressible::alphatWallFunction;
        Prt             0.85;
        value           nonuniform List<scalar> 
14
(
0.00017516
0.000190554
0.000194033
0.000202917
0.000211111
0.000218808
0.000226428
0.000233674
0.000238749
0.000240704
0.000238621
0.000231829
0.000219964
0.000203265
)
;
    }
    heatsource1
    {
        type            compressible::alphatWallFunction;
        Prt             0.85;
        value           nonuniform List<scalar> 3(9.78991e-05 0.000118546 0.000133184);
    }
    heatsource2
    {
        type            compressible::alphatWallFunction;
        Prt             0.85;
        value           nonuniform List<scalar> 4(0.000186798 0.000116878 0.000116877 0.000192288);
    }
    Table_master
    {
        type            compressible::alphatWallFunction;
        Prt             0.85;
        value           nonuniform List<scalar> 9(0.000130143 0.000115019 0.000102559 9.23105e-05 8.38342e-05 7.67685e-05 7.08422e-05 6.58816e-05 6.18198e-05);
    }
    Table_slave
    {
        type            compressible::alphatWallFunction;
        Prt             0.85;
        value           nonuniform List<scalar> 9(0.000147163 0.000134777 0.00012588 0.000119069 0.000113212 0.000107682 0.00010232 9.66214e-05 8.99288e-05);
    }
    inlet
    {
        type            fixedValue;
        value           uniform 1.94e-05;
    }
    outlet
    {
        type            zeroGradient;
    }
}


// ************************************************************************* //
