/*--------------------------------*- C++ -*----------------------------------*\
  =========                 |
  \\      /  F ield         | OpenFOAM: The Open Source CFD Toolbox
   \\    /   O peration     | Website:  https://openfoam.org
    \\  /    A nd           | Version:  6
     \\/     M anipulation  |
\*---------------------------------------------------------------------------*/
FoamFile
{
    version     2.0;
    format      ascii;
    class       volScalarField;
    location    "800";
    object      alphat;
}
// * * * * * * * * * * * * * * * * * * * * * * * * * * * * * * * * * * * * * //

dimensions      [1 -1 -1 0 0 0 0];

internalField   nonuniform List<scalar> 
459
(
0.00140693
0.00155327
0.00160214
0.00168838
0.00177322
0.00186169
0.00193902
0.00198875
0.0020004
0.00196806
0.00188543
0.00169058
0.0015099
0.00130278
0.00111084
0.000624077
0.000732103
0.000858868
0.000932945
0.000943461
0.000921503
0.000864287
0.000802679
0.000747128
0.000698737
0.000656693
0.000620049
0.000587797
0.000559259
0.000533321
0.000508572
0.000482996
0.000457417
0.000413759
0.00185083
0.00472965
0.00463392
0.00538656
0.00613016
0.00672607
0.00721923
0.00764414
0.0079617
0.00813731
0.0081233
0.00782333
0.00720437
0.0059897
0.00399918
0.00136371
0.00109093
0.000612773
0.00153126
0.0024486
0.00321895
0.0036922
0.00364517
0.00254612
0.00210058
0.00181329
0.00160667
0.00145065
0.00132876
0.00123203
0.00114262
0.00104785
0.000956364
0.000874969
0.000923129
0.000478354
0.00221287
0.00641218
0.00572593
0.00665821
0.00711475
0.00746127
0.0077934
0.00816072
0.00855966
0.00894942
0.00922014
0.00924414
0.00899033
0.00835312
0.00690512
0.00448638
0.00133785
0.00081654
0.00162593
0.00266483
0.0037905
0.00460406
0.00442414
0.00118172
0.00102608
0.00090058
0.000800337
0.000719927
0.000654876
0.000601824
0.000559363
0.00052784
0.000594063
0.000709539
0.00105172
0.000522242
0.00255395
0.00796382
0.00586387
0.00686532
0.00702821
0.00716325
0.0073587
0.00766863
0.00811614
0.00864166
0.0090542
0.00926178
0.00925021
0.00898651
0.00824653
0.00670297
0.00362176
0.0015074
0.00178371
0.00261128
0.00386697
0.00515503
0.00603178
0.00563808
0.00134297
0.00121434
0.00111604
0.0010363
0.000967512
0.00090351
0.000840246
0.000774445
0.000700859
0.000644129
0.000690431
0.00118823
0.000557568
0.00289824
0.00992004
0.00642755
0.00698508
0.00708078
0.00704596
0.00709869
0.00735265
0.00782454
0.00837548
0.00882957
0.00906906
0.00908992
0.00894803
0.0086102
0.00789069
0.00652105
0.00569238
0.00606968
0.00677336
0.00756298
0.00818656
0.00847838
0.00820048
0.00665514
0.00582343
0.00527454
0.004792
0.00427427
0.00371421
0.00311293
0.00248387
0.00185688
0.0013098
0.00100374
0.00116899
0.000704518
0.000656708
0.000795058
0.000894752
0.00326257
0.012093
0.00850081
0.0076381
0.00759895
0.00727923
0.00712902
0.00729901
0.00777565
0.00836744
0.00884161
0.00905438
0.00902723
0.00890871
0.00883531
0.00881372
0.00870572
0.00890912
0.00954552
0.010083
0.0104065
0.0104722
0.0102784
0.00980719
0.00899341
0.00820766
0.0074899
0.00677866
0.00605098
0.00529291
0.00449668
0.00366729
0.00283525
0.00207511
0.00155477
0.0013209
0.000983767
0.000851664
0.00121983
0.000935683
0.0035841
0.0135561
0.0114215
0.00945973
0.00844581
0.00757455
0.00721706
0.00739256
0.00795298
0.00862404
0.00912058
0.00929916
0.00924998
0.00926847
0.0096371
0.0102033
0.0107328
0.0112984
0.0118177
0.012005
0.0118983
0.0115492
0.0110132
0.0103301
0.00952253
0.00870899
0.0079247
0.00716384
0.00640571
0.00566204
0.00492727
0.00419146
0.00345557
0.00274341
0.00219609
0.00180883
0.00148876
0.00140996
0.00143917
0.00108614
0.00364115
0.0116526
0.0105465
0.00919629
0.00787475
0.00711697
0.00704774
0.00755458
0.00838127
0.00917723
0.0096529
0.00975869
0.00976903
0.0102447
0.0110896
0.0116856
0.0121301
0.0124778
0.012632
0.0124673
0.0120115
0.0113433
0.0105324
0.00963147
0.00868975
0.0077836
0.00693863
0.00614737
0.00544042
0.00485677
0.00440029
0.00400678
0.00361182
0.00318299
0.00289336
0.00279681
0.00294656
0.00341496
0.00419819
0.00166673
0.00354328
0.00418539
0.00459488
0.00470784
0.00499582
0.00573322
0.00686654
0.00818524
0.00937748
0.0101063
0.0102579
0.0102261
0.0106706
0.0112824
0.0117774
0.0120608
0.0122021
0.0121918
0.0119539
0.011447
0.0107068
0.00979996
0.00878893
0.007738
0.00671438
0.00575758
0.00489289
0.00415394
0.00356486
0.00313625
0.00285026
0.0026743
0.00257036
0.00251762
0.00250872
0.00252306
0.00250289
0.00239946
0.00224192
0.00156512
0.0017447
0.00355517
0.00673913
0.00899115
0.0104061
0.0111416
0.0112992
0.0109631
0.010422
0.0102591
0.0105232
0.0107781
0.0108665
0.0108286
0.0106673
0.0103257
0.00975879
0.00898114
0.00806364
0.00709735
0.00616187
0.00531127
0.00456999
0.00394159
0.00342894
0.00303588
0.00275731
0.00257914
0.0024828
0.00244997
0.00246364
0.00250771
0.00256186
0.00259443
0.00256622
0.00247595
0.00228095
0.00133479
0.0023376
0.00698804
0.00968304
0.0106995
0.0106583
0.0100826
0.00932997
0.00869056
0.00828524
0.00807891
0.00794959
0.00781772
0.0076829
0.00752327
0.00728752
0.00693009
0.00644593
0.00587938
0.00530056
0.00476961
0.0043166
0.00394406
0.00363964
0.00338768
0.00317512
0.00299306
0.00283767
0.00271136
0.00262146
0.00257618
0.00257849
0.0026192
0.00267383
0.0027214
0.00267939
0.00273067
0.00282031
0.00137038
0.00208183
0.00219608
0.00227709
0.00242018
0.00225389
0.00213362
0.00201246
0.00186659
0.00171282
0.00157443
0.00146582
0.00139082
0.00134153
0.00130756
0.00128044
0.00125376
0.0012232
0.00118711
0.00114682
0.00110558
0.00106672
0.0010323
0.00100287
0.000978072
0.000957417
0.000940898
0.00092927
0.000923965
0.000926742
0.000939257
0.000962742
0.000997977
0.00104542
0.0011048
0.00117317
0.00125888
0.0012732
0.00122564
0.00116175
0.00109606
)
;

boundaryField
{
    floor
    {
        type            compressible::alphatWallFunction;
        Prt             0.85;
        value           nonuniform List<scalar> 
29
(
0.000157805
8.79796e-05
0.000103913
0.000122256
0.000132826
0.000134321
0.000131204
0.000123039
0.000114175
0.000106112
9.90304e-05
9.28293e-05
8.73851e-05
8.25609e-05
7.82651e-05
7.43372e-05
7.05671e-05
6.66467e-05
6.26994e-05
5.58969e-05
5.58961e-05
6.5931e-05
7.26501e-05
7.80074e-05
0.000157803
8.79786e-05
8.62921e-05
0.000116154
0.000211971
)
;
    }
    ceiling
    {
        type            compressible::alphatWallFunction;
        Prt             0.85;
        value           nonuniform List<scalar> 
43
(
0.000287678
0.000302449
0.000312877
0.000331348
0.000310097
0.000294602
0.000278888
0.000259825
0.000239552
0.000221135
0.000206557
0.000196421
0.000189727
0.000185098
0.000181392
0.000177738
0.00017354
0.000168566
0.000162991
0.000157262
0.000151841
0.000147019
0.000142882
0.000139384
0.000136462
0.000134119
0.000132466
0.00013171
0.000132101
0.000133875
0.000137199
0.00014217
0.000148833
0.000157124
0.000166608
0.000178407
0.000180371
0.000173844
0.000165028
0.000155912
0.000471865
0.000549929
0.000320422
)
;
    }
    sWall
    {
        type            compressible::alphatWallFunction;
        Prt             0.85;
        value           uniform 0.000286477;
    }
    nWall
    {
        type            compressible::alphatWallFunction;
        Prt             0.85;
        value           nonuniform List<scalar> 6(0.000127209 0.000133026 0.000154178 0.000188476 0.000193317 0.0001556);
    }
    sideWalls
    {
        type            empty;
    }
    glass1
    {
        type            compressible::alphatWallFunction;
        Prt             0.85;
        value           nonuniform List<scalar> 9(0.000193653 0.000252058 0.000298671 0.00034192 0.000385017 0.000430086 0.000469476 0.000476563 0.000464877);
    }
    glass2
    {
        type            compressible::alphatWallFunction;
        Prt             0.85;
        value           nonuniform List<scalar> 2(0.000231803 0.000218396);
    }
    sun
    {
        type            compressible::alphatWallFunction;
        Prt             0.85;
        value           nonuniform List<scalar> 
14
(
0.000198438
0.000218132
0.000224667
0.000236147
0.000247376
0.000259024
0.000269156
0.000275647
0.000277162
0.000272943
0.000262123
0.000236433
0.000212309
0.000184257
)
;
    }
    heatsource1
    {
        type            compressible::alphatWallFunction;
        Prt             0.85;
        value           nonuniform List<scalar> 3(9.29274e-05 0.000113173 0.000127496);
    }
    heatsource2
    {
        type            compressible::alphatWallFunction;
        Prt             0.85;
        value           nonuniform List<scalar> 4(0.000192698 0.000155168 0.000155166 0.000189175);
    }
    Table_master
    {
        type            compressible::alphatWallFunction;
        Prt             0.85;
        value           nonuniform List<scalar> 9(0.000167768 0.000146094 0.000128338 0.000113945 0.000102245 9.26637e-05 8.47638e-05 7.83792e-05 7.36006e-05);
    }
    Table_slave
    {
        type            compressible::alphatWallFunction;
        Prt             0.85;
        value           nonuniform List<scalar> 9(0.000189885 0.000172272 0.000158667 0.000147531 0.000137843 0.000128757 0.0001197 0.000110194 9.94473e-05);
    }
    inlet
    {
        type            fixedValue;
        value           uniform 1.94e-05;
    }
    outlet
    {
        type            zeroGradient;
    }
}


// ************************************************************************* //
