/*--------------------------------*- C++ -*----------------------------------*\
  =========                 |
  \\      /  F ield         | OpenFOAM: The Open Source CFD Toolbox
   \\    /   O peration     | Website:  https://openfoam.org
    \\  /    A nd           | Version:  6
     \\/     M anipulation  |
\*---------------------------------------------------------------------------*/
FoamFile
{
    version     2.0;
    format      ascii;
    class       volScalarField;
    location    "800";
    object      nut;
}
// * * * * * * * * * * * * * * * * * * * * * * * * * * * * * * * * * * * * * //

dimensions      [0 2 -1 0 0 0 0];

internalField   nonuniform List<scalar> 
459
(
0.00121088
0.0013357
0.00137767
0.00145182
0.00152476
0.00160081
0.00166728
0.00171
0.00171997
0.00169215
0.00162112
0.00145367
0.00129834
0.00112027
0.00095527
0.000537209
0.00063013
0.000739188
0.000802953
0.000812048
0.000793188
0.000743971
0.000690968
0.000643173
0.00060154
0.000565367
0.000533841
0.000506094
0.000481543
0.00045923
0.000437939
0.000415937
0.000393935
0.000356381
0.00159383
0.00406774
0.00398509
0.00463237
0.00527188
0.00578431
0.00620819
0.00657314
0.00684572
0.00699647
0.00698455
0.00672702
0.00619504
0.00515067
0.00343907
0.00117272
0.00093814
0.000527501
0.00131784
0.0021072
0.00277025
0.00317776
0.00313752
0.00219163
0.00180818
0.00156093
0.00138312
0.00124885
0.00114396
0.00106072
0.000983788
0.000902225
0.000823497
0.000753455
0.000794992
0.000412018
0.00190674
0.0055158
0.00492489
0.00572694
0.00611986
0.00641799
0.00670323
0.00701814
0.00736015
0.00769473
0.00792767
0.0079489
0.00773114
0.00718343
0.00593827
0.00385821
0.00115052
0.0007028
0.00139918
0.00229313
0.00326207
0.00396272
0.00380831
0.00101724
0.000883294
0.000775279
0.000689006
0.000619803
0.000563821
0.000518166
0.000481627
0.000454503
0.000511552
0.000611023
0.000905761
0.000449832
0.00220201
0.00685209
0.00504437
0.00590631
0.00604706
0.00616356
0.00633095
0.00659581
0.00697904
0.00743008
0.00778502
0.00796431
0.00795515
0.00772883
0.0070925
0.00576494
0.00311487
0.00129647
0.00153425
0.00224642
0.00332734
0.00443667
0.00519237
0.00485432
0.00115644
0.0010458
0.000961231
0.000892634
0.000833449
0.000778375
0.000723924
0.000667277
0.000603907
0.000554914
0.000594713
0.00102345
0.000480285
0.00250039
0.00853767
0.00553032
0.00601065
0.00609413
0.00606477
0.00610876
0.00632462
0.00672839
0.00720116
0.00759188
0.00779893
0.00781808
0.00769681
0.00740646
0.00678758
0.00560943
0.0048969
0.00522213
0.00582868
0.00650973
0.00704821
0.00730115
0.00706322
0.00573318
0.00501736
0.00454494
0.00412952
0.00368363
0.00320112
0.00268299
0.00214084
0.0016004
0.00112872
0.000864788
0.00100702
0.000606905
0.000566052
0.000685497
0.000771428
0.00281633
0.0104117
0.00731623
0.00657428
0.00654266
0.00626725
0.00613552
0.00627865
0.00668611
0.00719396
0.00760225
0.00778689
0.00776537
0.00766469
0.00760214
0.00758382
0.00749118
0.00766704
0.00821619
0.00868076
0.00896158
0.00902031
0.00885537
0.00845093
0.00775085
0.00707451
0.00645645
0.00584376
0.00521669
0.00456326
0.0038768
0.00316166
0.00244419
0.00178865
0.00133986
0.00113808
0.000847552
0.000733929
0.00105134
0.000806579
0.0030956
0.011678
0.00983551
0.0081467
0.00727499
0.00652257
0.00621091
0.00635803
0.00683744
0.0074139
0.00784229
0.0079986
0.00795904
0.00797696
0.00829545
0.00878339
0.00924
0.00972844
0.0101778
0.0103415
0.0102519
0.00995333
0.00949311
0.00890562
0.00821035
0.00750957
0.00683373
0.00617788
0.00552421
0.00488288
0.00424912
0.0036144
0.00297959
0.00236521
0.00189298
0.00155887
0.00128288
0.00121506
0.00124033
0.000936197
0.00314726
0.0100525
0.00909443
0.00792959
0.00678658
0.00612778
0.00606235
0.00649406
0.00720316
0.00788863
0.00830101
0.0083965
0.0084094
0.00882176
0.00955093
0.010065
0.0104491
0.0107505
0.0108858
0.0107462
0.0103553
0.00978088
0.00908287
0.00830674
0.0074951
0.00671386
0.00598519
0.00530274
0.0046929
0.00418935
0.00379544
0.00345582
0.00311492
0.00274474
0.00249463
0.00241102
0.00253991
0.00294383
0.00361928
0.00143741
0.00306599
0.00361821
0.00396908
0.00406281
0.00430234
0.00492866
0.00589728
0.00702871
0.00805594
0.00868826
0.00882528
0.00880464
0.00919216
0.00972143
0.0101492
0.0103945
0.0105177
0.0105106
0.0103075
0.00987208
0.00923502
0.0084538
0.00758225
0.00667595
0.005793
0.00496756
0.00422149
0.00358387
0.00307552
0.00270563
0.00245879
0.00230689
0.00221715
0.00217161
0.00216394
0.0021764
0.0021592
0.00207019
0.00193439
0.00135067
0.00146745
0.0029987
0.00571614
0.00766441
0.00890321
0.00955823
0.00971321
0.00943768
0.00897814
0.00884143
0.00907119
0.00929225
0.00936957
0.00933793
0.00920007
0.00890669
0.00841889
0.00774892
0.00695792
0.00612449
0.00531741
0.00458343
0.00394371
0.00340137
0.0029589
0.00261962
0.00237915
0.00222533
0.00214213
0.00211373
0.00212548
0.00216348
0.00221024
0.00223845
0.00221428
0.00213663
0.00196864
0.00115229
0.0019692
0.00592116
0.00825827
0.00917019
0.00915884
0.00867761
0.00803742
0.00749066
0.00714363
0.00696716
0.00685662
0.00674364
0.00662801
0.00649095
0.0062882
0.00598036
0.00556303
0.00507439
0.004575
0.00411679
0.00372578
0.00340418
0.00314137
0.00292381
0.00274027
0.00258304
0.00244885
0.00233976
0.0022621
0.00222296
0.0022249
0.00226
0.00230714
0.00234825
0.00231212
0.00235661
0.00243418
0.00118296
0.00177356
0.0018704
0.00193935
0.00207646
0.00193945
0.00183807
0.00173474
0.00160964
0.00147744
0.00135832
0.00126479
0.0012002
0.00115776
0.00112852
0.00110518
0.00108221
0.00105589
0.00102477
0.000990008
0.000954415
0.000920867
0.000891144
0.000865722
0.000844295
0.000826443
0.000812159
0.000802098
0.000797495
0.000799866
0.000810643
0.000830887
0.00086127
0.000902188
0.000953412
0.0010124
0.00108637
0.00109876
0.00105777
0.00100268
0.000946179
)
;

boundaryField
{
    floor
    {
        type            nutkWallFunction;
        Cmu             0.09;
        kappa           0.41;
        E               9.8;
        value           nonuniform List<scalar> 
29
(
0.00011545
6.44479e-05
7.61035e-05
8.95222e-05
9.72577e-05
9.83558e-05
9.60793e-05
9.01071e-05
8.36227e-05
7.77243e-05
7.2543e-05
6.80059e-05
6.40225e-05
6.04927e-05
5.73493e-05
5.44751e-05
5.17162e-05
4.88472e-05
4.59587e-05
4.09799e-05
4.09798e-05
4.83312e-05
5.32543e-05
5.71811e-05
0.00011545
6.44479e-05
6.32158e-05
8.50628e-05
0.00015507
)
;
    }
    ceiling
    {
        type            nutkWallFunction;
        Cmu             0.09;
        kappa           0.41;
        E               9.8;
        value           nonuniform List<scalar> 
43
(
0.000208479
0.000219124
0.000226668
0.000241704
0.000226823
0.000215721
0.000204328
0.000190431
0.000175615
0.000162139
0.000151467
0.000144047
0.000139147
0.00013576
0.000133049
0.000130374
0.0001273
0.000123654
0.000119567
0.000115364
0.000111386
0.000107847
0.000104809
0.000102241
0.000100095
9.83733e-05
9.71582e-05
9.66006e-05
9.68854e-05
9.81841e-05
0.00010062
0.000104264
0.000109148
0.000115227
0.000122182
0.000130838
0.000132282
0.000127499
0.000121038
0.000114372
0.000346984
0.000404036
0.000229766
)
;
    }
    sWall
    {
        type            nutkWallFunction;
        Cmu             0.09;
        kappa           0.41;
        E               9.8;
        value           uniform 0.000208536;
    }
    nWall
    {
        type            nutkWallFunction;
        Cmu             0.09;
        kappa           0.41;
        E               9.8;
        value           nonuniform List<scalar> 6(9.34337e-05 9.76864e-05 0.000113187 0.000138512 0.000142061 0.000114376);
    }
    sideWalls
    {
        type            empty;
    }
    glass1
    {
        type            nutkWallFunction;
        Cmu             0.09;
        kappa           0.41;
        E               9.8;
        value           nonuniform List<scalar> 9(0.000145409 0.000188906 0.000223577 0.000255727 0.000287751 0.000321224 0.000350487 0.000355879 0.000347425);
    }
    glass2
    {
        type            nutkWallFunction;
        Cmu             0.09;
        kappa           0.41;
        E               9.8;
        value           nonuniform List<scalar> 2(0.000171154 0.000161318);
    }
    sun
    {
        type            nutkWallFunction;
        Cmu             0.09;
        kappa           0.41;
        E               9.8;
        value           nonuniform List<scalar> 
14
(
0.000145264
0.00015955
0.000164322
0.000172712
0.000180919
0.000189431
0.000196834
0.000201574
0.000202676
0.000199591
0.000191686
0.000172916
0.000155287
0.000134784
)
;
    }
    heatsource1
    {
        type            nutkWallFunction;
        Cmu             0.09;
        kappa           0.41;
        E               9.8;
        value           nonuniform List<scalar> 3(6.80835e-05 8.29397e-05 9.3434e-05);
    }
    heatsource2
    {
        type            nutkWallFunction;
        Cmu             0.09;
        kappa           0.41;
        E               9.8;
        value           nonuniform List<scalar> 4(0.000140852 0.000113419 0.000113419 0.000138284);
    }
    Table_master
    {
        type            nutkWallFunction;
        Cmu             0.09;
        kappa           0.41;
        E               9.8;
        value           nonuniform List<scalar> 9(0.000122757 0.0001069 9.39104e-05 8.33816e-05 7.48222e-05 6.78134e-05 6.20346e-05 5.73643e-05 5.38691e-05);
    }
    Table_slave
    {
        type            nutkWallFunction;
        Cmu             0.09;
        kappa           0.41;
        E               9.8;
        value           nonuniform List<scalar> 9(0.000138984 0.000126107 0.000116158 0.000108015 0.00010093 9.42842e-05 8.76586e-05 8.07025e-05 7.28361e-05);
    }
    inlet
    {
        type            calculated;
        value           uniform 0.000100623;
    }
    outlet
    {
        type            calculated;
        value           nonuniform List<scalar> 2(0.00177356 0.0018704);
    }
}


// ************************************************************************* //
