/*--------------------------------*- C++ -*----------------------------------*\
  =========                 |
  \\      /  F ield         | OpenFOAM: The Open Source CFD Toolbox
   \\    /   O peration     | Website:  https://openfoam.org
    \\  /    A nd           | Version:  6
     \\/     M anipulation  |
\*---------------------------------------------------------------------------*/
FoamFile
{
    version     2.0;
    format      ascii;
    class       volScalarField;
    location    "1300";
    object      nut;
}
// * * * * * * * * * * * * * * * * * * * * * * * * * * * * * * * * * * * * * //

dimensions      [0 2 -1 0 0 0 0];

internalField   nonuniform List<scalar> 
459
(
0.00106941
0.00116619
0.00118868
0.00124559
0.00129841
0.00134836
0.00139816
0.00144505
0.00147747
0.00148901
0.00147369
0.00142735
0.00134779
0.00123686
0.00110718
0.000463186
0.000550952
0.000622873
0.00063089
0.000613073
0.000587121
0.000550409
0.00051291
0.000478861
0.000448789
0.000422299
0.00039889
0.000378115
0.000359599
0.00034266
0.000326456
0.000309888
0.000300184
0.00027554
0.00145481
0.0034511
0.00326595
0.0037875
0.0043003
0.00481324
0.00525529
0.00560446
0.00592803
0.00619576
0.00637143
0.00641918
0.00629649
0.00590247
0.00481422
0.00112811
0.000713919
0.00048105
0.00101782
0.00142905
0.00174128
0.00192718
0.00193444
0.0015184
0.00129899
0.00114394
0.00102601
0.000933113
0.000858042
0.000795168
0.00073695
0.000680739
0.000630716
0.000586918
0.00070593
0.000367418
0.00177556
0.00468182
0.00398312
0.00494409
0.00538724
0.0057121
0.00596859
0.00620108
0.00646976
0.00675871
0.00703359
0.00724544
0.00734998
0.00726594
0.00677705
0.00518542
0.00117177
0.000893918
0.00131043
0.0017154
0.00211215
0.00240789
0.00237926
0.00078385
0.000692003
0.000617484
0.000557075
0.000507765
0.000467146
0.000433432
0.00040547
0.000382736
0.000411845
0.000473267
0.000803826
0.000430844
0.00208388
0.00598647
0.00393658
0.00515473
0.00547871
0.00556146
0.00564079
0.00578344
0.00601505
0.0063196
0.00666263
0.00697542
0.00720964
0.00729384
0.00718617
0.00660965
0.00437336
0.00136715
0.00163223
0.00207999
0.00257712
0.00302374
0.00333168
0.00317441
0.00088858
0.00081093
0.000755247
0.000712811
0.000676762
0.000643379
0.000611294
0.000577559
0.000538452
0.000505115
0.000511363
0.000945455
0.000480789
0.0023984
0.0076889
0.00425791
0.00492372
0.00536028
0.00531355
0.00528817
0.00540671
0.00562393
0.00593654
0.00631393
0.00665546
0.00689059
0.00697798
0.0069218
0.00669511
0.00611955
0.00518899
0.00486519
0.00480791
0.00484912
0.00489814
0.00489594
0.0047318
0.00401537
0.00365955
0.00345126
0.0032914
0.00312471
0.00288819
0.00256404
0.00216718
0.0017262
0.00129131
0.000958526
0.00095446
0.000659006
0.000597344
0.000718778
0.00080749
0.00273263
0.00955834
0.00585516
0.00478443
0.00521088
0.00535137
0.00522862
0.00533135
0.00550945
0.00579722
0.00616674
0.00652203
0.00675301
0.00679843
0.00667986
0.0064842
0.00630127
0.00618208
0.0061837
0.00619932
0.00616045
0.00605928
0.00590025
0.00567204
0.00533274
0.00502669
0.00475488
0.00449416
0.00422949
0.00394698
0.00359662
0.00316471
0.00265234
0.00209016
0.00159069
0.00117239
0.000916837
0.000786714
0.00111424
0.000845109
0.00304617
0.010908
0.0083893
0.0060909
0.00570146
0.00571361
0.0055647
0.00548651
0.00557829
0.00585505
0.00624524
0.00661743
0.00683464
0.00682804
0.0066423
0.00643498
0.00640166
0.00658295
0.00678604
0.00683883
0.00672332
0.00649044
0.00618252
0.00582401
0.00543708
0.00507266
0.00473811
0.00442729
0.00414061
0.00388442
0.00366105
0.00339382
0.00301838
0.00255071
0.00209934
0.00167543
0.00138106
0.00127527
0.0012641
0.000959934
0.00311379
0.00988785
0.00858623
0.00762036
0.00701946
0.00633803
0.00578917
0.00557445
0.00570018
0.0060743
0.0065434
0.00693147
0.00708955
0.00697801
0.00670544
0.00651382
0.00662208
0.00690523
0.0070027
0.00685536
0.00653328
0.00610307
0.00561824
0.00513019
0.00468614
0.00430967
0.00399453
0.00373321
0.00352662
0.00337958
0.00329639
0.00326185
0.00314677
0.00287276
0.00263045
0.00251169
0.00259469
0.00287339
0.00357061
0.00145725
0.00303879
0.00362758
0.00409452
0.00423669
0.00425046
0.00436273
0.00466869
0.00519294
0.00588232
0.00659717
0.0071691
0.00745639
0.00736859
0.00699247
0.00663211
0.00657111
0.00662724
0.00660618
0.00639498
0.00600743
0.00549543
0.00493097
0.00438413
0.00391143
0.00353536
0.00324526
0.00301895
0.00283946
0.00269512
0.00257576
0.00247179
0.00237616
0.00230332
0.00225104
0.00223111
0.00223822
0.00222185
0.00213719
0.00199399
0.00135304
0.00182
0.00325027
0.00454279
0.0056252
0.00650644
0.00729395
0.00788496
0.00816308
0.00810005
0.00772449
0.00707671
0.00638958
0.00599098
0.00582999
0.00564927
0.00533297
0.00488683
0.00436679
0.00384382
0.0033715
0.00298465
0.00269543
0.00248863
0.00234219
0.002239
0.00216821
0.00212314
0.00209986
0.00209801
0.00212063
0.00215426
0.0021959
0.00224107
0.00227306
0.00226436
0.00220045
0.0019439
0.00108054
0.0021255
0.00458635
0.00632906
0.00713635
0.00768511
0.00806983
0.00796663
0.0074248
0.00664491
0.00583715
0.00516587
0.00468523
0.0043614
0.00406404
0.00371273
0.00331873
0.0029241
0.00257328
0.00229544
0.00209547
0.00196242
0.00187522
0.00181999
0.00179067
0.00178539
0.00180033
0.00183213
0.00187676
0.00193847
0.00201448
0.00210228
0.00219633
0.00228328
0.00234281
0.0023597
0.0023254
0.00167511
0.00110492
0.00182903
0.00192591
0.00199747
0.0020673
0.00187693
0.00172819
0.00165915
0.00158253
0.001472
0.00133453
0.0011819
0.00103284
0.000902521
0.000799506
0.000724646
0.000671071
0.000631608
0.000602184
0.000581306
0.000568488
0.000563087
0.000564125
0.00057067
0.000582027
0.000597975
0.000618209
0.000642352
0.000670674
0.000703718
0.000742486
0.000786486
0.000835768
0.000890749
0.000951734
0.00101817
0.00108948
0.0011022
0.00098565
0.000934872
0.00110584
)
;

boundaryField
{
    floor
    {
        type            nutkWallFunction;
        Cmu             0.09;
        kappa           0.41;
        E               9.8;
        value           nonuniform List<scalar> 
29
(
0.00013326
5.49831e-05
6.6184e-05
7.51982e-05
7.61951e-05
7.39778e-05
7.07342e-05
6.61156e-05
6.13586e-05
5.70019e-05
5.31218e-05
4.96768e-05
4.66098e-05
4.38685e-05
4.1409e-05
3.91446e-05
3.6965e-05
3.47216e-05
3.34004e-05
3.00188e-05
3.00187e-05
4.24488e-05
5.079e-05
5.72484e-05
0.00013326
5.49831e-05
5.72826e-05
0.000108162
0.000163126
)
;
    }
    ceiling
    {
        type            nutkWallFunction;
        Cmu             0.09;
        kappa           0.41;
        E               9.8;
        value           nonuniform List<scalar> 
43
(
0.000214567
0.00022518
0.000232985
0.000240663
0.000219937
0.000203568
0.000195919
0.000187384
0.000174986
0.000159418
0.00014192
0.000124582
0.000109188
9.68363e-05
8.7744e-05
8.11684e-05
7.62847e-05
7.26194e-05
7.00054e-05
6.83948e-05
6.77147e-05
6.78453e-05
6.86689e-05
7.00951e-05
7.20924e-05
7.46172e-05
7.76167e-05
8.11183e-05
8.51813e-05
8.99194e-05
9.52616e-05
0.000101204
0.000107785
0.000115029
0.000122861
0.000131202
0.000132684
0.000119035
0.000113032
0.000133109
0.000344166
0.000405023
0.000246765
)
;
    }
    sWall
    {
        type            nutkWallFunction;
        Cmu             0.09;
        kappa           0.41;
        E               9.8;
        value           uniform 0.000214627;
    }
    nWall
    {
        type            nutkWallFunction;
        Cmu             0.09;
        kappa           0.41;
        E               9.8;
        value           nonuniform List<scalar> 6(9.78e-05 0.000102327 0.000116003 0.000130169 0.000133009 0.000133118);
    }
    sideWalls
    {
        type            empty;
    }
    glass1
    {
        type            nutkWallFunction;
        Cmu             0.09;
        kappa           0.41;
        E               9.8;
        value           nonuniform List<scalar> 9(0.000128962 0.000173269 0.000209127 0.000242929 0.000276861 0.000312406 0.000345341 0.000352406 0.000344595);
    }
    glass2
    {
        type            nutkWallFunction;
        Cmu             0.09;
        kappa           0.41;
        E               9.8;
        value           nonuniform List<scalar> 2(0.0001734 0.00016159);
    }
    sun
    {
        type            nutkWallFunction;
        Cmu             0.09;
        kappa           0.41;
        E               9.8;
        value           nonuniform List<scalar> 
14
(
0.000128863
0.000140104
0.000142701
0.00014925
0.000155298
0.000160992
0.000166646
0.000171948
0.000175603
0.000176902
0.000175176
0.000169948
0.000160926
0.000148246
)
;
    }
    heatsource1
    {
        type            nutkWallFunction;
        Cmu             0.09;
        kappa           0.41;
        E               9.8;
        value           nonuniform List<scalar> 3(7.20151e-05 8.7026e-05 9.77991e-05);
    }
    heatsource2
    {
        type            nutkWallFunction;
        Cmu             0.09;
        kappa           0.41;
        E               9.8;
        value           nonuniform List<scalar> 4(0.000135688 8.6433e-05 8.6433e-05 0.000140744);
    }
    Table_master
    {
        type            nutkWallFunction;
        Cmu             0.09;
        kappa           0.41;
        E               9.8;
        value           nonuniform List<scalar> 9(9.49432e-05 8.37454e-05 7.45299e-05 6.69605e-05 6.07074e-05 5.55002e-05 5.1135e-05 4.74823e-05 4.4489e-05);
    }
    Table_slave
    {
        type            nutkWallFunction;
        Cmu             0.09;
        kappa           0.41;
        E               9.8;
        value           nonuniform List<scalar> 9(0.000107525 9.82143e-05 9.14734e-05 8.62968e-05 8.18703e-05 7.7746e-05 7.37578e-05 6.9537e-05 6.46061e-05);
    }
    inlet
    {
        type            calculated;
        value           uniform 0.000100623;
    }
    outlet
    {
        type            calculated;
        value           nonuniform List<scalar> 2(0.00182903 0.00192591);
    }
}


// ************************************************************************* //
