/*--------------------------------*- C++ -*----------------------------------*\
  =========                 |
  \\      /  F ield         | OpenFOAM: The Open Source CFD Toolbox
   \\    /   O peration     | Website:  https://openfoam.org
    \\  /    A nd           | Version:  6
     \\/     M anipulation  |
\*---------------------------------------------------------------------------*/
FoamFile
{
    version     2.0;
    format      ascii;
    class       volScalarField;
    location    "2000";
    object      epsilon;
}
// * * * * * * * * * * * * * * * * * * * * * * * * * * * * * * * * * * * * * //

dimensions      [0 2 -3 0 0 0 0];

internalField   nonuniform List<scalar> 
459
(
0.000428101
0.000554882
0.000586971
0.000675105
0.000764294
0.00085534
0.000952742
0.00105222
0.00112593
0.00115493
0.00112301
0.00102439
0.000867333
0.000676333
0.000490807
3.46997e-05
5.8684e-05
8.45783e-05
8.7122e-05
7.96456e-05
6.97463e-05
5.74302e-05
4.64887e-05
3.78475e-05
3.11673e-05
2.59758e-05
2.18965e-05
1.8654e-05
1.60478e-05
1.38863e-05
1.20087e-05
1.02708e-05
9.34045e-06
7.2175e-06
0.00108149
0.00158036
0.000520958
0.000504209
0.000526883
0.000566606
0.000627755
0.000708859
0.000786275
0.000834288
0.000832577
0.000775563
0.000671848
0.000543915
0.000438455
0.000517829
0.000124415
3.92645e-05
9.23199e-05
0.000103508
9.71123e-05
8.47155e-05
7.21947e-05
6.59454e-05
5.31216e-05
4.17477e-05
3.28202e-05
2.60046e-05
2.08217e-05
1.68673e-05
1.38653e-05
1.16587e-05
1.02794e-05
9.67641e-06
2.57036e-05
1.72859e-05
0.00196979
0.00388463
0.000639864
0.000477519
0.000498462
0.000559297
0.000652055
0.000769912
0.00087825
0.000942612
0.000945494
0.000888237
0.000782517
0.000654163
0.000535051
0.000476239
0.000566892
0.000258485
0.000205073
0.000164069
0.00013198
0.000106777
9.1297e-05
0.000166651
0.000114875
8.17759e-05
6.0159e-05
4.56354e-05
3.55933e-05
2.84707e-05
2.33359e-05
1.96404e-05
1.49454e-05
1.25412e-05
4.95868e-05
2.78934e-05
0.00318884
0.00808153
0.00100884
0.000479552
0.000483399
0.000568799
0.000708827
0.000884868
0.00102242
0.00108854
0.00107965
0.00100696
0.000881178
0.000734109
0.000604466
0.000520019
0.00050076
0.000905989
0.000524001
0.000322381
0.000219843
0.000160945
0.000124046
0.00010648
0.000242602
0.000184626
0.000149302
0.000125643
0.000107632
9.25582e-05
7.94757e-05
6.71288e-05
5.45109e-05
3.24871e-05
2.12446e-05
8.42341e-05
3.88012e-05
0.0048666
0.0144538
0.00199414
0.000560168
0.000485899
0.000599497
0.000852095
0.0011156
0.00126165
0.00130395
0.00126229
0.00115476
0.000995829
0.000811738
0.000634218
0.000489231
0.000390456
0.000348906
0.00028657
0.000230157
0.000184729
0.000148945
0.000121028
0.000101412
9.71371e-05
9.00824e-05
8.33623e-05
7.6858e-05
7.00655e-05
6.27992e-05
5.55355e-05
4.86368e-05
4.23376e-05
3.3986e-05
2.64202e-05
5.9246e-05
4.58137e-05
7.44048e-05
0.000129939
0.000184178
0.00720288
0.0215255
0.00450138
0.00104578
0.000683264
0.000799675
0.00130739
0.0015723
0.00164898
0.0016215
0.00152465
0.00136627
0.00115378
0.000912156
0.000678004
0.000485987
0.000354569
0.000280983
0.000236457
0.000200784
0.000168108
0.000139426
0.000115974
9.8999e-05
8.99758e-05
8.57899e-05
8.336e-05
8.07761e-05
7.69268e-05
7.09114e-05
6.23233e-05
5.31826e-05
4.47828e-05
3.73845e-05
3.30105e-05
4.4455e-05
4.7516e-05
5.74129e-05
0.000240626
0.000210853
0.00998374
0.0257803
0.00939471
0.00345848
0.00222291
0.00220735
0.00241177
0.00238495
0.00225334
0.00208459
0.00188575
0.00164163
0.00134812
0.00103033
0.00073054
0.000492681
0.000337645
0.000254181
0.000209653
0.000177652
0.000149316
0.000125284
0.000107067
9.55641e-05
9.09362e-05
9.11477e-05
9.33864e-05
9.60301e-05
9.80507e-05
9.79906e-05
9.29451e-05
8.28355e-05
7.24891e-05
6.38712e-05
6.11733e-05
6.8831e-05
8.60182e-05
0.000130267
0.000318997
0.000307912
0.0106659
0.0287193
0.0156182
0.0099591
0.00708282
0.00547864
0.00434349
0.00358051
0.00306246
0.00267748
0.00233196
0.0019628
0.00155128
0.00113066
0.000749248
0.000464789
0.00029614
0.000213299
0.00017294
0.000145652
0.000123672
0.000107283
9.69842e-05
9.26857e-05
9.37466e-05
9.88466e-05
0.000106766
0.000117169
0.000130255
0.000146122
0.000164087
0.000178672
0.000189047
0.000210259
0.000253617
0.000372609
0.000646699
0.00118991
0.00404964
0.00108579
0.00991278
0.0168735
0.0135373
0.010226
0.00780531
0.0061562
0.00504266
0.00428284
0.00373555
0.00327126
0.00279069
0.00224753
0.00165418
0.00109735
0.000620708
0.000332859
0.000212384
0.000158708
0.000130297
0.000111261
9.76441e-05
8.91606e-05
8.56063e-05
8.65537e-05
9.14643e-05
9.98852e-05
0.000111824
0.000128001
0.000149824
0.000179371
0.00021946
0.0002738
0.000349372
0.000459774
0.000623906
0.000850575
0.00112066
0.00137755
0.00157829
0.000871653
0.00493452
0.00663649
0.00669329
0.00620367
0.00553201
0.00489062
0.00424907
0.0035424
0.00275963
0.00192202
0.00105466
0.000561198
0.00030118
0.0001807
0.000127631
0.000101252
8.59753e-05
7.62503e-05
7.03685e-05
6.76797e-05
6.78188e-05
7.04903e-05
7.55169e-05
8.29835e-05
9.33183e-05
0.000107351
0.000126391
0.000152402
0.000188396
0.000239316
0.000310655
0.000410271
0.000545584
0.000713904
0.000892066
0.00103804
0.000980151
0.000442859
0.00340723
0.00672664
0.00665528
0.00536097
0.00453244
0.00385488
0.00300034
0.00209698
0.00133375
0.000781923
0.000432803
0.000245128
0.00015066
0.000106067
8.47221e-05
7.35381e-05
6.72574e-05
6.38745e-05
6.26124e-05
6.30921e-05
6.50934e-05
6.8527e-05
7.35158e-05
8.03763e-05
8.95704e-05
0.000101806
0.000118194
0.000140455
0.000171105
0.000213407
0.000271875
0.000351449
0.000454133
0.000572749
0.000688066
0.00083753
0.00046184
0.000474141
0.00216761
0.00253157
0.00282538
0.00313049
0.00233891
0.00181858
0.00160202
0.00139692
0.00113042
0.000850433
0.000593349
0.000395973
0.000263114
0.000182005
0.000135035
0.000107096
8.9296e-05
7.74479e-05
6.97347e-05
6.5276e-05
6.3463e-05
6.38163e-05
6.60318e-05
7.00065e-05
7.58626e-05
8.36893e-05
9.3731e-05
0.000106518
0.000122864
0.000144092
0.000171053
0.000205054
0.00024804
0.000302373
0.000370097
0.000452925
0.00047168
0.000335878
0.000286785
0.000475897
)
;

boundaryField
{
    floor
    {
        Cmu             0.09;
        kappa           0.41;
        E               9.8;
        type            epsilonWallFunction;
        value           nonuniform List<scalar> 
29
(
0.000490807
3.46997e-05
5.8684e-05
8.45783e-05
8.7122e-05
7.96456e-05
6.97463e-05
5.74302e-05
4.64887e-05
3.78475e-05
3.11673e-05
2.59758e-05
2.18965e-05
1.8654e-05
1.60478e-05
1.38863e-05
1.20087e-05
1.02708e-05
9.34045e-06
7.2175e-06
7.2175e-06
1.72859e-05
2.78934e-05
3.88012e-05
0.000490807
3.46997e-05
3.92645e-05
0.000258485
0.000905989
)
;
    }
    ceiling
    {
        Cmu             0.09;
        kappa           0.41;
        E               9.8;
        type            epsilonWallFunction;
        value           nonuniform List<scalar> 
43
(
0.00216761
0.00253157
0.00282538
0.00313049
0.00233891
0.00181858
0.00160202
0.00139692
0.00113042
0.000850433
0.000593349
0.000395973
0.000263114
0.000182005
0.000135035
0.000107096
8.9296e-05
7.74479e-05
6.97347e-05
6.5276e-05
6.3463e-05
6.38163e-05
6.60318e-05
7.00065e-05
7.58626e-05
8.36893e-05
9.3731e-05
0.000106518
0.000122864
0.000144092
0.000171053
0.000205054
0.00024804
0.000302373
0.000370097
0.000452925
0.00047168
0.000335878
0.000286785
0.000475897
0.00991278
0.0168735
0.00340723
)
;
    }
    sWall
    {
        Cmu             0.09;
        kappa           0.41;
        E               9.8;
        type            epsilonWallFunction;
        value           uniform 0.00216761;
    }
    nWall
    {
        Cmu             0.09;
        kappa           0.41;
        E               9.8;
        type            epsilonWallFunction;
        value           nonuniform List<scalar> 6(0.000184178 0.000210853 0.000307912 0.000442859 0.000474141 0.000475897);
    }
    sideWalls
    {
        type            empty;
    }
    glass1
    {
        Cmu             0.09;
        kappa           0.41;
        E               9.8;
        type            epsilonWallFunction;
        value           nonuniform List<scalar> 9(0.000428101 0.00108149 0.00196979 0.00318884 0.0048666 0.00720288 0.00998374 0.0106659 0.00991278);
    }
    glass2
    {
        Cmu             0.09;
        kappa           0.41;
        E               9.8;
        type            epsilonWallFunction;
        value           nonuniform List<scalar> 2(0.00108579 0.000871653);
    }
    sun
    {
        Cmu             0.09;
        kappa           0.41;
        E               9.8;
        type            epsilonWallFunction;
        value           nonuniform List<scalar> 
14
(
0.000428101
0.000554882
0.000586971
0.000675105
0.000764294
0.00085534
0.000952742
0.00105222
0.00112593
0.00115493
0.00112301
0.00102439
0.000867333
0.000676333
)
;
    }
    heatsource1
    {
        Cmu             0.09;
        kappa           0.41;
        E               9.8;
        type            epsilonWallFunction;
        value           nonuniform List<scalar> 3(7.44048e-05 0.000129939 0.000184178);
    }
    heatsource2
    {
        Cmu             0.09;
        kappa           0.41;
        E               9.8;
        type            epsilonWallFunction;
        value           nonuniform List<scalar> 4(0.000517829 0.000124415 0.000124415 0.000566892);
    }
    Table_master
    {
        Cmu             0.09;
        kappa           0.41;
        E               9.8;
        type            epsilonWallFunction;
        value           nonuniform List<scalar> 9(0.000166651 0.000114875 8.17759e-05 6.0159e-05 4.56354e-05 3.55933e-05 2.84707e-05 2.33359e-05 1.96404e-05);
    }
    Table_slave
    {
        Cmu             0.09;
        kappa           0.41;
        E               9.8;
        type            epsilonWallFunction;
        value           nonuniform List<scalar> 9(0.000242602 0.000184626 0.000149302 0.000125643 0.000107632 9.25582e-05 7.94757e-05 6.71288e-05 5.45109e-05);
    }
    inlet
    {
        type            turbulentMixingLengthDissipationRateInlet;
        mixingLength    0.01;
        phi             phi;
        k               k;
        value           uniform 0.000101881;
    }
    outlet
    {
        type            zeroGradient;
    }
}


// ************************************************************************* //
