/*--------------------------------*- C++ -*----------------------------------*\
  =========                 |
  \\      /  F ield         | OpenFOAM: The Open Source CFD Toolbox
   \\    /   O peration     | Website:  https://openfoam.org
    \\  /    A nd           | Version:  6
     \\/     M anipulation  |
\*---------------------------------------------------------------------------*/
FoamFile
{
    version     2.0;
    format      ascii;
    class       volScalarField;
    location    "2000";
    object      nut;
}
// * * * * * * * * * * * * * * * * * * * * * * * * * * * * * * * * * * * * * //

dimensions      [0 2 -1 0 0 0 0];

internalField   nonuniform List<scalar> 
459
(
0.00106552
0.00116175
0.00118372
0.00124023
0.0012926
0.00134202
0.00139114
0.00143796
0.00147078
0.0014833
0.00146951
0.00142517
0.00134826
0.00124098
0.00111519
0.000461127
0.000549395
0.00062058
0.000626741
0.000608274
0.00058195
0.000545455
0.000508348
0.000474669
0.000444916
0.000418698
0.000395521
0.000374947
0.000356602
0.000339814
0.000323751
0.000307312
0.000297738
0.000273217
0.00145117
0.00344321
0.00325818
0.00377881
0.00428915
0.00480064
0.00524462
0.00559072
0.00591232
0.00617976
0.00635641
0.00640467
0.0062791
0.00587198
0.00473033
0.00113529
0.000705779
0.00048052
0.00101153
0.00141674
0.00172327
0.0019048
0.00191313
0.00150897
0.00129396
0.00114151
0.0010252
0.000933298
0.000858829
0.000796181
0.000737999
0.000681749
0.000631663
0.000587561
0.000705051
0.000365546
0.00177222
0.00467199
0.00397526
0.004949
0.0053958
0.0057206
0.00597454
0.00619911
0.00646012
0.00674314
0.00701486
0.00722496
0.00732761
0.00724558
0.00675688
0.0051818
0.00117007
0.000900583
0.00131132
0.00170773
0.00209385
0.00238147
0.00235411
0.000778003
0.000687258
0.000613649
0.00055396
0.000505218
0.000465052
0.000431696
0.000404005
0.000381442
0.00041056
0.000472043
0.000801447
0.000428758
0.00208092
0.00597731
0.00392625
0.00516879
0.00550428
0.00558431
0.00565246
0.00578065
0.00600037
0.00629547
0.00663425
0.00694557
0.00717996
0.00727046
0.0071671
0.00660436
0.0044236
0.001368
0.00163338
0.00207721
0.00256539
0.00300208
0.0033041
0.0031503
0.000881746
0.000805025
0.000750009
0.000708095
0.000672501
0.000639514
0.000607841
0.000574577
0.000536051
0.000503536
0.000509691
0.000940088
0.000478623
0.00239582
0.00768002
0.00424607
0.00493107
0.00539128
0.00534064
0.00529582
0.00539437
0.00560051
0.00590212
0.00627614
0.00661834
0.00685826
0.00695156
0.00689875
0.00667419
0.0061039
0.00516514
0.00483879
0.00477925
0.00481911
0.00486908
0.00487058
0.00471296
0.00400379
0.00365251
0.00344563
0.00328518
0.0031174
0.00288133
0.00255871
0.00216434
0.00172605
0.00129233
0.000959162
0.000951239
0.000657644
0.000594628
0.000716075
0.000804374
0.00273032
0.00954777
0.00584011
0.00477198
0.00521637
0.00535825
0.00521729
0.00530901
0.00547947
0.00575851
0.0061223
0.00647865
0.00671684
0.00677085
0.00665555
0.00645463
0.00626067
0.00613145
0.00613135
0.00615256
0.00612296
0.00603145
0.00587975
0.00565542
0.00531665
0.00500747
0.00473039
0.00446444
0.0041965
0.0039145
0.00356852
0.00314306
0.00263825
0.00208254
0.00158665
0.00117002
0.00091427
0.000782034
0.00110511
0.00084147
0.00304422
0.0108965
0.00836991
0.00606049
0.00566108
0.00568859
0.005545
0.00546428
0.00554614
0.00581134
0.00619466
0.00656857
0.00679524
0.00679919
0.00661551
0.00639619
0.00634094
0.00651068
0.00672307
0.0067933
0.00669248
0.00646658
0.00615662
0.00578967
0.00539327
0.00502103
0.00468128
0.00436835
0.00408276
0.00383045
0.00361321
0.00335202
0.00298475
0.00252853
0.00208734
0.00167135
0.00138115
0.00127537
0.00126031
0.000954672
0.00311203
0.00988422
0.00857793
0.00760452
0.00701207
0.00634636
0.00579035
0.00555773
0.00566317
0.00602153
0.00648451
0.00687765
0.00704908
0.00694909
0.00667265
0.00645959
0.0065433
0.00683515
0.00696072
0.00682815
0.00650706
0.00606681
0.00556673
0.00506573
0.00461504
0.00423747
0.00392503
0.00366928
0.00346997
0.00333057
0.00325389
0.00322487
0.00310994
0.00284699
0.00261558
0.00250795
0.00259749
0.00286915
0.00355357
0.00145309
0.00303699
0.00362616
0.00409553
0.00424284
0.00425487
0.00435575
0.00464327
0.00514479
0.00581539
0.00652277
0.00710045
0.00740403
0.00733821
0.00697074
0.00658032
0.00650957
0.00657684
0.00657948
0.00638179
0.00598735
0.00545739
0.0048724
0.00431155
0.0038344
0.00346094
0.00317745
0.00296013
0.00279127
0.00265824
0.00254986
0.00245561
0.00236771
0.00230007
0.00225005
0.00223123
0.00223919
0.0022236
0.00213897
0.00199487
0.0013505
0.00182648
0.00325776
0.00451687
0.00556623
0.00642133
0.00719124
0.00779073
0.00809307
0.00805701
0.00770116
0.00708005
0.0063839
0.00596367
0.00581221
0.00564789
0.00533725
0.00488134
0.00434248
0.00379792
0.00330999
0.00291783
0.0026302
0.00242831
0.00228869
0.00219355
0.00213137
0.00209471
0.00207902
0.00208354
0.00211129
0.00214893
0.00219336
0.00224004
0.00227219
0.00226202
0.00219387
0.00193843
0.00107762
0.00212738
0.00456435
0.00626043
0.00705818
0.00759893
0.00797687
0.00794475
0.007446
0.00668536
0.00587332
0.00519402
0.00470613
0.00438295
0.00409329
0.0037412
0.00333752
0.00292986
0.00256745
0.00228114
0.00207558
0.00193745
0.00184636
0.00178943
0.00176142
0.00175862
0.00177674
0.00181205
0.00186028
0.00192525
0.00200444
0.00209525
0.00219212
0.00228143
0.00234196
0.00235897
0.00233216
0.00167743
0.00110242
0.00182967
0.00192682
0.00199865
0.00206815
0.00187665
0.00172566
0.00165425
0.00158041
0.00147274
0.00133945
0.001188
0.00103817
0.000905927
0.000801198
0.000725316
0.000671381
0.000631911
0.000602627
0.000581918
0.000569241
0.000563922
0.000564966
0.00057143
0.000582672
0.000598487
0.000618399
0.000642204
0.000670172
0.000702835
0.000741183
0.000784794
0.000833684
0.000888285
0.000948912
0.00101504
0.00108573
0.00110051
0.000982741
0.000932318
0.00110378
)
;

boundaryField
{
    floor
    {
        type            nutkWallFunction;
        Cmu             0.09;
        kappa           0.41;
        E               9.8;
        value           nonuniform List<scalar> 
29
(
0.000134191
5.47168e-05
6.59868e-05
7.49124e-05
7.56787e-05
7.33786e-05
7.00851e-05
6.54887e-05
6.07762e-05
5.64622e-05
5.26191e-05
4.92058e-05
4.61658e-05
4.34481e-05
4.10087e-05
3.87621e-05
3.6599e-05
3.43708e-05
3.30658e-05
2.96974e-05
2.96973e-05
4.21995e-05
5.05179e-05
5.69698e-05
0.000134191
5.47168e-05
5.72141e-05
0.000108956
0.000163223
)
;
    }
    ceiling
    {
        type            nutkWallFunction;
        Cmu             0.09;
        kappa           0.41;
        E               9.8;
        value           nonuniform List<scalar> 
43
(
0.000214638
0.00022528
0.000233114
0.000240756
0.000219906
0.000203288
0.000195373
0.000187146
0.000175069
0.000159977
0.000142623
0.000125205
0.000109592
9.70398e-05
8.78248e-05
8.12055e-05
7.63212e-05
7.26737e-05
7.00813e-05
6.84889e-05
6.78194e-05
6.79509e-05
6.87641e-05
7.01759e-05
7.21562e-05
7.46407e-05
7.75982e-05
8.10563e-05
8.5073e-05
8.97606e-05
9.50568e-05
0.000100953
0.000107491
0.000114695
0.000122494
0.000130765
0.000132487
0.000118692
0.000112729
0.00013287
0.00034398
0.000404879
0.00024697
)
;
    }
    sWall
    {
        type            nutkWallFunction;
        Cmu             0.09;
        kappa           0.41;
        E               9.8;
        value           uniform 0.000214697;
    }
    nWall
    {
        type            nutkWallFunction;
        Cmu             0.09;
        kappa           0.41;
        E               9.8;
        value           nonuniform List<scalar> 6(9.74239e-05 0.00010189 0.000115381 0.000129829 0.000132719 0.000132878);
    }
    sideWalls
    {
        type            empty;
    }
    glass1
    {
        type            nutkWallFunction;
        Cmu             0.09;
        kappa           0.41;
        E               9.8;
        value           nonuniform List<scalar> 9(0.000128506 0.000172857 0.000208758 0.000242608 0.000276585 0.000312163 0.000345138 0.000352223 0.000344408);
    }
    glass2
    {
        type            nutkWallFunction;
        Cmu             0.09;
        kappa           0.41;
        E               9.8;
        value           nonuniform List<scalar> 2(0.00017293 0.000161301);
    }
    sun
    {
        type            nutkWallFunction;
        Cmu             0.09;
        kappa           0.41;
        E               9.8;
        value           nonuniform List<scalar> 
14
(
0.000128408
0.00013959
0.00014213
0.000148635
0.000154635
0.00016027
0.00016585
0.000171148
0.00017485
0.00017626
0.000174706
0.000169702
0.000160979
0.00014872
)
;
    }
    heatsource1
    {
        type            nutkWallFunction;
        Cmu             0.09;
        kappa           0.41;
        E               9.8;
        value           nonuniform List<scalar> 3(7.16753e-05 8.66953e-05 9.74231e-05);
    }
    heatsource2
    {
        type            nutkWallFunction;
        Cmu             0.09;
        kappa           0.41;
        E               9.8;
        value           nonuniform List<scalar> 4(0.000136521 8.54355e-05 8.54355e-05 0.000140548);
    }
    Table_master
    {
        type            nutkWallFunction;
        Cmu             0.09;
        kappa           0.41;
        E               9.8;
        value           nonuniform List<scalar> 9(9.42344e-05 8.31618e-05 7.40515e-05 6.6567e-05 6.03819e-05 5.52296e-05 5.09086e-05 4.72895e-05 4.43174e-05);
    }
    Table_slave
    {
        type            nutkWallFunction;
        Cmu             0.09;
        kappa           0.41;
        E               9.8;
        value           nonuniform List<scalar> 9(0.000106709 9.75015e-05 9.08358e-05 8.57186e-05 8.13447e-05 7.72664e-05 7.33266e-05 6.9162e-05 6.43017e-05);
    }
    inlet
    {
        type            calculated;
        value           uniform 0.000100623;
    }
    outlet
    {
        type            calculated;
        value           nonuniform List<scalar> 2(0.00182967 0.00192682);
    }
}


// ************************************************************************* //
