/*--------------------------------*- C++ -*----------------------------------*\
  =========                 |
  \\      /  F ield         | OpenFOAM: The Open Source CFD Toolbox
   \\    /   O peration     | Website:  https://openfoam.org
    \\  /    A nd           | Version:  6
     \\/     M anipulation  |
\*---------------------------------------------------------------------------*/
FoamFile
{
    version     2.0;
    format      ascii;
    class       surfaceScalarField;
    location    "2000";
    object      phi;
}
// * * * * * * * * * * * * * * * * * * * * * * * * * * * * * * * * * * * * * //

dimensions      [1 0 -1 0 0 0 0];

internalField   nonuniform List<scalar> 
852
(
-0.0029591
0.00301643
-0.00400015
0.00104105
-0.00480041
0.000800261
-0.00542321
0.000622801
-0.00583509
0.000411875
-0.00600795
0.000172859
-0.00591364
-9.43079e-05
-0.00553039
-0.000383246
-0.00487456
-0.000655836
-0.00401171
-0.000862842
-0.00304226
-0.000969453
-0.00207811
-0.000964152
-0.0012216
-0.000856513
-0.000534806
-0.00068679
-0.00053314
-0.000784039
0.00078703
-0.00054358
-0.000240459
3.88979e-05
-0.000582478
0.00053377
-0.000494872
0.000877995
-0.000344225
0.00110298
-0.000224985
0.00122922
-0.000126237
0.00129093
-6.17164e-05
0.00132547
-3.45346e-05
0.00134699
-2.15198e-05
0.00135955
-1.2565e-05
0.00136482
-5.2697e-06
0.00136173
3.08833e-06
0.00134318
1.85525e-05
0.00128908
5.41e-05
0.00116556
0.000123526
0.000961311
0.000204245
0.000710513
0.000250798
0.000714531
-0.00211989
0.00529079
-0.00314076
0.00206191
-0.00396967
0.00162917
-0.00458879
0.00124192
-0.00499919
0.000822273
-0.00518166
0.000355337
-0.0051048
-0.000171171
-0.00475113
-0.000736917
-0.0041496
-0.00125737
-0.00337638
-0.00163606
-0.00252997
-0.00181586
-0.00170507
-0.00178905
-0.000982149
-0.00157944
-0.000434638
-0.0012343
-0.000166949
-0.000800829
0.000119041
-0.000286042
0.00011899
0.000236134
0.000559613
0.000630496
-0.000634821
0.000893603
-0.000845584
0.00111298
-0.000714253
0.00128756
-0.000518801
0.00140048
-0.000337904
0.00142093
-0.000146689
0.00142605
-6.68304e-05
0.00143219
-4.06766e-05
0.00143731
-2.66466e-05
0.00144069
-1.59454e-05
0.00144254
-7.11639e-06
0.00144231
3.31736e-06
0.00143709
2.3771e-05
0.00140035
9.08458e-05
0.00124158
0.000282295
0.000963741
0.000482083
0.000615337
0.000599202
0.00134008
-0.00148985
0.00701697
-0.00237285
0.00294491
-0.00311341
0.00236974
-0.00364898
0.00177749
-0.00401353
0.00118682
-0.00418265
0.000524462
-0.00410206
-0.000251762
-0.00374649
-0.00109249
-0.00317075
-0.0018331
-0.00246866
-0.00233815
-0.00173548
-0.00254904
-0.00104354
-0.00248099
-0.00044476
-0.00217822
2.67456e-05
-0.00170581
0.00033658
-0.00111066
0.000474949
-0.000424411
0.000593939
0.00148318
-0.000914002
0.00170039
-0.000852028
0.00165231
-0.000797507
0.00163515
-0.000697091
0.00165473
-0.000538381
0.00169251
-0.000375684
0.00154597
0.00147929
0.00143877
0.00141228
0.00139648
0.00138952
0.00139299
0.00141692
0.00150792
0.00124772
0.000542492
0.000927078
0.000802723
0.000524096
0.00100219
0.0018796
-0.00104308
0.0083661
-0.00174503
0.00364685
-0.00224289
0.00286759
-0.00260171
0.00213631
-0.00285278
0.00143789
-0.00295898
0.000630657
-0.00282357
-0.000387172
-0.002431
-0.00148506
-0.00188323
-0.00238088
-0.00128261
-0.00293878
-0.000704779
-0.00312687
-0.000188986
-0.00299678
0.000249021
-0.00261622
0.000610074
-0.00206686
0.000930939
-0.00143153
0.00129225
-0.000785724
0.00213429
-0.000248098
0.0024779
-0.000335224
0.00213516
-0.000571266
0.0020009
-0.00071776
0.00187026
-0.000666869
0.00175049
-0.000577324
0.00167155
-0.000459438
0.00160637
-0.000310508
0.00173519
-0.000128971
0.00181083
-7.57973e-05
0.00187088
-6.02001e-05
0.00191824
-4.75096e-05
0.00193992
-2.18344e-05
0.00191511
2.46524e-05
0.00181858
9.63795e-05
0.00161675
0.000201678
0.00125596
0.000360639
0.0011013
0.000697145
0.000798055
0.00110597
0.000337106
0.00146313
0.0022368
-0.000728691
0.00946002
-0.00126189
0.00418005
-0.00138416
0.00298987
-0.00147741
0.00222956
-0.00153919
0.00149967
-0.00149855
0.000590022
-0.0012222
-0.000663526
-0.000780303
-0.00192695
-0.000304367
-0.00285681
0.000126958
-0.0033701
0.000479699
-0.00347961
0.000749342
-0.00326643
0.00095797
-0.00282485
0.00113493
-0.00224382
0.00131404
-0.00161064
0.00154281
-0.00101449
0.00186452
-0.000569806
0.00196727
-0.000437979
0.00188677
-0.000490761
0.00171116
-0.000542153
0.00155092
-0.000506634
0.0014112
-0.000437598
0.00130572
-0.000353961
0.00125046
-0.000255247
0.00128233
-0.000160843
0.00132559
-0.000119051
0.00137453
-0.000109148
0.00142703
-0.000100004
0.00147384
-6.86413e-05
0.00149569
2.79658e-06
0.00147085
0.000121221
0.00138586
0.00028667
0.00124067
0.000505823
0.00110451
0.00083331
0.000949654
0.00126083
0.000599089
0.0018137
0.000500172
0.00233572
-0.000983092
0.00148306
-0.00144741
0.000464119
-0.00139898
-0.00063082
0.010506
-0.00099668
0.00454591
-0.000602661
0.00259585
-0.000308913
0.00193581
-9.37348e-05
0.00128449
0.000232688
0.000263599
0.000715375
-0.00114621
0.00115338
-0.00236496
0.00146546
-0.00316889
0.00163818
-0.00354282
0.00169774
-0.00353917
0.00167619
-0.00324487
0.0016064
-0.00275506
0.00152591
-0.00216333
0.00146784
-0.00155257
0.00145694
-0.00100359
0.00148635
-0.000599213
0.00145359
-0.000405222
0.00132894
-0.00036611
0.00114996
-0.00036317
0.000983729
-0.000340406
0.000848848
-0.000302717
0.000753586
-0.000258699
0.000708863
-0.000210523
0.000718886
-0.000170867
0.000759801
-0.000159966
0.000818457
-0.000167805
0.000889834
-0.000171381
0.000969093
-0.000147901
0.001047
-7.51066e-05
0.00110529
6.29274e-05
0.00113458
0.00025738
0.00114382
0.00049658
0.00117672
0.000800416
0.00127974
0.0011578
0.0014672
0.00162624
0.00191184
0.00189108
0.00216772
0.00122718
0.00177963
0.000852207
0.000438827
-0.000716098
0.0116818
-0.000601588
0.0044314
0.000474745
0.00151951
0.00115411
0.00125644
0.00173196
0.000706651
0.0023792
-0.000383647
0.00293211
-0.00169912
0.00323654
-0.00266939
0.00328674
-0.00321909
0.00312871
-0.00338479
0.00282682
-0.00323728
0.00244518
-0.00286324
0.00203894
-0.00234882
0.00165648
-0.00178086
0.00133047
-0.00122656
0.00108083
-0.000753957
0.000904251
-0.000422634
0.000753835
-0.000254806
0.000594074
-0.000206349
0.000432366
-0.000201461
0.00029141
-0.00019945
0.000182521
-0.000193829
0.000110414
-0.000186592
7.98188e-05
-0.000179928
8.97016e-05
-0.000180749
0.000126975
-0.000197239
0.000181313
-0.000222143
0.000250862
-0.00024093
0.000339884
-0.000236922
0.000454924
-0.000190147
0.000590213
-7.23609e-05
0.000730581
0.000117011
0.000881857
0.000345304
0.00108377
0.000598506
0.00138406
0.000857508
0.00184822
0.00116209
0.00252207
0.00121723
0.00304342
0.000705831
0.00305986
0.000835764
0.00356176
0.00260385
0.00959162
0.0032823
0.00375296
0.00344821
0.00135359
0.00390292
0.00080173
0.00459657
1.29987e-05
0.00528889
-0.00107596
0.00556965
-0.00197988
0.00544289
-0.00254263
0.00499706
-0.00277326
0.00433721
-0.00272494
0.00356586
-0.00246593
0.00276938
-0.00206676
0.00200863
-0.00158807
0.00133852
-0.00111075
0.000785829
-0.000673866
0.00037266
-0.000340788
9.75562e-05
-0.00014753
-8.54466e-05
-7.18035e-05
-0.000225824
-6.59725e-05
-0.000344447
-8.28381e-05
-0.000442831
-0.000101066
-0.000518767
-0.000117893
-0.000570848
-0.000134511
-0.000598385
-0.000152391
-0.000604364
-0.00017477
-0.000597589
-0.000204015
-0.000584288
-0.000235444
-0.000564309
-0.000260909
-0.000530261
-0.00027097
-0.000465088
-0.000255321
-0.000337359
-0.000200089
-0.000142761
-7.75874e-05
9.63726e-05
0.00010617
0.000387289
0.00030759
0.000747986
0.000496812
0.00122374
0.000686329
0.00172645
0.000714515
0.00186663
0.000565658
0.000928617
0.00177377
0.00475103
0.0101555
0.0139012
0.0122315
0.00302332
0.011335
0.00169819
0.010601
0.000747077
0.00970684
-0.000181845
0.00855618
-0.000829229
0.00725622
-0.00124266
0.00590115
-0.00141819
0.00456023
-0.00138403
0.00329677
-0.00120247
0.00216045
-0.000930438
0.0011634
-0.000591021
0.000346704
-0.000294052
-0.000255444
-7.17179e-05
-0.000630046
3.38136e-05
-0.000832454
5.48785e-05
-0.000946541
4.22835e-05
-0.00102899
1.64792e-05
-0.00110175
-1.00759e-05
-0.00116868
-3.41392e-05
-0.00122927
-5.73013e-05
-0.00128311
-8.06759e-05
-0.0013315
-0.000104002
-0.00137868
-0.000127592
-0.00143203
-0.000150659
-0.00149882
-0.000168652
-0.00158593
-0.000173803
-0.00170124
-0.000155662
-0.00185509
-0.00010147
-0.00205663
1.45684e-06
-0.00229674
0.000162514
-0.00258519
0.000394622
-0.00299263
0.000715038
-0.00362201
0.00112619
-0.00454642
0.00161074
-0.00589316
0.00206125
-0.00760176
0.00227425
-0.00742912
0.00160114
-0.00238957
0.00510028
0.00455236
0.00409161
0.00270686
0.00448879
0.000349896
0.00452747
-0.000220522
0.00411773
-0.000419491
0.00343087
-0.000555795
0.00258142
-0.000568737
0.00166198
-0.000464595
0.00074604
-0.000286533
-0.000111442
-7.29567e-05
-0.000805697
0.000103235
-0.00125907
0.000159317
-0.0015029
0.000172113
-0.0016218
0.000152713
-0.00168755
0.00012063
-0.00173375
8.84831e-05
-0.00177639
5.91267e-05
-0.00182083
3.43631e-05
-0.00186912
1.41472e-05
-0.0019232
-3.22131e-06
-0.00198349
-2.03901e-05
-0.00205031
-3.71822e-05
-0.00212573
-5.2172e-05
-0.0022122
-6.41823e-05
-0.00231093
-6.99211e-05
-0.00242126
-6.34765e-05
-0.00253958
-3.73396e-05
-0.00265869
1.76369e-05
-0.00276693
0.000109699
-0.00285909
0.000254669
-0.00294029
0.000475828
-0.0030123
0.000787044
-0.00307079
0.00118467
-0.00307663
0.00161658
-0.00296049
0.00194512
-0.00227605
0.00158981
-0.000589468
-8.54436e-05
-0.00290088
-0.00043669
0.0050457
0.000856366
0.0014138
0.000815587
0.000390675
0.000537537
5.75278e-05
0.000154313
-3.62671e-05
-0.000370979
-3.05038e-05
-0.000959057
1.93412e-05
-0.00150565
8.20011e-05
-0.00193166
0.000139474
-0.0021878
0.000183183
-0.00228754
0.000202976
-0.00231869
0.000190463
-0.00231232
0.000165745
-0.00229759
0.000137982
-0.00229021
0.000113251
-0.00229435
9.26225e-05
-0.00230976
7.45377e-05
-0.00233364
5.82457e-05
-0.00236285
4.33547e-05
-0.00239561
2.95369e-05
-0.00243306
1.70571e-05
-0.00247543
5.18743e-06
-0.00252239
-5.21137e-06
-0.00257334
-1.32251e-05
-0.00262588
-1.73817e-05
-0.00267456
-1.48033e-05
-0.00271019
-1.70109e-06
-0.00272191
2.93566e-05
-0.00269888
8.6661e-05
-0.00262114
0.000176929
-0.00245843
0.000313119
-0.0021824
0.000511012
-0.00177218
0.000774454
-0.00118427
0.00102868
-0.000120752
0.000881604
0.00176334
-0.000294282
0.00337446
-0.00169657
0.000559017
-0.00793045
-0.0107845
-0.00569471
-0.00425805
-0.00385333
-0.00378663
-0.00381682
-0.00384353
-0.00382211
-0.00373933
-0.00360017
-0.00341824
-0.00321733
-0.00302963
-0.00286722
-0.00273304
-0.00262396
-0.00253581
-0.00246599
-0.00241263
-0.00237427
-0.0023498
-0.00233782
-0.00233768
-0.00234789
-0.00236605
-0.00238826
-0.00240778
-0.00241407
-0.00238915
-0.00230676
-0.00213393
-0.00182476
-0.00131754
-0.000546766
0.000478308
0.00135619
0.00105768
-0.000644469
)
;

boundaryField
{
    floor
    {
        type            calculated;
        value           nonuniform List<scalar> 
29
(
0
0
0
0
0
0
0
0
0
0
0
0
0
0
0
0
0
0
0
0
-4.0173e-06
-1.02109e-05
-1.54298e-05
-2.00941e-05
-1.66556e-06
-2.99029e-06
-8.71782e-06
-9.56515e-06
-8.38593e-06
)
;
    }
    ceiling
    {
        type            calculated;
        value           nonuniform List<scalar> 
43
(
-4.66692e-05
-4.5394e-05
-4.41239e-05
-2.28567e-05
-1.40459e-05
-9.17096e-06
-6.07726e-06
-3.79046e-06
-2.08027e-06
-7.7687e-07
3.10357e-07
1.24834e-06
2.06604e-06
2.76628e-06
3.33936e-06
3.79871e-06
4.17159e-06
4.47555e-06
4.71274e-06
4.88524e-06
5.00005e-06
5.06283e-06
5.07585e-06
5.05207e-06
5.00005e-06
4.92808e-06
4.83332e-06
4.71738e-06
4.58431e-06
4.43437e-06
4.27184e-06
4.10559e-06
3.94426e-06
3.7973e-06
3.67644e-06
3.60248e-06
3.72408e-06
4.22313e-06
5.58494e-06
6.51787e-06
1.0248e-05
7.20664e-06
-5.66552e-05
)
;
    }
    sWall
    {
        type            calculated;
        value           uniform -0.000271801;
    }
    nWall
    {
        type            calculated;
        value           nonuniform List<scalar> 6(-4.86365e-05 -5.81791e-05 -6.30697e-05 -7.81595e-05 -8.54291e-05 -9.19698e-05);
    }
    sideWalls
    {
        type            empty;
        value           nonuniform 0();
    }
    glass1
    {
        type            calculated;
        value           nonuniform List<scalar> 9(-5.73252e-05 -0.000154468 -0.000236334 -0.00030604 -0.000365228 -0.000415118 -0.000459726 -0.000513692 -0.000574087);
    }
    glass2
    {
        type            calculated;
        value           nonuniform List<scalar> 2(-0.000260651 -0.000288527);
    }
    sun
    {
        type            calculated;
        value           uniform 0;
    }
    heatsource1
    {
        type            calculated;
        value           nonuniform List<scalar> 3(2.04202e-07 2.04137e-07 2.04155e-07);
    }
    heatsource2
    {
        type            calculated;
        value           nonuniform List<scalar> 4(5.1194e-08 5.12782e-08 0 0);
    }
    Table_master
    {
        type            calculated;
        value           nonuniform List<scalar> 9(-1.53158e-07 -1.53248e-07 -1.53281e-07 -1.53302e-07 -1.53318e-07 -1.53329e-07 -1.53335e-07 -1.53331e-07 -1.53303e-07);
    }
    Table_slave
    {
        type            calculated;
        value           nonuniform List<scalar> 9(1.53039e-07 1.53061e-07 1.53043e-07 1.53028e-07 1.53022e-07 1.53025e-07 1.53039e-07 1.53078e-07 1.53156e-07);
    }
    inlet
    {
        type            calculated;
        value           uniform -0.00662931;
    }
    outlet
    {
        type            calculated;
        value           nonuniform List<scalar> 2(0.00824892 0.00289948);
    }
}


// ************************************************************************* //
