/*--------------------------------*- C++ -*----------------------------------*\
  =========                 |
  \\      /  F ield         | OpenFOAM: The Open Source CFD Toolbox
   \\    /   O peration     | Website:  https://openfoam.org
    \\  /    A nd           | Version:  6
     \\/     M anipulation  |
\*---------------------------------------------------------------------------*/
FoamFile
{
    version     2.0;
    format      ascii;
    class       volScalarField;
    location    "800";
    object      epsilon;
}
// * * * * * * * * * * * * * * * * * * * * * * * * * * * * * * * * * * * * * //

dimensions      [0 2 -3 0 0 0 0];

internalField   nonuniform List<scalar> 
459
(
0.000344881
0.000436486
0.000452956
0.000515748
0.000577576
0.000638511
0.000700737
0.000768136
0.000823988
0.000854252
0.000846286
0.00079278
0.000697664
0.000580141
0.000467955
2.64859e-05
4.55205e-05
6.05773e-05
5.64273e-05
4.92894e-05
4.19162e-05
3.46284e-05
2.84638e-05
2.35484e-05
1.96659e-05
1.6588e-05
1.41596e-05
1.22098e-05
1.06156e-05
9.2801e-06
8.10992e-06
7.01564e-06
6.83494e-06
5.62902e-06
0.000920218
0.00143685
0.000410407
0.000390138
0.000401412
0.000423085
0.000457564
0.000509239
0.000566844
0.000612791
0.000628632
0.000603049
0.000536903
0.000447738
0.000384176
0.000473506
9.51569e-05
3.33802e-05
7.7369e-05
7.84157e-05
6.92871e-05
5.75516e-05
4.69456e-05
4.0456e-05
3.27241e-05
2.61626e-05
2.09808e-05
1.69612e-05
1.38765e-05
1.15073e-05
9.69908e-06
8.43685e-06
7.74291e-06
7.57886e-06
2.80564e-05
1.69632e-05
0.00173472
0.00373412
0.000521942
0.000370815
0.000377929
0.000412429
0.000467081
0.000543046
0.000627376
0.000692965
0.000718105
0.000694779
0.000628137
0.000535873
0.000449584
0.000397913
0.000385135
0.000254736
0.000175947
0.000127254
9.47201e-05
7.25676e-05
5.89189e-05
9.78509e-05
7.11133e-05
5.31958e-05
4.09493e-05
3.23754e-05
2.62215e-05
2.17064e-05
1.83401e-05
1.58166e-05
1.24268e-05
1.07886e-05
5.49629e-05
2.88587e-05
0.00289186
0.00796971
0.000857885
0.000371389
0.000361555
0.000408563
0.000486495
0.000600974
0.000720678
0.000800099
0.000822465
0.000788375
0.000708854
0.000602186
0.000493125
0.000415705
0.0003939
0.000689834
0.000388645
0.000224722
0.000145065
0.000101653
7.60693e-05
6.38048e-05
0.000139299
0.000113381
9.79861e-05
8.77606e-05
7.94191e-05
7.10826e-05
6.34273e-05
5.56348e-05
4.69622e-05
2.91835e-05
1.97171e-05
9.41961e-05
4.07471e-05
0.00451698
0.014428
0.00174917
0.000426287
0.000348617
0.000399689
0.000515231
0.000722448
0.000887419
0.000967037
0.000970938
0.000910959
0.000803365
0.000667645
0.000524701
0.000396527
0.000298793
0.000249204
0.000191657
0.000143795
0.000108544
8.41619e-05
6.79836e-05
5.87418e-05
5.8673e-05
5.80949e-05
5.75442e-05
5.64586e-05
5.41103e-05
5.01009e-05
4.55801e-05
4.12007e-05
3.72226e-05
3.10678e-05
2.47793e-05
6.35015e-05
4.9276e-05
7.97282e-05
0.000137145
0.000192511
0.00680144
0.021552
0.00404692
0.000779638
0.000451446
0.00046009
0.00063436
0.00102003
0.00118575
0.00122418
0.00118172
0.0010815
0.000936695
0.000760598
0.000574777
0.000405407
0.000275984
0.000195465
0.000147754
0.000115058
9.07308e-05
7.40878e-05
6.4177e-05
6.0047e-05
6.10065e-05
6.44505e-05
6.81207e-05
7.05403e-05
7.04341e-05
6.65687e-05
5.85874e-05
4.98436e-05
4.18348e-05
3.49171e-05
3.07043e-05
4.50313e-05
4.87335e-05
5.98337e-05
0.000254773
0.000219112
0.00964044
0.0257976
0.00880177
0.00275608
0.00149888
0.00120386
0.00148218
0.0016729
0.00169198
0.00161273
0.00147935
0.00130727
0.00110115
0.000868779
0.000632368
0.000421536
0.000265429
0.000171164
0.000121822
9.43457e-05
7.71269e-05
6.75537e-05
6.42814e-05
6.61085e-05
7.19147e-05
7.98888e-05
8.83076e-05
9.60502e-05
0.000101797
0.000103394
9.69575e-05
8.4133e-05
7.1589e-05
6.13873e-05
5.72278e-05
6.54724e-05
8.50363e-05
0.000138996
0.000332079
0.000316044
0.0104025
0.0297219
0.015717
0.00956274
0.00611335
0.00436277
0.00349994
0.00290945
0.00248243
0.00214667
0.00185285
0.0015682
0.00127385
0.00096571
0.000667378
0.000409649
0.000231145
0.000133276
9.18038e-05
7.48495e-05
6.6932e-05
6.50569e-05
6.78718e-05
7.4432e-05
8.40322e-05
9.59698e-05
0.000109774
0.000125381
0.000142827
0.0001618
0.000180902
0.000190552
0.000197074
0.000216359
0.000258587
0.00039288
0.000742043
0.00143454
0.00427121
0.00122879
0.00973073
0.0168687
0.0136033
0.0102152
0.00763638
0.00586032
0.00462006
0.00375861
0.00313081
0.00263202
0.00219754
0.00179038
0.00138897
0.000982382
0.000613399
0.000306622
0.000146725
8.90161e-05
6.79249e-05
6.04586e-05
5.92506e-05
6.21645e-05
6.82349e-05
7.7001e-05
8.83214e-05
0.000102286
0.000119308
0.000140265
0.000166587
0.000200369
0.000244497
0.000302691
0.000381822
0.000502827
0.000682723
0.000927268
0.00120475
0.00144186
0.00162046
0.00099761
0.00539576
0.00713709
0.0065375
0.0057231
0.00494454
0.00416381
0.00345344
0.00281151
0.00223093
0.00170366
0.00120906
0.000682266
0.00032225
0.000147922
7.96449e-05
5.62492e-05
4.85292e-05
4.71451e-05
4.90882e-05
5.33019e-05
5.9367e-05
6.71824e-05
7.68509e-05
8.8656e-05
0.000103118
0.0001211
0.000143968
0.00017384
0.000214028
0.000270241
0.00034799
0.000455056
0.000594916
0.000753216
0.000884819
0.000930217
0.000857149
0.000539289
0.00381987
0.00691113
0.00635059
0.00503898
0.00410666
0.00338205
0.00270969
0.00204708
0.00131584
0.000771408
0.000407359
0.000195227
9.67971e-05
5.54912e-05
3.92357e-05
3.39535e-05
3.33067e-05
3.49029e-05
3.79975e-05
4.23718e-05
4.80315e-05
5.51237e-05
6.39219e-05
7.48452e-05
8.85133e-05
0.000105842
0.000128193
0.000157604
0.000196958
0.000249793
0.000321244
0.000416526
0.000536331
0.00067168
0.00077352
0.000875318
0.000756165
0.000562383
0.00244833
0.00285498
0.0032019
0.00359561
0.00263468
0.00182257
0.0012822
0.000976103
0.000760241
0.000554047
0.000371361
0.000236204
0.000143517
8.75241e-05
5.94028e-05
4.68685e-05
4.21034e-05
4.14674e-05
4.32644e-05
4.6747e-05
5.14646e-05
5.73296e-05
6.44255e-05
7.29092e-05
8.30052e-05
9.50172e-05
0.00010936
0.000126626
0.000147728
0.000174183
0.000207382
0.000248543
0.000299918
0.000364481
0.000445568
0.000561145
0.000603459
0.000561599
0.000459083
0.000364818
)
;

boundaryField
{
    floor
    {
        Cmu             0.09;
        kappa           0.41;
        E               9.8;
        type            epsilonWallFunction;
        value           nonuniform List<scalar> 
29
(
0.000467955
2.64859e-05
4.55205e-05
6.05773e-05
5.64273e-05
4.92894e-05
4.19162e-05
3.46284e-05
2.84638e-05
2.35484e-05
1.96659e-05
1.6588e-05
1.41596e-05
1.22098e-05
1.06156e-05
9.2801e-06
8.10992e-06
7.01564e-06
6.83494e-06
5.62902e-06
5.62902e-06
1.69632e-05
2.88587e-05
4.07471e-05
0.000467955
2.64859e-05
3.33802e-05
0.000254736
0.000689834
)
;
    }
    ceiling
    {
        Cmu             0.09;
        kappa           0.41;
        E               9.8;
        type            epsilonWallFunction;
        value           nonuniform List<scalar> 
43
(
0.00244833
0.00285498
0.0032019
0.00359561
0.00263468
0.00182257
0.0012822
0.000976103
0.000760241
0.000554047
0.000371361
0.000236204
0.000143517
8.75241e-05
5.94028e-05
4.68685e-05
4.21034e-05
4.14674e-05
4.32644e-05
4.6747e-05
5.14646e-05
5.73296e-05
6.44255e-05
7.29092e-05
8.30052e-05
9.50172e-05
0.00010936
0.000126626
0.000147728
0.000174183
0.000207382
0.000248543
0.000299918
0.000364481
0.000445568
0.000561145
0.000603459
0.000561599
0.000459083
0.000364818
0.00973073
0.0168687
0.00381987
)
;
    }
    sWall
    {
        Cmu             0.09;
        kappa           0.41;
        E               9.8;
        type            epsilonWallFunction;
        value           uniform 0.00244833;
    }
    nWall
    {
        Cmu             0.09;
        kappa           0.41;
        E               9.8;
        type            epsilonWallFunction;
        value           nonuniform List<scalar> 6(0.000192511 0.000219112 0.000316044 0.000539289 0.000562383 0.000364818);
    }
    sideWalls
    {
        type            empty;
    }
    glass1
    {
        Cmu             0.09;
        kappa           0.41;
        E               9.8;
        type            epsilonWallFunction;
        value           nonuniform List<scalar> 9(0.000344881 0.000920218 0.00173472 0.00289186 0.00451698 0.00680144 0.00964044 0.0104025 0.00973073);
    }
    glass2
    {
        Cmu             0.09;
        kappa           0.41;
        E               9.8;
        type            epsilonWallFunction;
        value           nonuniform List<scalar> 2(0.00122879 0.00099761);
    }
    sun
    {
        Cmu             0.09;
        kappa           0.41;
        E               9.8;
        type            epsilonWallFunction;
        value           nonuniform List<scalar> 
14
(
0.000344881
0.000436486
0.000452956
0.000515748
0.000577576
0.000638511
0.000700737
0.000768136
0.000823988
0.000854252
0.000846286
0.00079278
0.000697664
0.000580141
)
;
    }
    heatsource1
    {
        Cmu             0.09;
        kappa           0.41;
        E               9.8;
        type            epsilonWallFunction;
        value           nonuniform List<scalar> 3(7.97282e-05 0.000137145 0.000192511);
    }
    heatsource2
    {
        Cmu             0.09;
        kappa           0.41;
        E               9.8;
        type            epsilonWallFunction;
        value           nonuniform List<scalar> 4(0.000473506 9.51569e-05 9.51569e-05 0.000385135);
    }
    Table_master
    {
        Cmu             0.09;
        kappa           0.41;
        E               9.8;
        type            epsilonWallFunction;
        value           nonuniform List<scalar> 9(9.78509e-05 7.11133e-05 5.31958e-05 4.09493e-05 3.23754e-05 2.62215e-05 2.17064e-05 1.83401e-05 1.58166e-05);
    }
    Table_slave
    {
        Cmu             0.09;
        kappa           0.41;
        E               9.8;
        type            epsilonWallFunction;
        value           nonuniform List<scalar> 9(0.000139299 0.000113381 9.79861e-05 8.77606e-05 7.94191e-05 7.10826e-05 6.34273e-05 5.56348e-05 4.69622e-05);
    }
    inlet
    {
        type            turbulentMixingLengthDissipationRateInlet;
        mixingLength    0.01;
        phi             phi;
        k               k;
        value           uniform 0.000101881;
    }
    outlet
    {
        type            zeroGradient;
    }
}


// ************************************************************************* //
