/*--------------------------------*- C++ -*----------------------------------*\
  =========                 |
  \\      /  F ield         | OpenFOAM: The Open Source CFD Toolbox
   \\    /   O peration     | Website:  https://openfoam.org
    \\  /    A nd           | Version:  6
     \\/     M anipulation  |
\*---------------------------------------------------------------------------*/
FoamFile
{
    version     2.0;
    format      ascii;
    class       volScalarField;
    location    "800";
    object      nut;
}
// * * * * * * * * * * * * * * * * * * * * * * * * * * * * * * * * * * * * * //

dimensions      [0 2 -1 0 0 0 0];

internalField   nonuniform List<scalar> 
459
(
0.000991453
0.00107244
0.00108576
0.00113378
0.00117739
0.00121742
0.00125575
0.00129478
0.00132543
0.00134147
0.00133728
0.00130849
0.00125391
0.00117913
0.00109762
0.000421432
0.000504807
0.000555258
0.00054228
0.000518379
0.000491125
0.000460834
0.000431684
0.000405251
0.000381629
0.00036058
0.000342047
0.000325563
0.000310727
0.000297106
0.00028405
0.000270649
0.000268302
0.00025149
0.00137514
0.00305763
0.00283373
0.00327751
0.00368901
0.00411159
0.00450395
0.00479803
0.00506255
0.0052899
0.00544184
0.00547381
0.00532115
0.00484742
0.00360041
0.00110195
0.00064545
0.000455217
0.000843754
0.00110476
0.00128387
0.00137184
0.00136867
0.00116399
0.00103256
0.000933158
0.000854468
0.000790543
0.000734715
0.00068494
0.000639861
0.000599474
0.000566403
0.00052992
0.000657153
0.000363257
0.00169873
0.00415817
0.00337912
0.00431401
0.00469504
0.00496553
0.00517262
0.00533888
0.00552722
0.00573599
0.00593574
0.00608948
0.00614712
0.00605855
0.00571096
0.00460816
0.00102863
0.000896224
0.00116834
0.00138609
0.00157829
0.00171253
0.00168847
0.000651505
0.00058575
0.000531725
0.000487314
0.000450606
0.000420026
0.000394383
0.000372839
0.000354887
0.00037998
0.000427621
0.000737784
0.000433646
0.00201422
0.00544028
0.00328252
0.00451717
0.00484028
0.00490315
0.00492336
0.00498979
0.00513192
0.00533515
0.00556946
0.0058017
0.00597318
0.0060495
0.00599695
0.0056599
0.00445177
0.00124921
0.00146295
0.00175493
0.00202729
0.00224743
0.00240047
0.00231717
0.000732899
0.00068429
0.000651799
0.000628286
0.000607713
0.000585658
0.000563829
0.000539722
0.000510078
0.000479756
0.000474089
0.000873901
0.00048649
0.00233702
0.007141
0.00355658
0.00424958
0.0047447
0.00470723
0.00460832
0.0046271
0.00477505
0.00498708
0.00524016
0.00550689
0.0057046
0.00578034
0.00571567
0.00549692
0.00503199
0.00414404
0.00375948
0.0035872
0.00351127
0.00348809
0.00348939
0.00345009
0.00310403
0.00296524
0.00289932
0.00284206
0.0027589
0.00261903
0.00236642
0.00203204
0.00164439
0.00124395
0.00091327
0.000874785
0.000653624
0.000608479
0.000729071
0.000816321
0.00267864
0.00900735
0.00504514
0.00394204
0.00444906
0.00460505
0.00454774
0.00449232
0.00465407
0.00485804
0.00510772
0.00536749
0.00556559
0.00562457
0.00550209
0.00522079
0.00486807
0.00454633
0.00438002
0.00429149
0.00422016
0.00415953
0.00410383
0.00404009
0.0039413
0.00386093
0.00378378
0.00369298
0.00357941
0.00343674
0.00321975
0.00289988
0.00247666
0.00197474
0.0014951
0.00105915
0.000857366
0.00075617
0.00109433
0.00085231
0.00300893
0.0104127
0.00761352
0.00502914
0.00444678
0.00455418
0.00465578
0.00467572
0.00474398
0.00489733
0.00513143
0.00539011
0.00558268
0.00561381
0.00543081
0.00507256
0.0046988
0.00450136
0.00449427
0.00449705
0.00441988
0.00428207
0.00412536
0.0039891
0.00388815
0.00381516
0.00374527
0.00366543
0.00357375
0.00347511
0.00337164
0.00317104
0.00283126
0.00238903
0.00194411
0.0015081
0.00123466
0.00116656
0.00121813
0.000962998
0.00308621
0.00971202
0.00824557
0.00702628
0.00612129
0.00568841
0.00527972
0.00498707
0.00491499
0.00503983
0.00528557
0.00554912
0.00571629
0.00568112
0.0053971
0.00493587
0.0045403
0.00444233
0.00445896
0.00431631
0.0040756
0.00382887
0.0036346
0.00350818
0.00343339
0.00338311
0.00333736
0.00329116
0.00324986
0.00322471
0.00322939
0.00324633
0.00305097
0.00274615
0.00246884
0.00233586
0.00247492
0.00293011
0.00366297
0.00151427
0.00301829
0.00362582
0.00411137
0.00429411
0.00433137
0.00429634
0.00433996
0.00452863
0.00484235
0.00521984
0.00558345
0.00584239
0.0059061
0.00569123
0.00519681
0.00460801
0.00429162
0.00412169
0.00388269
0.0035667
0.00327664
0.00306725
0.00293706
0.00286106
0.00281305
0.00277351
0.00273131
0.00268169
0.00262244
0.00255161
0.00246759
0.0023715
0.00228925
0.00223014
0.00221698
0.0022416
0.00223983
0.00215251
0.00201048
0.00141264
0.00197692
0.00341675
0.00427243
0.00483452
0.00530528
0.00568542
0.00598006
0.00617816
0.00626512
0.00615665
0.00581389
0.00520659
0.00445922
0.0038764
0.00352822
0.00318561
0.00282979
0.00254857
0.00236716
0.00226364
0.00220837
0.00217922
0.00216238
0.00215001
0.00213841
0.00212664
0.00211575
0.00210865
0.00211032
0.00213159
0.0021589
0.00219192
0.00222447
0.00223069
0.00216772
0.00201973
0.00180432
0.00115076
0.00221
0.00436645
0.00543651
0.00586328
0.00621196
0.00628671
0.00615787
0.00595861
0.00566856
0.00495231
0.00404765
0.00329341
0.00278507
0.00242443
0.00209648
0.00181404
0.00162934
0.00152129
0.00147002
0.00145686
0.00146797
0.00149579
0.00153647
0.00158816
0.00164982
0.00172029
0.00179741
0.001877
0.00196333
0.0020575
0.00215807
0.00226023
0.00235064
0.00241291
0.0024024
0.0024207
0.00232586
0.00116696
0.00190546
0.0020056
0.00208375
0.00216587
0.00195262
0.00172692
0.00153591
0.00140244
0.00129034
0.0011612
0.00101622
0.000873949
0.000740209
0.00062771
0.000551632
0.000509729
0.000491832
0.000489342
0.000496311
0.000509285
0.000525871
0.000545134
0.000566756
0.000590615
0.000616707
0.000645126
0.000676077
0.000709934
0.000747362
0.000789549
0.000836824
0.000888882
0.000946333
0.00100988
0.00107981
0.0011661
0.0011947
0.00116641
0.00109062
0.00101019
)
;

boundaryField
{
    floor
    {
        type            nutkWallFunction;
        Cmu             0.09;
        kappa           0.41;
        E               9.8;
        value           nonuniform List<scalar> 
29
(
0.000132146
4.95635e-05
6.03245e-05
6.67265e-05
6.50864e-05
6.20535e-05
5.8574e-05
5.46784e-05
5.08993e-05
4.74444e-05
4.43327e-05
4.15393e-05
3.90623e-05
3.68448e-05
3.48363e-05
3.29813e-05
3.11928e-05
2.93457e-05
2.90212e-05
2.6683e-05
2.66829e-05
4.18978e-05
5.1157e-05
5.79823e-05
0.000132146
4.95635e-05
5.39533e-05
0.000108435
0.000149661
)
;
    }
    ceiling
    {
        type            nutkWallFunction;
        Cmu             0.09;
        kappa           0.41;
        E               9.8;
        value           nonuniform List<scalar> 
43
(
0.000222948
0.00023387
0.000242356
0.000251323
0.000228205
0.000203414
0.00018215
0.000167117
0.000154367
0.00013952
0.000122626
0.000105775
8.96411e-05
7.58001e-05
6.62717e-05
6.09557e-05
5.8669e-05
5.83501e-05
5.92423e-05
6.08992e-05
6.30098e-05
6.54508e-05
6.81783e-05
7.11732e-05
7.44316e-05
7.79617e-05
8.17852e-05
8.59438e-05
9.05137e-05
9.56323e-05
0.00010133
0.000107561
0.000114389
0.000121885
0.000130073
0.000140093
0.000143396
0.00014013
0.000131334
0.000121922
0.000342025
0.00040484
0.000255904
)
;
    }
    sWall
    {
        type            nutkWallFunction;
        Cmu             0.09;
        kappa           0.41;
        E               9.8;
        value           uniform 0.000223009;
    }
    nWall
    {
        type            nutkWallFunction;
        Cmu             0.09;
        kappa           0.41;
        E               9.8;
        value           nonuniform List<scalar> 6(9.8865e-05 0.00010319 0.000116364 0.000138329 0.000140203 0.000121929);
    }
    sideWalls
    {
        type            empty;
    }
    glass1
    {
        type            nutkWallFunction;
        Cmu             0.09;
        kappa           0.41;
        E               9.8;
        value           nonuniform List<scalar> 9(0.000119792 0.00016423 0.000200607 0.000235342 0.000270279 0.000306697 0.000341448 0.00034953 0.000342452);
    }
    glass2
    {
        type            nutkWallFunction;
        Cmu             0.09;
        kappa           0.41;
        E               9.8;
        value           nonuniform List<scalar> 2(0.00017982 0.000168356);
    }
    sun
    {
        type            nutkWallFunction;
        Cmu             0.09;
        kappa           0.41;
        E               9.8;
        value           nonuniform List<scalar> 
14
(
0.000119719
0.000129212
0.000130766
0.000136349
0.000141396
0.00014601
0.000150413
0.000154881
0.000158378
0.000160204
0.000159728
0.000156445
0.000150201
0.000141596
)
;
    }
    heatsource1
    {
        type            nutkWallFunction;
        Cmu             0.09;
        kappa           0.41;
        E               9.8;
        value           nonuniform List<scalar> 3(7.34078e-05 8.82844e-05 9.88637e-05);
    }
    heatsource2
    {
        type            nutkWallFunction;
        Cmu             0.09;
        kappa           0.41;
        E               9.8;
        value           nonuniform List<scalar> 4(0.000132645 7.80033e-05 7.80032e-05 0.000124081);
    }
    Table_master
    {
        type            nutkWallFunction;
        Cmu             0.09;
        kappa           0.41;
        E               9.8;
        value           nonuniform List<scalar> 9(7.87505e-05 7.05637e-05 6.37537e-05 5.8092e-05 5.33639e-05 4.93883e-05 4.60264e-05 4.31804e-05 4.07928e-05);
    }
    Table_slave
    {
        type            nutkWallFunction;
        Cmu             0.09;
        kappa           0.41;
        E               9.8;
        value           nonuniform List<scalar> 9(8.87488e-05 8.27949e-05 7.87872e-05 7.5872e-05 7.33105e-05 7.05526e-05 6.78107e-05 6.47674e-05 6.1002e-05);
    }
    inlet
    {
        type            calculated;
        value           uniform 0.000100623;
    }
    outlet
    {
        type            calculated;
        value           nonuniform List<scalar> 2(0.00190546 0.0020056);
    }
}


// ************************************************************************* //
