/*--------------------------------*- C++ -*----------------------------------*\
  =========                 |
  \\      /  F ield         | OpenFOAM: The Open Source CFD Toolbox
   \\    /   O peration     | Website:  https://openfoam.org
    \\  /    A nd           | Version:  6
     \\/     M anipulation  |
\*---------------------------------------------------------------------------*/
FoamFile
{
    version     2.0;
    format      ascii;
    class       volVectorField;
    location    "1200";
    object      U;
}
// * * * * * * * * * * * * * * * * * * * * * * * * * * * * * * * * * * * * * //

dimensions      [0 1 -1 0 0 0 0];

internalField   nonuniform List<vector> 
459
(
(0.0341604 0.0858976 0)
(-0.167105 0.0254934 0)
(-0.191889 0.0178527 0)
(-0.22291 0.0121424 0)
(-0.245351 0.00584586 0)
(-0.258114 -0.00085294 0)
(-0.259504 -0.00802343 0)
(-0.248255 -0.0156908 0)
(-0.224962 -0.0231532 0)
(-0.191536 -0.0290763 0)
(-0.15172 -0.0323569 0)
(-0.109929 -0.0324553 0)
(-0.0704165 -0.0295234 0)
(-0.0383532 -0.0246948 0)
(-0.027646 -0.0198183 0)
(-0.00647786 0.00892715 0)
(-0.0291786 -0.0166936 0)
(-0.00746645 -0.0266301 0)
(0.0162611 -0.0206344 0)
(0.0319338 -0.0142264 0)
(0.0448456 -0.00926806 0)
(0.0530188 -0.00539815 0)
(0.0572817 -0.00336327 0)
(0.0592042 -0.00255111 0)
(0.0601557 -0.00220202 0)
(0.0607477 -0.00198275 0)
(0.0610826 -0.00180571 0)
(0.0611023 -0.00159216 0)
(0.0606195 -0.00117342 0)
(0.059102 -0.000177969 0)
(0.0554063 0.00190567 0)
(0.048286 0.00412446 0)
(0.0417081 0.00593573 0)
(-0.0128904 0.0204438 0)
(0.208726 0.176004 0)
(-0.156299 0.0674597 0)
(-0.15479 0.0530736 0)
(-0.186965 0.0412232 0)
(-0.209264 0.0277717 0)
(-0.222335 0.0125978 0)
(-0.224438 -0.00461942 0)
(-0.214147 -0.0232799 0)
(-0.192663 -0.0407698 0)
(-0.162312 -0.0539825 0)
(-0.126968 -0.0607951 0)
(-0.090716 -0.0605791 0)
(-0.0571191 -0.053937 0)
(-0.0295934 -0.0424961 0)
(-0.0121129 -0.0287764 0)
(0.00175056 -0.0107659 0)
(0.000410057 0.0156766 0)
(0.0608075 0.0364751 0)
(0.0246899 -0.0181639 0)
(0.0333754 -0.031544 0)
(0.0446158 -0.0281837 0)
(0.0536877 -0.0204031 0)
(0.0604042 -0.0128678 0)
(0.0633486 -0.0054893 0)
(0.0639259 -0.00124561 0)
(0.0638772 0.00051419 0)
(0.0639884 0.00128594 0)
(0.0641997 0.00176 0)
(0.0643549 0.00214863 0)
(0.0644091 0.00262206 0)
(0.0643174 0.00349613 0)
(0.0635736 0.00564703 0)
(0.0598532 0.0116196 0)
(0.0504257 0.016618 0)
(0.0457838 0.0199797 0)
(-0.0490524 0.0443428 0)
(0.368955 0.263416 0)
(-0.173211 0.107483 0)
(-0.116253 0.0859118 0)
(-0.147653 0.0647698 0)
(-0.167559 0.0426066 0)
(-0.179792 0.0179492 0)
(-0.1816 -0.0100536 0)
(-0.170662 -0.0399355 0)
(-0.149454 -0.0670312 0)
(-0.121214 -0.0862871 0)
(-0.0900175 -0.0950169 0)
(-0.0593647 -0.0931466 0)
(-0.0315352 -0.0820992 0)
(-0.00860013 -0.064138 0)
(0.00846634 -0.0406092 0)
(0.0196405 -0.0141707 0)
(0.0238487 0.0230914 0)
(0.110228 -0.0268276 0)
(0.0745337 -0.0377989 0)
(0.0691621 -0.0385479 0)
(0.070746 -0.0332035 0)
(0.0721937 -0.0252919 0)
(0.0736163 -0.0183319 0)
(0.0724295 -0.0146263 0)
(0.0677212 -0.0103039 0)
(0.064281 -0.00794327 0)
(0.062726 -0.0065897 0)
(0.0620636 -0.00571637 0)
(0.0617263 -0.00511008 0)
(0.0616995 -0.00457622 0)
(0.0624259 -0.0037432 0)
(0.0650298 -0.000650291 0)
(0.0630175 0.0162495 0)
(0.0499482 0.0280073 0)
(0.0520267 0.0359495 0)
(-0.080996 0.0692187 0)
(0.513618 0.333744 0)
(-0.208028 0.142978 0)
(-0.0753081 0.1139 0)
(-0.105411 0.0848721 0)
(-0.119893 0.0564559 0)
(-0.128958 0.0240957 0)
(-0.127819 -0.0145456 0)
(-0.113836 -0.0562399 0)
(-0.0922631 -0.092184 0)
(-0.0671032 -0.115823 0)
(-0.0418589 -0.124949 0)
(-0.018894 -0.120854 0)
(0.00156327 -0.105663 0)
(0.0184084 -0.0828875 0)
(0.0327122 -0.0560385 0)
(0.0480158 -0.026968 0)
(0.0696242 0.00490599 0)
(0.100434 0.0162591 0)
(0.105572 -0.0228249 0)
(0.0919199 -0.0336269 0)
(0.0829621 -0.0330014 0)
(0.0779044 -0.0289354 0)
(0.0741251 -0.022894 0)
(0.0715843 -0.0151851 0)
(0.0728674 -0.00921558 0)
(0.0779275 -0.00689309 0)
(0.0822278 -0.00560112 0)
(0.0850726 -0.00468244 0)
(0.0868052 -0.00365828 0)
(0.0869814 -0.00223262 0)
(0.0844817 -0.000149185 0)
(0.0780498 0.00289934 0)
(0.0651599 0.00745086 0)
(0.0528271 0.0268591 0)
(0.0406858 0.0432248 0)
(0.05606 0.0561607 0)
(-0.114382 0.0915195 0)
(0.638875 0.388224 0)
(-0.25064 0.171965 0)
(-0.0345299 0.130076 0)
(-0.0611777 0.0964041 0)
(-0.0676376 0.0645247 0)
(-0.0707114 0.0270579 0)
(-0.0608091 -0.021292 0)
(-0.0416268 -0.0738668 0)
(-0.0210724 -0.115059 0)
(-0.00181531 -0.139282 0)
(0.0144271 -0.145808 0)
(0.0268434 -0.138065 0)
(0.0365841 -0.120223 0)
(0.0444485 -0.0958301 0)
(0.0517386 -0.0684064 0)
(0.0604343 -0.0417452 0)
(0.0732724 -0.0221475 0)
(0.0839976 -0.0213058 0)
(0.0851369 -0.0291122 0)
(0.0787635 -0.0299982 0)
(0.0705648 -0.0271398 0)
(0.0638146 -0.0232944 0)
(0.0587169 -0.018715 0)
(0.0556259 -0.0133003 0)
(0.0554364 -0.00746828 0)
(0.0578254 -0.00462091 0)
(0.0605851 -0.00358039 0)
(0.0632029 -0.0027682 0)
(0.0655844 -0.00114395 0)
(0.0673772 0.00189016 0)
(0.0673537 0.00644068 0)
(0.0649094 0.0126673 0)
(0.0594492 0.0212152 0)
(0.0525115 0.0364702 0)
(0.0423573 0.0545471 0)
(0.064377 0.0747005 0)
(-0.0216563 0.103876 0)
(0.0457345 0.0317294 0)
(-0.0627059 -0.0349324 0)
(-0.27244 -0.0575273 0)
(0.72999 0.433652 0)
(-0.292234 0.191482 0)
(-0.0032969 0.126647 0)
(-0.0160234 0.097668 0)
(-0.0119214 0.0669633 0)
(-0.00631834 0.0240532 0)
(0.0223128 -0.0384435 0)
(0.0441277 -0.0941986 0)
(0.0596473 -0.132412 0)
(0.0690447 -0.151813 0)
(0.0729834 -0.15435 0)
(0.0728659 -0.143597 0)
(0.0701989 -0.123583 0)
(0.0664892 -0.0982976 0)
(0.0632263 -0.0714108 0)
(0.0618233 -0.0465978 0)
(0.0631355 -0.0281423 0)
(0.0640102 -0.0208758 0)
(0.0607643 -0.0205719 0)
(0.0537896 -0.020736 0)
(0.045895 -0.0193549 0)
(0.0392849 -0.0171248 0)
(0.0344959 -0.0143991 0)
(0.0318216 -0.0112393 0)
(0.0315245 -0.00826665 0)
(0.0332414 -0.00709066 0)
(0.0359117 -0.0069209 0)
(0.0390749 -0.00650647 0)
(0.0425408 -0.00482684 0)
(0.0460481 -0.000998621 0)
(0.0491999 0.00529554 0)
(0.050821 0.0136972 0)
(0.051184 0.0243707 0)
(0.0516548 0.0388544 0)
(0.0504208 0.0566709 0)
(0.0728784 0.07951 0)
(0.0522538 0.0975898 0)
(0.0929123 0.0680604 0)
(0.116064 0.0445158 0)
(-0.130097 -0.00783062 0)
(0.781989 0.474939 0)
(-0.313165 0.176938 0)
(0.0235393 0.0771514 0)
(0.0426321 0.0738988 0)
(0.0577773 0.0523737 0)
(0.0843739 0.00126634 0)
(0.118523 -0.0628299 0)
(0.137803 -0.111648 0)
(0.144205 -0.141165 0)
(0.140417 -0.152806 0)
(0.129181 -0.14953 0)
(0.113415 -0.135082 0)
(0.095692 -0.11333 0)
(0.0782537 -0.0881733 0)
(0.0627864 -0.0628277 0)
(0.050539 -0.0404156 0)
(0.0419537 -0.024059 0)
(0.0354918 -0.0158686 0)
(0.0289778 -0.0136086 0)
(0.0219147 -0.0133182 0)
(0.0152335 -0.0128294 0)
(0.00986065 -0.0120222 0)
(0.00611136 -0.0110394 0)
(0.00416198 -0.00995202 0)
(0.00409354 -0.00917852 0)
(0.00554033 -0.00935266 0)
(0.00785397 -0.00997352 0)
(0.0107559 -0.0101725 0)
(0.0142773 -0.00906326 0)
(0.0185386 -0.00562657 0)
(0.02447 0.00116159 0)
(0.0304341 0.0103993 0)
(0.036045 0.0212137 0)
(0.0431543 0.0341396 0)
(0.0508799 0.0488918 0)
(0.072956 0.0674425 0)
(0.0859805 0.075322 0)
(0.118233 0.0525324 0)
(0.158117 0.0438862 0)
(-0.0360508 0.0938147 0)
(0.886638 0.477611 0)
(-0.0706149 0.156587 0)
(0.106092 0.00386382 0)
(0.169244 -0.0164978 0)
(0.182256 -0.0353104 0)
(0.217813 -0.0693615 0)
(0.239622 -0.102096 0)
(0.24214 -0.125483 0)
(0.228152 -0.137017 0)
(0.202602 -0.136915 0)
(0.170353 -0.12694 0)
(0.13563 -0.109718 0)
(0.101474 -0.0879316 0)
(0.070377 -0.0648409 0)
(0.0438016 -0.0428713 0)
(0.0231239 -0.0246279 0)
(0.00879444 -0.0126396 0)
(-0.000540646 -0.00735279 0)
(-0.00714744 -0.00650055 0)
(-0.0126905 -0.00709504 0)
(-0.0174358 -0.00775454 0)
(-0.0212083 -0.00828997 0)
(-0.0239285 -0.00875677 0)
(-0.0255457 -0.00924779 0)
(-0.0261036 -0.00997187 0)
(-0.0259062 -0.011081 0)
(-0.0253373 -0.0123088 0)
(-0.0245291 -0.0132074 0)
(-0.023333 -0.0132756 0)
(-0.0213618 -0.0119269 0)
(-0.0176429 -0.00839695 0)
(-0.00868849 -0.00192914 0)
(0.000166617 0.00655824 0)
(0.0108676 0.0149535 0)
(0.0226848 0.0221621 0)
(0.0426629 0.0296745 0)
(0.061466 0.0229 0)
(0.0811721 -0.0050156 0)
(0.140768 0.0398481 0)
(-0.414971 0.206809 0)
(1.03171 0.429993 0)
(0.496808 0.2851 0)
(0.503085 0.191446 0)
(0.511582 0.120007 0)
(0.486884 0.0685291 0)
(0.444117 0.0151807 0)
(0.394146 -0.0330589 0)
(0.340658 -0.0672188 0)
(0.283374 -0.0848113 0)
(0.224713 -0.0878709 0)
(0.167975 -0.0804293 0)
(0.115925 -0.0664925 0)
(0.0695799 -0.0488027 0)
(0.0308435 -0.0307845 0)
(-0.000715567 -0.0146561 0)
(-0.021481 -0.00470721 0)
(-0.0325717 -0.00100656 0)
(-0.0387216 -0.000559669 0)
(-0.0427576 -0.00158936 0)
(-0.0462838 -0.00299342 0)
(-0.0495056 -0.0043605 0)
(-0.0524315 -0.00562653 0)
(-0.0550461 -0.00682526 0)
(-0.0573743 -0.00800847 0)
(-0.0595374 -0.00924282 0)
(-0.0618065 -0.0105082 0)
(-0.0645192 -0.011588 0)
(-0.0679817 -0.0121079 0)
(-0.0725253 -0.011538 0)
(-0.0786171 -0.00917901 0)
(-0.0868646 -0.00420174 0)
(-0.0972737 0.00399851 0)
(-0.10779 0.0149111 0)
(-0.123151 0.0287218 0)
(-0.147338 0.0454917 0)
(-0.182852 0.0639967 0)
(-0.233011 0.0801199 0)
(-0.290183 0.0912056 0)
(-0.35881 0.097265 0)
(-0.620981 0.0989582 0)
(-0.148207 0.0828908 0)
(0.134803 0.0618636 0)
(0.218082 0.00613706 0)
(0.20159 -0.0287285 0)
(0.185861 -0.0430772 0)
(0.163329 -0.0477496 0)
(0.130832 -0.0461092 0)
(0.0922638 -0.0396962 0)
(0.0523824 -0.0299358 0)
(0.0144088 -0.0176832 0)
(-0.0228936 -0.00391634 0)
(-0.0466311 0.00373751 0)
(-0.0611143 0.00713061 0)
(-0.0681732 0.0075172 0)
(-0.0716225 0.00668124 0)
(-0.0738997 0.00562254 0)
(-0.075861 0.00456478 0)
(-0.0778426 0.00357377 0)
(-0.0801533 0.00259367 0)
(-0.0827993 0.00153849 0)
(-0.0857192 0.000447544 0)
(-0.0889405 -0.000623394 0)
(-0.092533 -0.00159997 0)
(-0.0965849 -0.00232759 0)
(-0.101169 -0.00256333 0)
(-0.106283 -0.00199688 0)
(-0.111826 -0.000277043 0)
(-0.117576 0.00295136 0)
(-0.12292 0.00812797 0)
(-0.127084 0.0160166 0)
(-0.130513 0.027743 0)
(-0.133472 0.0436837 0)
(-0.136759 0.0629444 0)
(-0.140876 0.0818412 0)
(-0.142631 0.0904178 0)
(-0.125101 0.0677432 0)
(-0.080685 -0.0258781 0)
(-0.279367 -0.203992 0)
(-0.023509 0.231017 0)
(0.0635748 0.0995795 0)
(0.0375959 0.0190278 0)
(0.0254354 -0.00438353 0)
(0.0161355 -0.00975577 0)
(-0.00248096 -0.0111459 0)
(-0.0274461 -0.00866631 0)
(-0.0531632 -0.00406777 0)
(-0.0749493 0.000454795 0)
(-0.0899576 0.00347689 0)
(-0.0971883 0.00374609 0)
(-0.0997438 0.00150739 0)
(-0.100113 -0.00148399 0)
(-0.0995284 -0.00487314 0)
(-0.0990828 -0.00832655 0)
(-0.0991831 -0.0115966 0)
(-0.0998642 -0.0145583 0)
(-0.101033 -0.0170093 0)
(-0.102547 -0.0187927 0)
(-0.104341 -0.0199034 0)
(-0.106422 -0.0204133 0)
(-0.108748 -0.0203269 0)
(-0.111312 -0.0199202 0)
(-0.114082 -0.0191983 0)
(-0.116946 -0.0180492 0)
(-0.119672 -0.0162417 0)
(-0.121899 -0.013398 0)
(-0.123123 -0.00893995 0)
(-0.122812 -0.0026594 0)
(-0.11999 0.00597048 0)
(-0.113206 0.0178174 0)
(-0.101177 0.0336358 0)
(-0.0836215 0.0529799 0)
(-0.0614506 0.0717148 0)
(-0.0375777 0.0826601 0)
(0.00270038 0.0667105 0)
(0.144006 -0.00464547 0)
(-0.207665 -0.114417 0)
(-0.10379 -0.348837 0)
(-0.439366 -0.120287 0)
(-0.310832 0.0957846 0)
(-0.226491 -0.020167 0)
(-0.18003 -0.0413546 0)
(-0.165564 -0.0292187 0)
(-0.163134 -0.0162721 0)
(-0.164429 -0.00595596 0)
(-0.164969 0.00266595 0)
(-0.162702 0.0102024 0)
(-0.157989 0.0171115 0)
(-0.150949 0.0233903 0)
(-0.142513 0.0287753 0)
(-0.134116 0.0332751 0)
(-0.126621 0.0374571 0)
(-0.120361 0.0415367 0)
(-0.11535 0.0455962 0)
(-0.11142 0.0494468 0)
(-0.108426 0.0527297 0)
(-0.10627 0.0551085 0)
(-0.104867 0.0563812 0)
(-0.10414 0.0565258 0)
(-0.10403 0.0556416 0)
(-0.10447 0.0538404 0)
(-0.105377 0.0516225 0)
(-0.106649 0.0491496 0)
(-0.108125 0.0465329 0)
(-0.109537 0.043866 0)
(-0.110463 0.0412226 0)
(-0.110223 0.0386752 0)
(-0.107561 0.0370782 0)
(-0.100586 0.037125 0)
(-0.0868251 0.0395833 0)
(-0.0644229 0.0453555 0)
(-0.034009 0.0549475 0)
(0.0146281 0.0679925 0)
(0.0593881 0.0691661 0)
(0.102072 0.0542945 0)
(0.164163 0.0251783 0)
(-0.219602 -0.0297308 0)
)
;

boundaryField
{
    floor
    {
        type            noSlip;
    }
    ceiling
    {
        type            noSlip;
    }
    sWall
    {
        type            noSlip;
    }
    nWall
    {
        type            noSlip;
    }
    sideWalls
    {
        type            empty;
    }
    glass1
    {
        type            noSlip;
    }
    glass2
    {
        type            noSlip;
    }
    sun
    {
        type            noSlip;
    }
    heatsource1
    {
        type            noSlip;
    }
    heatsource2
    {
        type            noSlip;
    }
    Table_master
    {
        type            noSlip;
    }
    Table_slave
    {
        type            noSlip;
    }
    inlet
    {
        type            fixedValue;
        value           uniform (0.3 0 0);
    }
    outlet
    {
        type            zeroGradient;
    }
}


// ************************************************************************* //
