/*--------------------------------*- C++ -*----------------------------------*\
  =========                 |
  \\      /  F ield         | OpenFOAM: The Open Source CFD Toolbox
   \\    /   O peration     | Website:  https://openfoam.org
    \\  /    A nd           | Version:  6
     \\/     M anipulation  |
\*---------------------------------------------------------------------------*/
FoamFile
{
    version     2.0;
    format      ascii;
    class       volScalarField;
    location    "1200";
    object      alphat;
}
// * * * * * * * * * * * * * * * * * * * * * * * * * * * * * * * * * * * * * //

dimensions      [1 -1 -1 0 0 0 0];

internalField   nonuniform List<scalar> 
459
(
0.00123688
0.00134976
0.00137532
0.00144099
0.00150186
0.00155928
0.00161636
0.0016708
0.00170899
0.00172362
0.0017077
0.00165629
0.00156701
0.00144244
0.00129632
0.000535796
0.000638453
0.000721216
0.000728333
0.000706826
0.000676199
0.00063377
0.000590634
0.000551487
0.000516906
0.000486437
0.000459502
0.000435591
0.000414272
0.000394763
0.000376098
0.000356998
0.000345862
0.00031735
0.00168358
0.00400054
0.00378545
0.00439022
0.00498304
0.00557716
0.00609298
0.00649498
0.00686878
0.00718004
0.0073861
0.00744298
0.0072977
0.00682484
0.00549675
0.00131976
0.000820087
0.000558338
0.00117587
0.00164711
0.00200371
0.00221482
0.00222446
0.00175464
0.00150463
0.00132732
0.00119202
0.00108511
0.000998467
0.000925595
0.000857904
0.000792473
0.000734237
0.000682935
0.00081922
0.000424607
0.00205477
0.0054275
0.00461815
0.00574924
0.00626807
0.00664508
0.00693979
0.00720044
0.00750395
0.0078336
0.0081505
0.00839572
0.00851584
0.00842136
0.00785384
0.00602352
0.00135996
0.00104687
0.00152444
0.00198538
0.00243435
0.00276876
0.00273684
0.000904033
0.000798583
0.000713048
0.000643688
0.000587048
0.000540371
0.000501609
0.000469432
0.000443214
0.000477083
0.000548545
0.000931055
0.000498003
0.00241116
0.0069424
0.00456071
0.00600394
0.00639335
0.0064857
0.00656406
0.00671254
0.00696825
0.00731223
0.0077075
0.00807054
0.00834383
0.0084496
0.00832988
0.00767641
0.00514339
0.00158995
0.00189876
0.00241484
0.0029824
0.00349007
0.00384112
0.00366217
0.00102448
0.000935318
0.000871366
0.000822621
0.000781216
0.000742878
0.000706053
0.000667383
0.000622609
0.000584819
0.000591993
0.00109195
0.000555865
0.00277431
0.00891714
0.00493145
0.00572713
0.00626154
0.00620179
0.00614804
0.00626194
0.00650223
0.00685423
0.00729095
0.00769017
0.00796991
0.00807867
0.00801735
0.00775646
0.00709397
0.00600297
0.00562413
0.00555526
0.00560182
0.00565999
0.00566173
0.00547853
0.00465392
0.00424521
0.00400417
0.00381701
0.00362138
0.00334625
0.00297097
0.0025126
0.00200348
0.00149985
0.00111319
0.00110438
0.000763609
0.00069054
0.00083145
0.000933899
0.00315987
0.0110813
0.00678061
0.0055409
0.00605691
0.00622021
0.00605445
0.00616115
0.00636072
0.0066871
0.00711215
0.00752807
0.00780593
0.00786886
0.00773446
0.00750049
0.00727495
0.0071251
0.0071256
0.00715069
0.00711653
0.00701018
0.00683387
0.006573
0.00617884
0.00581865
0.00549554
0.00518532
0.00487283
0.00454379
0.00414103
0.00364654
0.00306035
0.00241549
0.00184035
0.00135747
0.00106106
0.000907641
0.00128237
0.000976986
0.00352135
0.0126392
0.00971206
0.00703249
0.00656808
0.00659851
0.00643245
0.00634036
0.006438
0.006749
0.00719707
0.00763346
0.00789771
0.00790207
0.00768762
0.00743175
0.00736708
0.00756469
0.00781228
0.00789451
0.00777757
0.00751499
0.00715452
0.00672767
0.00626618
0.00583249
0.00543636
0.00507137
0.00473824
0.00444387
0.00419052
0.00388633
0.00346
0.00293116
0.0024202
0.00193865
0.00160285
0.00148049
0.00146297
0.00110826
0.00359711
0.0114492
0.00994068
0.00881517
0.00812851
0.00735848
0.006716
0.00644949
0.0065757
0.00699549
0.00753607
0.00799428
0.00819345
0.00807604
0.00775303
0.00750408
0.00760105
0.00794111
0.0080882
0.00793484
0.00756177
0.00704971
0.00646789
0.0058848
0.00535995
0.00491993
0.00455563
0.00425728
0.00402485
0.00386236
0.00377305
0.00373903
0.00360503
0.00330086
0.00303359
0.00291044
0.00301591
0.00333164
0.00412661
0.00168633
0.00350668
0.00419097
0.00473778
0.00491217
0.00492938
0.00504918
0.00538761
0.00597518
0.00675871
0.00758365
0.00825596
0.00860791
0.00852931
0.00809992
0.00764426
0.00756178
0.00764129
0.00764612
0.00741751
0.00695875
0.00634218
0.00566132
0.00500834
0.00445253
0.00401721
0.00368644
0.00343295
0.00323626
0.00308181
0.00295644
0.00284768
0.00274641
0.00266841
0.00261061
0.00258889
0.00259814
0.00257998
0.00248167
0.00231445
0.00156645
0.00216591
0.00383549
0.00529638
0.0065162
0.0075056
0.00839253
0.00907984
0.00942205
0.00937239
0.00895393
0.00822809
0.00741744
0.006929
0.00675419
0.00656512
0.0062053
0.00567565
0.00504886
0.00441414
0.00384492
0.00338745
0.00305177
0.00281594
0.00265289
0.00254207
0.00247006
0.00242811
0.00241072
0.00241684
0.00244952
0.00249343
0.00254508
0.00259926
0.00263655
0.00262475
0.00254575
0.00224923
0.00125009
0.00251852
0.00536858
0.00733961
0.00825549
0.00886986
0.00929414
0.00924652
0.00865962
0.00777118
0.00682544
0.00603505
0.00546891
0.00509493
0.00476003
0.00435198
0.00388294
0.00340834
0.00298576
0.00265132
0.00241089
0.00224874
0.00214156
0.00207445
0.00204126
0.00203778
0.00205895
0.00210038
0.00215699
0.0022332
0.00232574
0.00243155
0.00254415
0.0026478
0.00271796
0.00273761
0.00270642
0.00194677
0.00127894
0.00215089
0.00226565
0.0023502
0.00241762
0.00218746
0.00200837
0.00192343
0.00183653
0.00171071
0.00155554
0.00137943
0.00120533
0.00105173
0.000930117
0.000842033
0.000779436
0.000733625
0.000699628
0.000675576
0.000660838
0.000654633
0.000655818
0.00066329
0.000676306
0.000694616
0.000717682
0.000745269
0.000777694
0.000815579
0.000860083
0.00091068
0.000967413
0.00103077
0.00110111
0.00117783
0.00125983
0.00127692
0.00114028
0.00108158
0.00128014
)
;

boundaryField
{
    floor
    {
        type            compressible::alphatWallFunction;
        Prt             0.85;
        value           nonuniform List<scalar> 
29
(
0.00018338
7.46993e-05
9.01108e-05
0.000102314
0.000103355
0.000100205
9.56991e-05
8.94151e-05
8.29732e-05
7.7077e-05
7.1825e-05
6.71611e-05
6.30075e-05
5.92943e-05
5.59618e-05
5.28929e-05
4.99384e-05
4.68953e-05
4.51115e-05
4.05093e-05
4.05087e-05
5.75804e-05
6.89362e-05
7.77396e-05
0.000183378
7.46984e-05
7.81119e-05
0.000148879
0.000223044
)
;
    }
    ceiling
    {
        type            compressible::alphatWallFunction;
        Prt             0.85;
        value           nonuniform List<scalar> 
43
(
0.000296591
0.000311379
0.000322225
0.00033096
0.000301481
0.000278295
0.000267224
0.000255837
0.000239235
0.00021857
0.000194831
0.000171022
0.000149688
0.000132541
0.000119957
0.00011092
0.000104251
9.927e-05
9.5728e-05
9.35501e-05
9.26315e-05
9.28072e-05
9.39133e-05
9.58363e-05
9.8534e-05
0.00010192
0.000105953
0.000110669
0.000116151
0.000122551
0.00012978
0.00013783
0.000146755
0.00015659
0.000167233
0.000178523
0.000180865
0.000162036
0.000153872
0.000181316
0.000467389
0.00055062
0.000343567
)
;
    }
    sWall
    {
        type            compressible::alphatWallFunction;
        Prt             0.85;
        value           uniform 0.000295372;
    }
    nWall
    {
        type            compressible::alphatWallFunction;
        Prt             0.85;
        value           nonuniform List<scalar> 6(0.000132755 0.00013885 0.000157242 0.000176862 0.000180814 0.000180986);
    }
    sideWalls
    {
        type            empty;
    }
    glass1
    {
        type            compressible::alphatWallFunction;
        Prt             0.85;
        value           nonuniform List<scalar> 9(0.000170929 0.000230395 0.000278603 0.000324095 0.000369783 0.000417655 0.000462031 0.000471402 0.000460596);
    }
    glass2
    {
        type            compressible::alphatWallFunction;
        Prt             0.85;
        value           nonuniform List<scalar> 2(0.000234268 0.000218429);
    }
    sun
    {
        type            compressible::alphatWallFunction;
        Prt             0.85;
        value           nonuniform List<scalar> 
14
(
0.000175254
0.000190672
0.000194147
0.00020304
0.000211242
0.000218946
0.000226573
0.000233819
0.000238886
0.000240824
0.000238714
0.000231887
0.000219978
0.000203232
)
;
    }
    heatsource1
    {
        type            compressible::alphatWallFunction;
        Prt             0.85;
        value           nonuniform List<scalar> 3(9.7926e-05 0.000118429 0.000133073);
    }
    heatsource2
    {
        type            compressible::alphatWallFunction;
        Prt             0.85;
        value           nonuniform List<scalar> 4(0.000186711 0.000116792 0.000116791 0.000192184);
    }
    Table_master
    {
        type            compressible::alphatWallFunction;
        Prt             0.85;
        value           nonuniform List<scalar> 9(0.000128822 0.000113684 0.00010123 9.09984e-05 8.25429e-05 7.5499e-05 6.95917e-05 6.46442e-05 6.05813e-05);
    }
    Table_slave
    {
        type            compressible::alphatWallFunction;
        Prt             0.85;
        value           nonuniform List<scalar> 9(0.000145863 0.000133274 0.000124159 0.000117157 0.000111172 0.000105595 0.000100206 9.45105e-05 8.78649e-05);
    }
    inlet
    {
        type            fixedValue;
        value           uniform 1.94e-05;
    }
    outlet
    {
        type            zeroGradient;
    }
}


// ************************************************************************* //
