// -*- C++ -*-
// File generated by PyFoam - sorry for the ugliness

FoamFile
{
 version 2.0;
 format ascii;
 class volScalarField;
 location "400";
 object T;
}

dimensions [ 0 0 0 1 0 0 0 ];

internalField nonuniform List<scalar> 459
(
  304.251
  303.944
  303.931
  303.933
  303.935
  303.936
  303.938
  303.938
  303.938
  303.935
  303.93
  303.92
  303.906
  303.887
  303.866
  303.43
  303.384
  303.362
  303.35
  303.346
  303.348
  303.357
  303.373
  303.396
  303.425
  303.456
  303.489
  303.524
  303.563
  303.609
  303.658
  303.676
  303.618
  303.541
  304.481
  304.044
  304.005
  304.009
  304.018
  304.026
  304.032
  304.036
  304.038
  304.035
  304.025
  304.006
  303.978
  303.937
  303.883
  303.824
  303.762
  303.441
  303.393
  303.362
  303.342
  303.335
  303.329
  303.329
  303.351
  303.385
  303.427
  303.476
  303.533
  303.601
  303.683
  303.779
  303.865
  303.87
  303.806
  303.68
  304.69
  304.156
  304.087
  304.092
  304.109
  304.125
  304.139
  304.149
  304.155
  304.154
  304.143
  304.118
  304.077
  304.016
  303.935
  303.844
  303.768
  303.469
  303.463
  303.467
  303.473
  303.483
  303.467
  303.332
  303.357
  303.402
  303.462
  303.537
  303.631
  303.748
  303.887
  304.043
  304.189
  304.247
  304.308
  304.372
  304.882
  304.285
  304.187
  304.184
  304.209
  304.236
  304.261
  304.282
  304.296
  304.302
  304.295
  304.269
  304.221
  304.148
  304.047
  303.923
  303.787
  303.677
  303.625
  303.714
  303.799
  303.864
  303.903
  303.937
  303.966
  303.984
  304.007
  304.035
  304.072
  304.121
  304.184
  304.261
  304.347
  304.427
  304.504
  304.576
  304.638
  305.062
  304.433
  304.321
  304.299
  304.322
  304.358
  304.396
  304.43
  304.458
  304.476
  304.479
  304.463
  304.423
  304.359
  304.272
  304.168
  304.06
  303.968
  303.912
  303.948
  304.004
  304.05
  304.085
  304.111
  304.132
  304.153
  304.178
  304.21
  304.251
  304.302
  304.364
  304.434
  304.508
  304.58
  304.647
  304.704
  304.74
  304.745
  304.672
  304.577
  305.224
  304.607
  304.518
  304.482
  304.479
  304.507
  304.55
  304.595
  304.636
  304.667
  304.683
  304.68
  304.655
  304.606
  304.535
  304.445
  304.35
  304.265
  304.206
  304.193
  304.21
  304.233
  304.254
  304.27
  304.284
  304.297
  304.315
  304.338
  304.369
  304.411
  304.464
  304.526
  304.595
  304.664
  304.728
  304.78
  304.812
  304.815
  304.759
  304.519
  305.376
  304.838
  304.825
  304.803
  304.759
  304.745
  304.767
  304.804
  304.844
  304.88
  304.904
  304.913
  304.902
  304.871
  304.818
  304.745
  304.663
  304.582
  304.518
  304.477
  304.46
  304.459
  304.46
  304.461
  304.462
  304.463
  304.467
  304.474
  304.488
  304.51
  304.543
  304.587
  304.642
  304.706
  304.771
  304.83
  304.874
  304.89
  304.866
  304.761
  305.588
  305.222
  305.326
  305.322
  305.231
  305.16
  305.13
  305.124
  305.131
  305.142
  305.159
  305.168
  305.166
  305.149
  305.115
  305.06
  304.992
  304.921
  304.854
  304.8
  304.761
  304.734
  304.714
  304.698
  304.683
  304.669
  304.657
  304.647
  304.64
  304.639
  304.647
  304.664
  304.693
  304.734
  304.787
  304.851
  304.918
  304.975
  305.02
  305.079
  305.877
  305.756
  306.172
  306.116
  305.896
  305.723
  305.618
  305.559
  305.529
  305.511
  305.497
  305.485
  305.474
  305.457
  305.43
  305.391
  305.339
  305.279
  305.216
  305.156
  305.103
  305.058
  305.019
  304.985
  304.953
  304.923
  304.895
  304.868
  304.843
  304.821
  304.805
  304.797
  304.798
  304.81
  304.832
  304.863
  304.896
  304.93
  304.969
  305.051
  309.532
  307.018
  306.318
  306.093
  305.99
  305.938
  305.91
  305.896
  305.886
  305.874
  305.856
  305.831
  305.8
  305.76
  305.712
  305.656
  305.596
  305.534
  305.474
  305.417
  305.363
  305.313
  305.265
  305.22
  305.176
  305.133
  305.092
  305.054
  305.019
  304.99
  304.969
  304.957
  304.954
  304.962
  304.975
  304.99
  305.002
  305.017
  308.92
  307.502
  307.018
  306.736
  306.578
  306.488
  306.431
  306.39
  306.355
  306.322
  306.287
  306.248
  306.204
  306.154
  306.099
  306.038
  305.974
  305.907
  305.84
  305.773
  305.708
  305.646
  305.585
  305.527
  305.471
  305.416
  305.363
  305.311
  305.263
  305.218
  305.179
  305.147
  305.123
  305.108
  305.1
  305.092
  305.066
  305.042
  308.896
  308.864
  308.827
  308.363
  307.961
  307.668
  307.468
  307.319
  307.199
  307.096
  307.002
  306.915
  306.832
  306.751
  306.672
  306.595
  306.52
  306.445
  306.371
  306.298
  306.226
  306.156
  306.087
  306.019
  305.951
  305.885
  305.819
  305.754
  305.69
  305.627
  305.566
  305.505
  305.447
  305.391
  305.339
  305.289
  305.241
  305.189
  305.085
  304.902
)
;

boundaryField
{
  floor
  {
    type wallHeatTransfer;
    Tinf uniform 305.2;
    alphaWall uniform 0.24;
    value nonuniform List<scalar> 29
(
  304.048
  303.917
  303.89
  303.899
  303.894
  303.889
  303.885
  303.881
  303.876
  303.873
  303.872
  303.873
  303.877
  303.883
  303.895
  303.914
  303.94
  303.954
  303.921
  303.891
  303.891
  303.958
  304.483
  304.701
  304.048
  303.917
  303.844
  303.786
  303.866
)
;
  }
  ceiling
  {
    type wallHeatTransfer;
    Tinf uniform 303.2;
    alphaWall uniform 0.24;
    value nonuniform List<scalar> 43
(
  308.438
  308.51
  308.65
  308.187
  307.772
  307.463
  307.246
  307.081
  306.946
  306.831
  306.728
  306.635
  306.548
  306.468
  306.392
  306.32
  306.25
  306.183
  306.116
  306.049
  305.983
  305.918
  305.854
  305.79
  305.727
  305.665
  305.604
  305.543
  305.483
  305.424
  305.366
  305.309
  305.254
  305.2
  305.149
  305.099
  305.05
  304.993
  304.893
  304.74
  305.759
  305.656
  308.788
)
;
  }
  sWall
  {
    type wallHeatTransfer;
    Tinf uniform 315.2;
    alphaWall uniform 0.36;
    value uniform 309.629;
  }
  nWall
  {
    type wallHeatTransfer;
    Tinf uniform 307.2;
    alphaWall uniform 0.36;
    value nonuniform List<scalar> 6
(
  305.022
  304.978
  305.107
  305.278
  305.299
  305.216
)
;
  }
  sideWalls
  {
    type empty;
  }
  glass1
  {
    type wallHeatTransfer;
    Tinf uniform 315.2;
    alphaWall uniform 4.3;
    value nonuniform List<scalar> 9
(
  312.544
  311.476
  310.83
  310.39
  310.089
  309.874
  309.741
  309.855
  310.115
)
;
  }
  glass2
  {
    type wallHeatTransfer;
    Tinf uniform 307.2;
    alphaWall uniform 4.3;
    value nonuniform List<scalar> 2
(
  306.377
  306.352
)
;
  }
  sun
  {
    type wallHeatTransfer;
    Tinf uniform 305.2;
    alphaWall uniform 0.24;
    value nonuniform List<scalar> 14
(
  304.389
  304.124
  304.136
  304.135
  304.131
  304.128
  304.124
  304.12
  304.115
  304.109
  304.1
  304.09
  304.077
  304.062
)
;
  }
  heatsource1
  {
    type fixedGradient;
    gradient uniform 0;
  }
  heatsource2
  {
    type fixedGradient;
    gradient uniform 0;
  }
  Table_master
  {
    type zeroGradient;
  }
  Table_slave
  {
    type zeroGradient;
  }
  inlet
  {
    type fixedValue;
    value uniform 293.15;
  }
  outlet
  {
    type zeroGradient;
  }
} 	// ************************************************************************* //

