// -*- C++ -*-
// File generated by PyFoam - sorry for the ugliness

FoamFile
{
 version 2.0;
 format ascii;
 class volVectorField;
 location "400";
 object U;
}

dimensions [ 0 1 -1 0 0 0 0 ];

internalField nonuniform List<vector> 459
(
  (0.0992177 0.0616531 0)
  (-0.128281 -0.00192452 0)
  (-0.0995371 -0.00100392 0)
  (-0.101574 0.000772333 0)
  (-0.104573 0.000977785 0)
  (-0.107462 0.00047109 0)
  (-0.109456 -0.000466097 0)
  (-0.109997 -0.00178422 0)
  (-0.108523 -0.00353141 0)
  (-0.104361 -0.00580947 0)
  (-0.0965879 -0.0086682 0)
  (-0.0839991 -0.0122053 0)
  (-0.0661158 -0.0167614 0)
  (-0.0472458 -0.0228459 0)
  (-0.0447363 -0.0287695 0)
  (0.010464 0.0176615 0)
  (-0.0369332 0.00239505 0)
  (-0.0356903 -0.0010862 0)
  (-0.0339821 -0.00282385 0)
  (-0.0306624 -0.00347316 0)
  (-0.0269436 -0.00350077 0)
  (-0.0229682 -0.00379919 0)
  (-0.0190446 -0.00370529 0)
  (-0.0157822 -0.00331618 0)
  (-0.0136299 -0.00305561 0)
  (-0.0123542 -0.00305625 0)
  (-0.011404 -0.00319759 0)
  (-0.0101265 -0.00324827 0)
  (-0.00805316 -0.0033342 0)
  (-0.00526358 -0.0045228 0)
  (-0.00180624 -0.00817837 0)
  (0.00586102 -0.0129383 0)
  (0.0169072 -0.0108527 0)
  (-0.0226065 0.0041536 0)
  (0.289542 0.135738 0)
  (-0.151456 0.00964041 0)
  (-0.0906106 0.00259216 0)
  (-0.0981199 0.00473631 0)
  (-0.10261 0.00510425 0)
  (-0.106238 0.00420002 0)
  (-0.108793 0.00242485 0)
  (-0.110022 -0.000139062 0)
  (-0.109524 -0.00356658 0)
  (-0.106916 -0.00800192 0)
  (-0.101558 -0.0135172 0)
  (-0.0926645 -0.0201404 0)
  (-0.0797621 -0.0280309 0)
  (-0.0636963 -0.0373285 0)
  (-0.0468149 -0.0464801 0)
  (-0.028773 -0.0508216 0)
  (0.0260861 0.00321217 0)
  (0.0629952 0.0376545 0)
  (-0.0299929 0.0109716 0)
  (-0.0234577 0.00224155 0)
  (-0.0256236 -0.00199602 0)
  (-0.02593 -0.00321938 0)
  (-0.0258023 -0.00270584 0)
  (-0.025363 -0.00304496 0)
  (-0.025528 -0.00223774 0)
  (-0.0250257 -0.000444009 0)
  (-0.0246278 0.00114409 0)
  (-0.0242118 0.00194808 0)
  (-0.0237826 0.00199141 0)
  (-0.0236119 0.00181221 0)
  (-0.0241047 0.00128456 0)
  (-0.0248431 -0.0011675 0)
  (-0.0234241 -0.00525208 0)
  (-0.0172551 -0.00488756 0)
  (-0.0222953 0.00301865 0)
  (-0.0835254 0.0172328 0)
  (0.443181 0.206523 0)
  (-0.191583 0.0323244 0)
  (-0.0747607 0.011787 0)
  (-0.0893654 0.0101531 0)
  (-0.0955365 0.00912488 0)
  (-0.0997078 0.00710229 0)
  (-0.102798 0.00415847 0)
  (-0.104898 0.000224118 0)
  (-0.105847 -0.00481142 0)
  (-0.105484 -0.011168 0)
  (-0.103596 -0.0190305 0)
  (-0.099869 -0.028408 0)
  (-0.0941762 -0.0391129 0)
  (-0.086791 -0.0502296 0)
  (-0.0784603 -0.0587815 0)
  (-0.0713847 -0.0593859 0)
  (-0.0718321 -0.0493997 0)
  (0.0686234 0.0596597 0)
  (-0.0413698 0.0211228 0)
  (-0.0306007 0.00840106 0)
  (-0.0322796 0.000902571 0)
  (-0.0338045 -0.00416815 0)
  (-0.0335144 -0.00826899 0)
  (-0.0230851 -0.00776754 0)
  (-0.0322438 -0.00858588 0)
  (-0.0358779 -0.00780902 0)
  (-0.0380883 -0.00745141 0)
  (-0.0394936 -0.00784235 0)
  (-0.0409629 -0.00887954 0)
  (-0.0433627 -0.0101845 0)
  (-0.0465259 -0.0116495 0)
  (-0.0475751 -0.0136163 0)
  (-0.0427126 -0.0130553 0)
  (-0.0319864 -0.0111028 0)
  (-0.0266625 -0.0126245 0)
  (-0.0683538 -0.0182527 0)
  (0.562985 0.263969 0)
  (-0.227691 0.0593889 0)
  (-0.0562976 0.0236468 0)
  (-0.0767576 0.0173565 0)
  (-0.0851062 0.0141313 0)
  (-0.0891216 0.0108193 0)
  (-0.0919689 0.00701791 0)
  (-0.0942007 0.00233306 0)
  (-0.0960354 -0.00348805 0)
  (-0.0974747 -0.0106211 0)
  (-0.098852 -0.0192436 0)
  (-0.100373 -0.0292675 0)
  (-0.102408 -0.040147 0)
  (-0.105508 -0.0503229 0)
  (-0.110691 -0.0563279 0)
  (-0.120558 -0.0518268 0)
  (-0.135837 -0.0261076 0)
  (-0.131744 0.032637 0)
  (-0.0765645 0.0443911 0)
  (-0.0936313 0.0236082 0)
  (-0.0856387 0.0105631 0)
  (-0.0909993 0.00225753 0)
  (-0.0954013 -0.00407263 0)
  (-0.0992211 -0.00829795 0)
  (-0.0984959 -0.00689794 0)
  (-0.0923347 -0.00667278 0)
  (-0.085812 -0.00711013 0)
  (-0.0790433 -0.00725894 0)
  (-0.0724708 -0.00711535 0)
  (-0.0664545 -0.00678983 0)
  (-0.0608302 -0.00663009 0)
  (-0.0550943 -0.00736378 0)
  (-0.0500619 -0.00976053 0)
  (-0.0482862 -0.0142875 0)
  (-0.0429269 -0.0180336 0)
  (-0.0359714 -0.027261 0)
  (-0.0522136 -0.0441092 0)
  (0.653375 0.310082 0)
  (-0.254443 0.0881258 0)
  (-0.0393112 0.035596 0)
  (-0.0587887 0.0253604 0)
  (-0.0701668 0.0190628 0)
  (-0.0739596 0.0138684 0)
  (-0.0756697 0.00917746 0)
  (-0.0767347 0.00420703 0)
  (-0.0778374 -0.00153705 0)
  (-0.0792969 -0.00827216 0)
  (-0.0817778 -0.0161117 0)
  (-0.0857046 -0.0249933 0)
  (-0.0914844 -0.0344248 0)
  (-0.0994135 -0.0432508 0)
  (-0.10962 -0.0495505 0)
  (-0.121615 -0.0505072 0)
  (-0.131963 -0.0414123 0)
  (-0.133735 -0.0166128 0)
  (-0.119583 0.0129704 0)
  (-0.106666 0.0177189 0)
  (-0.0968931 0.0114652 0)
  (-0.0940505 0.00501354 0)
  (-0.0933302 -0.00102456 0)
  (-0.0933703 -0.00522274 0)
  (-0.0923754 -0.00654844 0)
  (-0.0898352 -0.00775317 0)
  (-0.0867445 -0.00847537 0)
  (-0.0834719 -0.00861272 0)
  (-0.0802187 -0.00814399 0)
  (-0.0771031 -0.00722646 0)
  (-0.0740156 -0.00638496 0)
  (-0.0706638 -0.00677456 0)
  (-0.0669872 -0.0100909 0)
  (-0.0629593 -0.0173125 0)
  (-0.0574378 -0.0266929 0)
  (-0.0496364 -0.041728 0)
  (-0.0393581 -0.0618554 0)
  (-0.00687703 -0.0739123 0)
  (0.06719 -0.0525196 0)
  (-0.0603865 0.00583086 0)
  (0.707525 0.350131 0)
  (-0.273926 0.111397 0)
  (-0.0263037 0.038041 0)
  (-0.0297343 0.0322953 0)
  (-0.0440575 0.0259017 0)
  (-0.0507673 0.0167216 0)
  (-0.0522097 0.0099584 0)
  (-0.0519302 0.00454135 0)
  (-0.0513375 -0.00076499 0)
  (-0.0514999 -0.00640417 0)
  (-0.0532758 -0.0125571 0)
  (-0.0571686 -0.0193248 0)
  (-0.0634771 -0.026371 0)
  (-0.0721914 -0.0327719 0)
  (-0.0829153 -0.0369295 0)
  (-0.0944662 -0.0366124 0)
  (-0.10382 -0.0295249 0)
  (-0.106791 -0.0158383 0)
  (-0.101413 -0.000776865 0)
  (-0.0918119 0.00571808 0)
  (-0.0836849 0.00492591 0)
  (-0.0790419 0.00153082 0)
  (-0.0765969 -0.0026834 0)
  (-0.0757584 -0.00614823 0)
  (-0.0752478 -0.00822181 0)
  (-0.0745342 -0.00970251 0)
  (-0.0736852 -0.010635 0)
  (-0.0727679 -0.0109239 0)
  (-0.0718236 -0.0105553 0)
  (-0.0708961 -0.00971142 0)
  (-0.0700339 -0.008941 0)
  (-0.0693544 -0.00934251 0)
  (-0.0690921 -0.012474 0)
  (-0.0693274 -0.0196481 0)
  (-0.0698053 -0.0313808 0)
  (-0.0702464 -0.0488478 0)
  (-0.066607 -0.0690617 0)
  (-0.0475215 -0.0793155 0)
  (-0.0114933 -0.0528377 0)
  (-0.162371 0.0976203 0)
  (0.724182 0.386842 0)
  (-0.278115 0.101838 0)
  (-0.00367701 0.000421045 0)
  (0.024006 0.0299709 0)
  (0.00857481 0.0388063 0)
  (-0.00820403 0.0224226 0)
  (-0.0136597 0.00965659 0)
  (-0.0148247 0.0029868 0)
  (-0.0145558 -0.00186579 0)
  (-0.0144068 -0.00611933 0)
  (-0.0156178 -0.0101674 0)
  (-0.0189088 -0.0145068 0)
  (-0.0246721 -0.0191488 0)
  (-0.032841 -0.0236145 0)
  (-0.0427904 -0.026803 0)
  (-0.0532116 -0.027026 0)
  (-0.0617183 -0.0227848 0)
  (-0.0657053 -0.0146979 0)
  (-0.0641735 -0.00617577 0)
  (-0.0594797 -0.00160798 0)
  (-0.0544794 -0.000765748 0)
  (-0.0507965 -0.00201692 0)
  (-0.048851 -0.00428043 0)
  (-0.0482277 -0.00659811 0)
  (-0.0483105 -0.00844621 0)
  (-0.0486862 -0.00986872 0)
  (-0.0491932 -0.0107975 0)
  (-0.0497157 -0.0111141 0)
  (-0.0501679 -0.0107552 0)
  (-0.0505383 -0.00982004 0)
  (-0.0509812 -0.00871062 0)
  (-0.0519622 -0.00826585 0)
  (-0.0543502 -0.0097762 0)
  (-0.0593884 -0.0148073 0)
  (-0.0688424 -0.0249266 0)
  (-0.083858 -0.0408925 0)
  (-0.0984106 -0.0597906 0)
  (-0.101599 -0.0714947 0)
  (-0.120075 -0.0534276 0)
  (-0.257175 0.032182 0)
  (0.817937 0.401186 0)
  (-0.078212 0.0702643 0)
  (0.0846242 -0.065032 0)
  (0.132897 0.00112328 0)
  (0.0985066 0.0349004 0)
  (0.0652918 0.0261816 0)
  (0.0516384 0.0112457 0)
  (0.0450904 0.00231453 0)
  (0.0395194 -0.00281618 0)
  (0.0347237 -0.0062813 0)
  (0.0313095 -0.00868415 0)
  (0.0272922 -0.0106781 0)
  (0.0217692 -0.0128 0)
  (0.0144265 -0.0151955 0)
  (0.0055827 -0.0173763 0)
  (-0.00399836 -0.0182499 0)
  (-0.0119949 -0.0165468 0)
  (-0.0169188 -0.0124692 0)
  (-0.0181217 -0.00786308 0)
  (-0.0167615 -0.00495042 0)
  (-0.0146717 -0.0039358 0)
  (-0.0130214 -0.0041715 0)
  (-0.0122233 -0.00518548 0)
  (-0.0122934 -0.00651145 0)
  (-0.0130098 -0.00779301 0)
  (-0.0141388 -0.00889828 0)
  (-0.0155031 -0.00969527 0)
  (-0.0169185 -0.0100401 0)
  (-0.0181952 -0.00981562 0)
  (-0.0191797 -0.00899339 0)
  (-0.019844 -0.00771089 0)
  (-0.0204281 -0.00632719 0)
  (-0.0216023 -0.00542809 0)
  (-0.0247526 -0.00590673 0)
  (-0.0329623 -0.00935233 0)
  (-0.051251 -0.0184217 0)
  (-0.0783689 -0.0369441 0)
  (-0.104541 -0.0695006 0)
  (-0.157993 -0.116616 0)
  (-0.43282 -0.177556 0)
  (0.949976 0.374971 0)
  (0.449971 0.207581 0)
  (0.29339 0.121693 0)
  (0.312325 0.125898 0)
  (0.217961 0.111513 0)
  (0.151214 0.0774027 0)
  (0.125758 0.0466304 0)
  (0.113744 0.0260786 0)
  (0.103816 0.0132636 0)
  (0.0948802 0.00500785 0)
  (0.0868294 -0.000312165 0)
  (0.0796904 -0.00347788 0)
  (0.0728822 -0.0053261 0)
  (0.0657236 -0.00665756 0)
  (0.0580774 -0.00780928 0)
  (0.0502314 -0.00863238 0)
  (0.0430806 -0.00852745 0)
  (0.0376229 -0.0072331 0)
  (0.03441 -0.00536047 0)
  (0.0330129 -0.00389242 0)
  (0.0324681 -0.00316961 0)
  (0.0320474 -0.00307685 0)
  (0.0313906 -0.00344811 0)
  (0.0303556 -0.00409562 0)
  (0.0289308 -0.00483164 0)
  (0.0271726 -0.00555035 0)
  (0.0251808 -0.00614902 0)
  (0.0231052 -0.0065172 0)
  (0.0211429 -0.00655322 0)
  (0.0195209 -0.00619822 0)
  (0.0184581 -0.00548024 0)
  (0.0181194 -0.00453914 0)
  (0.0186135 -0.00359874 0)
  (0.0200573 -0.00292116 0)
  (0.0225142 -0.00277678 0)
  (0.0258163 -0.00302279 0)
  (0.0311357 -0.0022769 0)
  (0.0421486 -0.00374167 0)
  (0.0799595 -0.0523365 0)
  (-0.279848 -0.178405 0)
  (-1.4163 0.0851748 0)
  (0.102488 0.146371 0)
  (0.0652319 0.102843 0)
  (0.0747612 0.0688426 0)
  (0.0995383 0.044248 0)
  (0.115974 0.028672 0)
  (0.121845 0.0200369 0)
  (0.122782 0.0159471 0)
  (0.122023 0.0146211 0)
  (0.120302 0.0146938 0)
  (0.117639 0.0150838 0)
  (0.114186 0.015096 0)
  (0.109981 0.0142988 0)
  (0.105081 0.0127903 0)
  (0.0998016 0.0111171 0)
  (0.0947293 0.00977153 0)
  (0.0904217 0.00881755 0)
  (0.0870324 0.00798706 0)
  (0.0843353 0.00709009 0)
  (0.0820309 0.00608901 0)
  (0.0798927 0.00499716 0)
  (0.0777698 0.0038518 0)
  (0.0755392 0.00273395 0)
  (0.073139 0.00166319 0)
  (0.0705827 0.000674784 0)
  (0.0679405 -0.000188086 0)
  (0.0653389 -0.000889689 0)
  (0.0629609 -0.00143017 0)
  (0.0610319 -0.0018884 0)
  (0.0597971 -0.00247153 0)
  (0.0595083 -0.00355911 0)
  (0.0604413 -0.00574766 0)
  (0.0629015 -0.00987311 0)
  (0.0671555 -0.016734 0)
  (0.0735397 -0.0262881 0)
  (0.0803615 -0.0386871 0)
  (0.102613 -0.0685351 0)
  (-0.0453413 -0.130211 0)
  (-0.624475 0.0973628 0)
  (0.222623 0.0590243 0)
  (0.0947856 0.0199823 0)
  (0.0889387 0.00396692 0)
  (0.116891 -0.0126097 0)
  (0.139327 -0.0289785 0)
  (0.150833 -0.0435857 0)
  (0.15594 -0.0563966 0)
  (0.15801 -0.0672066 0)
  (0.158317 -0.0755731 0)
  (0.157313 -0.081258 0)
  (0.155313 -0.0843521 0)
  (0.152527 -0.0851271 0)
  (0.149086 -0.0840433 0)
  (0.145193 -0.0816618 0)
  (0.14119 -0.0785728 0)
  (0.137447 -0.0753559 0)
  (0.134153 -0.0724664 0)
  (0.13127 -0.0701234 0)
  (0.128643 -0.0683457 0)
  (0.126109 -0.067054 0)
  (0.123534 -0.0661069 0)
  (0.120901 -0.0650715 0)
  (0.118148 -0.0640316 0)
  (0.115271 -0.062996 0)
  (0.112293 -0.0619622 0)
  (0.109273 -0.060938 0)
  (0.106308 -0.0599592 0)
  (0.103519 -0.0591055 0)
  (0.101018 -0.0585135 0)
  (0.0988628 -0.0583817 0)
  (0.0970058 -0.058964 0)
  (0.0952637 -0.0605411 0)
  (0.0933653 -0.0633088 0)
  (0.0913344 -0.0669953 0)
  (0.0869362 -0.0699049 0)
  (0.115463 -0.078455 0)
  (-0.0323569 -0.105097 0)
  (0.56795 0.193326 0)
  (0.24043 -0.19864 0)
  (-0.227486 0.169365 0)
  (0.194793 0.10935 0)
  (0.189239 0.109015 0)
  (0.161726 0.124622 0)
  (0.165959 0.141564 0)
  (0.175899 0.160499 0)
  (0.180208 0.180589 0)
  (0.180344 0.200211 0)
  (0.179347 0.217878 0)
  (0.178531 0.232317 0)
  (0.178165 0.242643 0)
  (0.178264 0.248528 0)
  (0.178773 0.25016 0)
  (0.179572 0.248168 0)
  (0.180498 0.24346 0)
  (0.181396 0.237053 0)
  (0.182136 0.229938 0)
  (0.182596 0.222938 0)
  (0.182648 0.216597 0)
  (0.1822 0.211165 0)
  (0.181213 0.206672 0)
  (0.17971 0.202992 0)
  (0.177696 0.199514 0)
  (0.175303 0.196279 0)
  (0.172596 0.19326 0)
  (0.169618 0.190404 0)
  (0.166387 0.187665 0)
  (0.162887 0.185009 0)
  (0.15904 0.182431 0)
  (0.15466 0.17994 0)
  (0.149394 0.177543 0)
  (0.142633 0.175196 0)
  (0.133407 0.172744 0)
  (0.120197 0.169829 0)
  (0.100623 0.165466 0)
  (0.0707164 0.156253 0)
  (0.1328 0.141795 0)
  (-0.420239 0.257793 0)
)
;

boundaryField
{
  floor
  {
    type noSlip;
  }
  ceiling
  {
    type noSlip;
  }
  sWall
  {
    type noSlip;
  }
  nWall
  {
    type noSlip;
  }
  sideWalls
  {
    type empty;
  }
  glass1
  {
    type noSlip;
  }
  glass2
  {
    type noSlip;
  }
  sun
  {
    type noSlip;
  }
  heatsource1
  {
    type noSlip;
  }
  heatsource2
  {
    type noSlip;
  }
  Table_master
  {
    type noSlip;
  }
  Table_slave
  {
    type noSlip;
  }
  inlet
  {
    type fixedValue;
    value uniform (0.0382683 -0.092388 0);
  }
  outlet
  {
    type zeroGradient;
  }
} 	// ************************************************************************* //

