/*--------------------------------*- C++ -*----------------------------------*\
  =========                 |
  \\      /  F ield         | OpenFOAM: The Open Source CFD Toolbox
   \\    /   O peration     | Website:  https://openfoam.org
    \\  /    A nd           | Version:  6
     \\/     M anipulation  |
\*---------------------------------------------------------------------------*/
FoamFile
{
    version     2.0;
    format      ascii;
    class       volScalarField;
    location    "300";
    object      alphat;
}
// * * * * * * * * * * * * * * * * * * * * * * * * * * * * * * * * * * * * * //

dimensions      [1 -1 -1 0 0 0 0];

internalField   nonuniform List<scalar> 
459
(
0.00151565
0.00168761
0.0017605
0.0018653
0.00197368
0.00208368
0.00216705
0.00220985
0.00220265
0.00208022
0.00193958
0.00178728
0.00160916
0.00145022
0.00127636
0.000579997
0.00067357
0.000764287
0.000855157
0.000903812
0.0008935
0.000806194
0.00071985
0.000646575
0.000584389
0.00052981
0.000481035
0.000435287
0.000389635
0.000342366
0.000294167
0.000267855
0.000370015
0.000346503
0.0019329
0.00511368
0.00517024
0.00603411
0.00683258
0.00741469
0.00792198
0.00833427
0.00864361
0.00870219
0.0083656
0.0078021
0.00700148
0.00547149
0.00356563
0.00147365
0.00123586
0.000570372
0.00117663
0.00193723
0.00269649
0.00324594
0.00327074
0.00203673
0.00157129
0.00128391
0.0010959
0.000972842
0.000868186
0.000761602
0.00066232
0.000584375
0.000548738
0.000600666
0.0010018
0.000421896
0.00227549
0.00701047
0.00647333
0.00726193
0.00768171
0.0079898
0.00831024
0.00874336
0.0092954
0.00970542
0.00976415
0.00953864
0.00904338
0.00797236
0.00625097
0.00390201
0.00139915
0.000596037
0.00105487
0.00180331
0.00278585
0.00369894
0.00384805
0.0011139
0.000929738
0.000771593
0.000642477
0.000542728
0.000473201
0.000428417
0.000398822
0.000379408
0.000429677
0.00053468
0.000829967
0.000507226
0.00260115
0.00865645
0.00687987
0.00755535
0.00762539
0.00765312
0.00777415
0.00821347
0.00890819
0.00948617
0.00978579
0.00979338
0.00955984
0.00897041
0.00782202
0.00593808
0.00306171
0.00148712
0.0013375
0.00159748
0.00240243
0.00359554
0.00472964
0.00492498
0.00133764
0.0012347
0.00115216
0.00108445
0.00102435
0.000966784
0.000908505
0.000846835
0.00077725
0.000643207
0.00058309
0.000799609
0.00052496
0.00293342
0.0106713
0.00779215
0.00805761
0.00785635
0.00753809
0.00747812
0.00792849
0.00865723
0.00932538
0.00970435
0.00977081
0.00961866
0.00927301
0.00860363
0.00741064
0.00553289
0.00430158
0.00418437
0.0047007
0.00560876
0.00659995
0.0073775
0.00766242
0.00682125
0.00624612
0.00583213
0.0053796
0.00487229
0.00432683
0.00374407
0.00311461
0.00243628
0.00176103
0.00128433
0.001087
0.000837706
0.000582076
0.000652173
0.000806097
0.00328432
0.012898
0.0101707
0.00930033
0.00837193
0.0076057
0.00743487
0.00790877
0.00871701
0.00945005
0.00984794
0.00989948
0.0097627
0.00958559
0.00931574
0.00877224
0.00790344
0.00743607
0.00778964
0.00855558
0.0092703
0.00979254
0.0100385
0.0099776
0.00958005
0.00907422
0.0084653
0.00777909
0.00703815
0.00626002
0.00545226
0.00461649
0.00376489
0.00295323
0.00231372
0.00187503
0.00158117
0.00133666
0.00141838
0.00082036
0.00357066
0.0142576
0.0129535
0.010596
0.00864522
0.00754349
0.00743605
0.00808905
0.00906004
0.0098713
0.0102748
0.010336
0.010343
0.0105002
0.0105855
0.010489
0.0103046
0.0104498
0.0109814
0.0115642
0.0118765
0.0119212
0.0117232
0.0113287
0.010785
0.0101353
0.00940809
0.00861966
0.00778487
0.00691801
0.00603086
0.00514359
0.00430597
0.00359898
0.00308843
0.00278926
0.00263422
0.00249963
0.00248487
0.00108898
0.00361473
0.0117276
0.0108856
0.00886271
0.00736126
0.00689966
0.00740011
0.00851702
0.00973368
0.0105761
0.0109578
0.0111581
0.0116974
0.0119646
0.0120755
0.0121351
0.0122349
0.012507
0.0128496
0.0130533
0.0129869
0.012649
0.0121117
0.0114418
0.0107
0.00992833
0.00912624
0.00828119
0.00738196
0.00641805
0.0053914
0.00436277
0.00349062
0.00292468
0.0026307
0.00248392
0.00236322
0.00225369
0.00213378
0.00113254
0.00351053
0.00411564
0.00439538
0.00446508
0.00495507
0.00617471
0.00787873
0.00960383
0.0108464
0.0113699
0.0118951
0.0122543
0.0125564
0.0126571
0.0126992
0.0127833
0.0129109
0.0130305
0.0130372
0.0128362
0.0123982
0.0117613
0.0109992
0.0101831
0.00936377
0.00855681
0.00774563
0.00690332
0.00600653
0.00504961
0.00408496
0.00325552
0.00269351
0.00237899
0.00219727
0.00205365
0.00190392
0.00175657
0.0015991
0.00128493
0.00139657
0.0032443
0.0070356
0.00973995
0.0113208
0.0120566
0.0121187
0.0118097
0.0118324
0.0118754
0.0118248
0.011769
0.0117762
0.0118193
0.0118201
0.0116902
0.0113747
0.0108673
0.0102087
0.00946801
0.00871412
0.00799168
0.00731481
0.00667321
0.00604884
0.00543118
0.00482315
0.00424128
0.00371262
0.00326564
0.00291696
0.00266599
0.00249817
0.00238379
0.0022973
0.00222694
0.00202226
0.00134429
0.00216842
0.00788754
0.0106029
0.0115819
0.0114043
0.0107478
0.0100749
0.00954761
0.00916786
0.00888485
0.00871769
0.00866048
0.00866707
0.00867902
0.00863765
0.00849703
0.00824363
0.00789825
0.00750146
0.00709511
0.0067079
0.0063509
0.00602191
0.00571282
0.00541576
0.00512585
0.00484093
0.00456009
0.00428201
0.00400433
0.0037252
0.00344686
0.00317579
0.00290844
0.00263219
0.00268672
0.00282653
0.0014768
0.00203987
0.00217078
0.00226579
0.00248961
0.00236188
0.0022456
0.00210317
0.00195241
0.00181892
0.00172633
0.00167168
0.0016438
0.00163297
0.00163111
0.00163193
0.00163043
0.00162299
0.00160792
0.00158603
0.00155974
0.00153193
0.00150487
0.00147976
0.00145668
0.00143497
0.00141374
0.0013922
0.00136986
0.00134665
0.00132283
0.00129902
0.00127614
0.00125534
0.00123751
0.00122167
0.00120171
0.0011737
0.00114736
0.00116901
0.00131277
)
;

boundaryField
{
    floor
    {
        type            compressible::alphatWallFunction;
        Prt             0.85;
        value           nonuniform List<scalar> 
29
(
0.000180674
8.14338e-05
9.53668e-05
0.000108649
0.000121768
0.000128722
0.000127252
0.000114712
0.000102152
9.13517e-05
8.2068e-05
7.38184e-05
6.63564e-05
5.92688e-05
5.20994e-05
4.45611e-05
3.67357e-05
3.2415e-05
4.90666e-05
4.52788e-05
4.52782e-05
5.72255e-05
7.04218e-05
7.31224e-05
0.000180672
8.14329e-05
7.9987e-05
8.38412e-05
0.000209288
)
;
    }
    ceiling
    {
        type            compressible::alphatWallFunction;
        Prt             0.85;
        value           nonuniform List<scalar> 
43
(
0.000282293
0.00029925
0.000311491
0.000340265
0.000324026
0.00030913
0.000290753
0.000271147
0.000253649
0.000241429
0.000234183
0.000230478
0.000229038
0.000228794
0.000228905
0.000228709
0.000227721
0.000225714
0.000222792
0.000219278
0.000215551
0.000211918
0.000208539
0.000205427
0.000202496
0.000199623
0.000196702
0.000193669
0.00019051
0.000187263
0.00018401
0.000180878
0.000178026
0.000175577
0.000173396
0.000170645
0.000166782
0.000163146
0.000166162
0.000185918
0.000467858
0.000541525
0.000298644
)
;
    }
    sWall
    {
        type            compressible::alphatWallFunction;
        Prt             0.85;
        value           uniform 0.00028113;
    }
    nWall
    {
        type            compressible::alphatWallFunction;
        Prt             0.85;
        value           nonuniform List<scalar> 6(0.00011456 0.000116605 0.000154693 0.000189918 0.000207887 0.00018564);
    }
    sideWalls
    {
        type            empty;
    }
    glass1
    {
        type            compressible::alphatWallFunction;
        Prt             0.85;
        value           nonuniform List<scalar> 9(0.000208251 0.000262849 0.000306817 0.00034803 0.000389573 0.000432954 0.000468052 0.000473562 0.000461091);
    }
    glass2
    {
        type            compressible::alphatWallFunction;
        Prt             0.85;
        value           nonuniform List<scalar> 2(0.000160031 0.000181206);
    }
    sun
    {
        type            compressible::alphatWallFunction;
        Prt             0.85;
        value           nonuniform List<scalar> 
14
(
0.000213122
0.000236064
0.000245716
0.000259517
0.0002737
0.00028801
0.000298799
0.000304322
0.000303394
0.000287562
0.000269251
0.000249256
0.000225632
0.000204306
)
;
    }
    heatsource1
    {
        type            compressible::alphatWallFunction;
        Prt             0.85;
        value           nonuniform List<scalar> 3(8.18094e-05 9.22652e-05 0.000114774);
    }
    heatsource2
    {
        type            compressible::alphatWallFunction;
        Prt             0.85;
        value           nonuniform List<scalar> 4(0.000207584 0.000175231 0.000175229 0.000197514);
    }
    Table_master
    {
        type            compressible::alphatWallFunction;
        Prt             0.85;
        value           nonuniform List<scalar> 9(0.00015835 0.000132466 0.000109757 9.08033e-05 7.58457e-05 6.52226e-05 5.82759e-05 5.36337e-05 5.05646e-05);
    }
    Table_slave
    {
        type            compressible::alphatWallFunction;
        Prt             0.85;
        value           nonuniform List<scalar> 9(0.000189147 0.000175066 0.000163677 0.000154264 0.000145852 0.00013774 0.00012947 0.00012065 0.000110606);
    }
    inlet
    {
        type            fixedValue;
        value           uniform 1.94e-05;
    }
    outlet
    {
        type            zeroGradient;
    }
}


// ************************************************************************* //
