// -*- C++ -*-
// File generated by PyFoam - sorry for the ugliness

FoamFile
{
 version 2.0;
 format ascii;
 class volVectorField;
 location "300";
 object U;
}

dimensions [ 0 1 -1 0 0 0 0 ];

internalField nonuniform List<vector> 459
(
  (0.00477242 0.0920188 0)
  (-0.184914 0.029687 0)
  (-0.220066 0.0122602 0)
  (-0.244933 -0.00144526 0)
  (-0.247272 -0.0158343 0)
  (-0.224558 -0.0314916 0)
  (-0.179442 -0.0470815 0)
  (-0.11893 -0.0589384 0)
  (-0.0549327 -0.0639915 0)
  (0.0213137 -0.0515718 0)
  (0.0648364 -0.0356289 0)
  (0.0947642 -0.0206941 0)
  (0.107517 -0.00576626 0)
  (0.0969515 0.0146295 0)
  (0.076341 0.0557718 0)
  (-0.0296396 0.0197478 0)
  (-0.0525522 -0.000541252 0)
  (-0.0496939 -0.0133593 0)
  (-0.0308207 -0.0221364 0)
  (-0.00986757 -0.0247949 0)
  (0.0193664 -0.0212754 0)
  (0.0349239 -0.0129057 0)
  (0.0478317 -0.00813829 0)
  (0.0563853 -0.00592408 0)
  (0.0613814 -0.00437669 0)
  (0.0638946 -0.00274293 0)
  (0.0638661 -0.000865419 0)
  (0.0611677 0.00121951 0)
  (0.0558502 0.00345677 0)
  (0.0478149 0.00605523 0)
  (0.0364744 0.00897091 0)
  (0.0232739 0.00575111 0)
  (0.0266592 8.9395e-05 0)
  (-0.0285504 0.0079859 0)
  (0.165766 0.190281 0)
  (-0.161278 0.0854732 0)
  (-0.173874 0.054013 0)
  (-0.200046 0.0249457 0)
  (-0.203832 -0.008405 0)
  (-0.183408 -0.0451083 0)
  (-0.142918 -0.0781448 0)
  (-0.0906276 -0.0987874 0)
  (-0.0368715 -0.102868 0)
  (0.0170654 -0.0843825 0)
  (0.0549502 -0.057677 0)
  (0.0819925 -0.0303529 0)
  (0.09749 -0.00198165 0)
  (0.104002 0.0283838 0)
  (0.10629 0.0660836 0)
  (0.103589 0.06383 0)
  (0.067709 0.0621708 0)
  (0.00694104 0.0451451 0)
  (-0.0217006 0.0120017 0)
  (0.00207966 -0.0205293 0)
  (0.0177322 -0.0343029 0)
  (0.0300894 -0.035684 0)
  (0.0426556 -0.0311353 0)
  (0.047433 -0.0178887 0)
  (0.0493947 -0.0088614 0)
  (0.0504866 -0.00493744 0)
  (0.0514448 -0.002444 0)
  (0.0523003 0.000392406 0)
  (0.0528164 0.00350611 0)
  (0.0528381 0.0064123 0)
  (0.0526639 0.00917551 0)
  (0.0518788 0.0126618 0)
  (0.0472273 0.0196828 0)
  (0.0380847 0.022848 0)
  (0.0187652 0.017012 0)
  (-0.0868976 0.0105135 0)
  (0.314271 0.283196 0)
  (-0.164048 0.13122 0)
  (-0.130075 0.0846725 0)
  (-0.15564 0.0365954 0)
  (-0.158688 -0.0179884 0)
  (-0.136847 -0.0760162 0)
  (-0.0982676 -0.124807 0)
  (-0.0535785 -0.150188 0)
  (-0.0103733 -0.148844 0)
  (0.0279407 -0.122562 0)
  (0.0572623 -0.0872431 0)
  (0.0790429 -0.0501617 0)
  (0.0927518 -0.0134129 0)
  (0.100341 0.0231395 0)
  (0.10345 0.0578237 0)
  (0.0957171 0.073008 0)
  (0.0767456 0.108361 0)
  (0.0523682 0.0259522 0)
  (0.0408653 -0.0147891 0)
  (0.0578185 -0.0365941 0)
  (0.0654226 -0.0452248 0)
  (0.0691712 -0.0445644 0)
  (0.0735233 -0.0404376 0)
  (0.0676282 -0.0324537 0)
  (0.0528256 -0.0215799 0)
  (0.0415815 -0.0152008 0)
  (0.0357487 -0.0111553 0)
  (0.0330717 -0.00788607 0)
  (0.0332215 -0.00458036 0)
  (0.0362345 -0.0013737 0)
  (0.0420779 0.00162397 0)
  (0.0516304 0.00651006 0)
  (0.054952 0.0247914 0)
  (0.0481213 0.0347221 0)
  (0.0417786 0.034837 0)
  (-0.0393888 0.0317167 0)
  (0.450699 0.357058 0)
  (-0.185335 0.169598 0)
  (-0.0862529 0.112109 0)
  (-0.109481 0.0486437 0)
  (-0.106584 -0.0263356 0)
  (-0.0786522 -0.106329 0)
  (-0.0420959 -0.167249 0)
  (-0.00725051 -0.19269 0)
  (0.0233367 -0.184363 0)
  (0.0474327 -0.152736 0)
  (0.0669275 -0.110184 0)
  (0.0809948 -0.0655024 0)
  (0.090073 -0.0228007 0)
  (0.0962168 0.0170524 0)
  (0.102466 0.0530633 0)
  (0.111693 0.0804562 0)
  (0.127068 0.116181 0)
  (0.154825 0.0955137 0)
  (0.125804 0.0400077 0)
  (0.12108 0.00174905 0)
  (0.116629 -0.0256703 0)
  (0.10869 -0.038949 0)
  (0.099473 -0.0404009 0)
  (0.0902485 -0.034266 0)
  (0.0889847 -0.0204488 0)
  (0.0968178 -0.0122626 0)
  (0.101623 -0.00762355 0)
  (0.101394 -0.00462467 0)
  (0.0982307 -0.00237538 0)
  (0.0934296 -0.000511176 0)
  (0.0870559 0.00130367 0)
  (0.0783172 0.00360622 0)
  (0.0655402 0.00719155 0)
  (0.0545742 0.0276386 0)
  (0.0500392 0.0426033 0)
  (0.0506004 0.0504805 0)
  (-0.0311927 0.0592639 0)
  (0.571504 0.412845 0)
  (-0.217521 0.198505 0)
  (-0.0448022 0.128516 0)
  (-0.0611943 0.054667 0)
  (-0.0413007 -0.0403297 0)
  (-0.00577698 -0.138374 0)
  (0.0250008 -0.201691 0)
  (0.0457799 -0.219826 0)
  (0.0607619 -0.205777 0)
  (0.0711062 -0.169453 0)
  (0.0778466 -0.122014 0)
  (0.0814585 -0.072949 0)
  (0.0833121 -0.0277521 0)
  (0.0855736 0.0120445 0)
  (0.0908735 0.0455516 0)
  (0.101461 0.069195 0)
  (0.118901 0.0811603 0)
  (0.133253 0.0462775 0)
  (0.132115 0.0155678 0)
  (0.130236 -0.00855958 0)
  (0.122828 -0.0241023 0)
  (0.111476 -0.0310269 0)
  (0.0989333 -0.0303833 0)
  (0.0874646 -0.0236812 0)
  (0.0807954 -0.0109157 0)
  (0.0782914 -0.0023444 0)
  (0.0752681 0.00238015 0)
  (0.071091 0.00520648 0)
  (0.0665225 0.0072424 0)
  (0.0620422 0.00903183 0)
  (0.0577029 0.0111124 0)
  (0.0534113 0.0142556 0)
  (0.0490461 0.0197794 0)
  (0.0470905 0.0330064 0)
  (0.0488837 0.0464706 0)
  (0.0612403 0.0581699 0)
  (0.0381978 0.0686139 0)
  (0.0768172 0.0579161 0)
  (0.0282192 0.0203425 0)
  (-0.287294 -0.0299312 0)
  (0.665856 0.45665 0)
  (-0.252837 0.214715 0)
  (-0.0102725 0.123805 0)
  (-0.00581002 0.0432595 0)
  (0.044162 -0.0776668 0)
  (0.0772415 -0.169284 0)
  (0.0960142 -0.22041 0)
  (0.102238 -0.231367 0)
  (0.100014 -0.211128 0)
  (0.0928963 -0.170573 0)
  (0.0835447 -0.120152 0)
  (0.0739486 -0.0697006 0)
  (0.0661581 -0.025232 0)
  (0.061641 0.0113037 0)
  (0.0634659 0.0389106 0)
  (0.0718075 0.0555444 0)
  (0.0865312 0.0586582 0)
  (0.0990793 0.0380081 0)
  (0.10331 0.0167374 0)
  (0.101252 -0.00064059 0)
  (0.0940788 -0.0124997 0)
  (0.0835538 -0.0180815 0)
  (0.0718942 -0.0178472 0)
  (0.0608792 -0.0129867 0)
  (0.0523257 -0.00481716 0)
  (0.0461124 0.00190959 0)
  (0.0415842 0.00601034 0)
  (0.0377051 0.0084095 0)
  (0.0343712 0.00999689 0)
  (0.0317708 0.0113059 0)
  (0.0301145 0.0128514 0)
  (0.0297395 0.015357 0)
  (0.0310891 0.0199226 0)
  (0.0359364 0.0287856 0)
  (0.0449498 0.0394866 0)
  (0.0625511 0.0503938 0)
  (0.071265 0.0547121 0)
  (0.0962563 0.0503568 0)
  (0.110425 0.0536705 0)
  (-0.060176 0.047628 0)
  (0.743263 0.49505 0)
  (-0.269062 0.193881 0)
  (0.0358509 0.0554802 0)
  (0.0941343 -0.0293214 0)
  (0.144913 -0.124825 0)
  (0.168627 -0.194773 0)
  (0.171352 -0.227546 0)
  (0.157432 -0.225042 0)
  (0.13273 -0.19657 0)
  (0.103831 -0.152609 0)
  (0.0755287 -0.101757 0)
  (0.0513086 -0.0534319 0)
  (0.0334873 -0.0133325 0)
  (0.0231856 0.0162185 0)
  (0.0239947 0.0352554 0)
  (0.0320319 0.045261 0)
  (0.0449363 0.0453362 0)
  (0.0554703 0.0323691 0)
  (0.0595949 0.016715 0)
  (0.0576539 0.00376449 0)
  (0.0520259 -0.00464697 0)
  (0.0431763 -0.00814861 0)
  (0.0331666 -0.00739049 0)
  (0.0235081 -0.00344035 0)
  (0.0152999 0.00228023 0)
  (0.0100707 0.00693007 0)
  (0.00673319 0.00972509 0)
  (0.00434881 0.011213 0)
  (0.00271059 0.0119327 0)
  (0.00191566 0.0121976 0)
  (0.00224764 0.0123089 0)
  (0.00418961 0.012724 0)
  (0.00838227 0.0141625 0)
  (0.0162939 0.0177197 0)
  (0.0285133 0.0219741 0)
  (0.0474387 0.0242378 0)
  (0.0686593 0.0164084 0)
  (0.0965199 0.00392074 0)
  (0.123264 0.0277624 0)
  (-0.0412322 0.104991 0)
  (0.854294 0.481449 0)
  (-0.0152633 0.16536 0)
  (0.13609 -0.0382635 0)
  (0.249963 -0.122312 0)
  (0.281093 -0.171927 0)
  (0.272964 -0.202697 0)
  (0.243006 -0.209385 0)
  (0.197457 -0.191793 0)
  (0.143442 -0.156662 0)
  (0.0897242 -0.112644 0)
  (0.0422742 -0.0655053 0)
  (0.00641425 -0.0241971 0)
  (-0.0166934 0.00547974 0)
  (-0.0228138 0.0210749 0)
  (-0.0201261 0.0306049 0)
  (-0.0119402 0.0354542 0)
  (-0.000806848 0.0344062 0)
  (0.00782083 0.0259617 0)
  (0.0111161 0.0157651 0)
  (0.00948707 0.00736716 0)
  (0.00440124 0.00219802 0)
  (-0.00261013 0.000425586 0)
  (-0.0103516 0.00151437 0)
  (-0.0172438 0.00430731 0)
  (-0.0219941 0.00752861 0)
  (-0.0248542 0.0100688 0)
  (-0.0264891 0.0116167 0)
  (-0.0274668 0.0123229 0)
  (-0.028062 0.0123538 0)
  (-0.0284144 0.0118205 0)
  (-0.0286789 0.0108801 0)
  (-0.0292416 0.00990447 0)
  (-0.0308835 0.00979711 0)
  (-0.03443 0.0121584 0)
  (-0.0416096 0.0178421 0)
  (-0.0537893 0.0270168 0)
  (-0.0691944 0.0416384 0)
  (-0.0836334 0.0704713 0)
  (-0.139366 0.115922 0)
  (-0.424342 0.164777 0)
  (1.01219 0.420612 0)
  (0.485111 0.275296 0)
  (0.501748 0.153096 0)
  (0.501206 0.0258669 0)
  (0.44163 -0.068616 0)
  (0.35858 -0.121082 0)
  (0.271447 -0.135311 0)
  (0.184396 -0.120679 0)
  (0.10129 -0.0893234 0)
  (0.029098 -0.052045 0)
  (-0.0292985 -0.0140074 0)
  (-0.0569199 0.00560882 0)
  (-0.0676014 0.0154072 0)
  (-0.0682547 0.0210189 0)
  (-0.0638019 0.0249211 0)
  (-0.056188 0.0268132 0)
  (-0.0475362 0.0257357 0)
  (-0.0410044 0.0213098 0)
  (-0.0382285 0.0158447 0)
  (-0.0389633 0.0112225 0)
  (-0.0421363 0.00834472 0)
  (-0.0464242 0.00735122 0)
  (-0.0506613 0.007812 0)
  (-0.0539951 0.00907584 0)
  (-0.056039 0.0105765 0)
  (-0.0569816 0.0118471 0)
  (-0.05728 0.0126982 0)
  (-0.057421 0.0131596 0)
  (-0.0578626 0.0133493 0)
  (-0.0591247 0.0134864 0)
  (-0.0618776 0.0140178 0)
  (-0.0668872 0.0157787 0)
  (-0.0747133 0.0199056 0)
  (-0.0858162 0.0272213 0)
  (-0.101597 0.0372884 0)
  (-0.12335 0.0473639 0)
  (-0.148922 0.0507978 0)
  (-0.179237 0.0374725 0)
  (-0.247131 -0.00314537 0)
  (-0.419839 -0.0774722 0)
  (-0.0414207 0.017978 0)
  (0.122398 -0.0599199 0)
  (0.168172 -0.104031 0)
  (0.124866 -0.0967715 0)
  (0.0678323 -0.0718945 0)
  (0.00420214 -0.0388174 0)
  (-0.0538525 -0.00874365 0)
  (-0.0915998 0.00803743 0)
  (-0.110625 0.0158863 0)
  (-0.115693 0.017962 0)
  (-0.115503 0.0192149 0)
  (-0.111939 0.0203686 0)
  (-0.106322 0.0216368 0)
  (-0.0995109 0.0224272 0)
  (-0.0927118 0.0220788 0)
  (-0.0874814 0.020411 0)
  (-0.0846025 0.0183042 0)
  (-0.0838597 0.0165774 0)
  (-0.0845307 0.015677 0)
  (-0.0857573 0.0157066 0)
  (-0.0868205 0.0164963 0)
  (-0.0872881 0.017752 0)
  (-0.0870272 0.0192259 0)
  (-0.0861481 0.0207341 0)
  (-0.0848756 0.022185 0)
  (-0.0834398 0.0235716 0)
  (-0.0820392 0.0249347 0)
  (-0.0808447 0.0263662 0)
  (-0.0799806 0.0280652 0)
  (-0.0794331 0.0304955 0)
  (-0.0788879 0.0346264 0)
  (-0.0776947 0.0419486 0)
  (-0.0752875 0.0538675 0)
  (-0.0713603 0.0704346 0)
  (-0.0640477 0.0869897 0)
  (-0.0528175 0.0909654 0)
  (0.0103775 0.0384961 0)
  (-0.0866646 -0.155126 0)
  (0.132218 0.138804 0)
  (0.0375409 0.00794716 0)
  (-0.00679059 -0.0464295 0)
  (-0.0673938 -0.0410008 0)
  (-0.115512 -0.0277863 0)
  (-0.147811 -0.0190733 0)
  (-0.163772 -0.015909 0)
  (-0.167982 -0.0161592 0)
  (-0.167124 -0.0176474 0)
  (-0.163465 -0.0199931 0)
  (-0.158731 -0.0215218 0)
  (-0.153142 -0.0221589 0)
  (-0.14683 -0.0222771 0)
  (-0.140035 -0.022619 0)
  (-0.133315 -0.0238979 0)
  (-0.127416 -0.0264576 0)
  (-0.122769 -0.0300174 0)
  (-0.119347 -0.0341175 0)
  (-0.11683 -0.0383175 0)
  (-0.114789 -0.0422699 0)
  (-0.112835 -0.0457874 0)
  (-0.110705 -0.0488497 0)
  (-0.108275 -0.0515352 0)
  (-0.10553 -0.0539535 0)
  (-0.102509 -0.0561424 0)
  (-0.0992466 -0.0579883 0)
  (-0.0957363 -0.0591935 0)
  (-0.0918946 -0.0592639 0)
  (-0.087507 -0.0575137 0)
  (-0.0820932 -0.0530997 0)
  (-0.0746625 -0.0451615 0)
  (-0.0635122 -0.0332472 0)
  (-0.046655 -0.0181553 0)
  (-0.0238268 -0.00309601 0)
  (0.0131402 -2.77137e-05 0)
  (0.0501341 -0.039842 0)
  (0.120598 -0.0893012 0)
  (-0.0200607 -0.157469 0)
  (-0.0258568 -0.300279 0)
  (-0.388565 -0.112223 0)
  (-0.288636 0.0729283 0)
  (-0.283104 0.0549149 0)
  (-0.256185 0.0675805 0)
  (-0.255674 0.0781073 0)
  (-0.254367 0.0869226 0)
  (-0.248579 0.0953713 0)
  (-0.239806 0.102776 0)
  (-0.230026 0.108632 0)
  (-0.220742 0.11353 0)
  (-0.212521 0.11767 0)
  (-0.20521 0.121329 0)
  (-0.198188 0.124872 0)
  (-0.190917 0.128777 0)
  (-0.183145 0.133485 0)
  (-0.175005 0.139255 0)
  (-0.166883 0.1461 0)
  (-0.159143 0.153795 0)
  (-0.151973 0.16197 0)
  (-0.145394 0.170217 0)
  (-0.139301 0.178201 0)
  (-0.133515 0.185745 0)
  (-0.127841 0.192848 0)
  (-0.12211 0.199621 0)
  (-0.116196 0.206187 0)
  (-0.110022 0.212584 0)
  (-0.10353 0.218715 0)
  (-0.0966512 0.224336 0)
  (-0.0892573 0.22909 0)
  (-0.0810755 0.232576 0)
  (-0.0715569 0.234474 0)
  (-0.0598301 0.234775 0)
  (-0.0450763 0.234174 0)
  (-0.0273047 0.23457 0)
  (-0.00631191 0.238615 0)
  (0.0208682 0.243639 0)
  (0.0283728 0.266992 0)
  (0.132656 0.265831 0)
  (-0.339129 0.365753 0)
)
;

boundaryField
{
  floor
  {
    type noSlip;
  }
  ceiling
  {
    type noSlip;
  }
  sWall
  {
    type noSlip;
  }
  nWall
  {
    type noSlip;
  }
  sideWalls
  {
    type empty;
  }
  glass1
  {
    type noSlip;
  }
  glass2
  {
    type noSlip;
  }
  sun
  {
    type noSlip;
  }
  heatsource1
  {
    type noSlip;
  }
  heatsource2
  {
    type noSlip;
  }
  Table_master
  {
    type noSlip;
  }
  Table_slave
  {
    type noSlip;
  }
  inlet
  {
    type fixedValue;
    value uniform (0.3 0 0);
  }
  outlet
  {
    type zeroGradient;
  }
} 	// ************************************************************************* //

