// -*- C++ -*-
// File generated by PyFoam - sorry for the ugliness

FoamFile
{
 version 2.0;
 format ascii;
 class volScalarField;
 location "900";
 object T;
}

dimensions [ 0 0 0 1 0 0 0 ];

internalField nonuniform List<scalar> 459
(
  303.386
  303.123
  303.11
  303.106
  303.102
  303.098
  303.094
  303.088
  303.079
  303.068
  303.055
  303.045
  303.038
  303.036
  303.043
  303.129
  303.109
  303.101
  303.103
  303.107
  303.111
  303.115
  303.118
  303.122
  303.126
  303.13
  303.133
  303.137
  303.141
  303.144
  303.148
  303.152
  303.158
  303.177
  303.565
  303.165
  303.142
  303.145
  303.148
  303.149
  303.147
  303.139
  303.123
  303.098
  303.07
  303.047
  303.031
  303.023
  303.022
  303.019
  303.015
  303.131
  303.093
  303.087
  303.089
  303.093
  303.098
  303.1
  303.101
  303.102
  303.103
  303.104
  303.105
  303.106
  303.108
  303.11
  303.114
  303.119
  303.128
  303.16
  303.752
  303.215
  303.178
  303.19
  303.205
  303.216
  303.221
  303.214
  303.188
  303.144
  303.095
  303.054
  303.029
  303.018
  303.016
  303.018
  303.018
  303.082
  303.076
  303.079
  303.087
  303.097
  303.104
  303.104
  303.104
  303.104
  303.104
  303.104
  303.104
  303.104
  303.104
  303.104
  303.107
  303.111
  303.119
  303.153
  303.94
  303.277
  303.215
  303.234
  303.265
  303.293
  303.312
  303.308
  303.266
  303.195
  303.119
  303.06
  303.024
  303.012
  303.013
  303.018
  303.023
  303.033
  303.045
  303.062
  303.08
  303.098
  303.115
  303.127
  303.138
  303.146
  303.154
  303.161
  303.167
  303.171
  303.175
  303.177
  303.178
  303.156
  303.136
  303.127
  303.152
  304.124
  303.355
  303.254
  303.27
  303.313
  303.361
  303.403
  303.398
  303.335
  303.234
  303.131
  303.057
  303.017
  303.004
  303.009
  303.021
  303.034
  303.049
  303.068
  303.089
  303.112
  303.133
  303.151
  303.167
  303.181
  303.192
  303.201
  303.208
  303.213
  303.215
  303.214
  303.21
  303.203
  303.185
  303.16
  303.14
  303.15
  303.223
  303.269
  303.275
  304.29
  303.455
  303.319
  303.311
  303.351
  303.412
  303.476
  303.456
  303.364
  303.241
  303.124
  303.041
  302.999
  302.992
  303.007
  303.03
  303.055
  303.079
  303.104
  303.13
  303.155
  303.178
  303.197
  303.212
  303.224
  303.235
  303.242
  303.248
  303.251
  303.25
  303.245
  303.237
  303.225
  303.207
  303.183
  303.158
  303.153
  303.183
  303.2
  303.235
  304.438
  303.616
  303.472
  303.436
  303.454
  303.509
  303.539
  303.477
  303.347
  303.198
  303.073
  302.994
  302.967
  302.978
  303.012
  303.052
  303.091
  303.125
  303.156
  303.183
  303.207
  303.228
  303.244
  303.257
  303.267
  303.275
  303.28
  303.283
  303.283
  303.28
  303.271
  303.259
  303.245
  303.227
  303.205
  303.18
  303.168
  303.176
  303.186
  303.215
  304.656
  304.039
  303.875
  303.772
  303.723
  303.707
  303.61
  303.437
  303.238
  303.067
  302.956
  302.913
  302.927
  302.974
  303.037
  303.099
  303.149
  303.188
  303.218
  303.241
  303.26
  303.275
  303.287
  303.297
  303.303
  303.308
  303.31
  303.31
  303.308
  303.303
  303.296
  303.283
  303.269
  303.253
  303.236
  303.218
  303.212
  303.225
  303.244
  303.372
  304.966
  304.678
  304.413
  304.182
  303.995
  303.776
  303.446
  303.127
  302.897
  302.783
  302.767
  302.821
  302.916
  303.015
  303.11
  303.182
  303.225
  303.254
  303.274
  303.291
  303.305
  303.315
  303.323
  303.328
  303.332
  303.333
  303.333
  303.332
  303.33
  303.327
  303.325
  303.326
  303.328
  303.335
  303.349
  303.373
  303.405
  303.438
  303.46
  303.515
  297.036
  299.169
  300.288
  300.737
  301.173
  301.606
  302.01
  302.355
  302.633
  302.857
  303.052
  303.159
  303.225
  303.265
  303.29
  303.308
  303.321
  303.332
  303.34
  303.346
  303.35
  303.353
  303.355
  303.356
  303.357
  303.357
  303.358
  303.359
  303.361
  303.363
  303.368
  303.376
  303.39
  303.41
  303.433
  303.457
  303.476
  303.496
  297.473
  299.35
  300.287
  300.98
  301.571
  302.095
  302.505
  302.791
  302.99
  303.125
  303.213
  303.266
  303.299
  303.32
  303.335
  303.346
  303.354
  303.36
  303.365
  303.368
  303.37
  303.372
  303.373
  303.375
  303.376
  303.377
  303.378
  303.379
  303.381
  303.383
  303.387
  303.393
  303.403
  303.416
  303.432
  303.451
  303.449
  303.478
  299.529
  299.459
  299.454
  301.227
  302.088
  302.531
  302.784
  302.961
  303.09
  303.179
  303.242
  303.285
  303.314
  303.332
  303.345
  303.353
  303.359
  303.363
  303.367
  303.369
  303.372
  303.374
  303.376
  303.377
  303.379
  303.381
  303.382
  303.384
  303.386
  303.387
  303.389
  303.391
  303.394
  303.398
  303.403
  303.413
  303.422
  303.428
  303.43
  303.469
)
;

boundaryField
{
  floor
  {
    type wallHeatTransfer;
    Tinf uniform 305.2;
    alphaWall uniform 0.24;
    value nonuniform List<scalar> 29
(
  303.265
  303.527
  303.466
  303.431
  303.431
  303.441
  303.454
  303.473
  303.493
  303.513
  303.533
  303.552
  303.57
  303.587
  303.604
  303.621
  303.638
  303.656
  303.67
  303.711
  303.711
  303.613
  303.565
  303.536
  303.265
  303.527
  303.518
  303.336
  303.223
)
;
  }
  ceiling
  {
    type wallHeatTransfer;
    Tinf uniform 303.2;
    alphaWall uniform 0.24;
    value nonuniform List<scalar> 43
(
  299.783
  299.707
  299.696
  301.351
  302.164
  302.58
  302.815
  302.98
  303.099
  303.181
  303.238
  303.276
  303.3
  303.315
  303.324
  303.33
  303.334
  303.337
  303.339
  303.341
  303.343
  303.345
  303.347
  303.349
  303.351
  303.353
  303.355
  303.357
  303.36
  303.362
  303.365
  303.368
  303.371
  303.375
  303.381
  303.392
  303.4
  303.405
  303.406
  303.439
  304.884
  304.619
  297.822
)
;
  }
  sWall
  {
    type wallHeatTransfer;
    Tinf uniform 315.2;
    alphaWall uniform 0.36;
    value uniform 301.107;
  }
  nWall
  {
    type wallHeatTransfer;
    Tinf uniform 307.2;
    alphaWall uniform 0.36;
    value nonuniform List<scalar> 6
(
  304.001
  303.946
  303.866
  304.03
  304.008
  304.067
)
;
  }
  sideWalls
  {
    type empty;
  }
  glass1
  {
    type wallHeatTransfer;
    Tinf uniform 315.2;
    alphaWall uniform 4.3;
    value nonuniform List<scalar> 9
(
  311.499
  310.862
  310.46
  310.153
  309.897
  309.664
  309.482
  309.548
  309.77
)
;
  }
  glass2
  {
    type wallHeatTransfer;
    Tinf uniform 307.2;
    alphaWall uniform 4.3;
    value nonuniform List<scalar> 2
(
  305.735
  305.839
)
;
  }
  sun
  {
    type wallHeatTransfer;
    Tinf uniform 305.2;
    alphaWall uniform 0.24;
    value nonuniform List<scalar> 14
(
  303.58
  303.33
  303.316
  303.305
  303.296
  303.287
  303.277
  303.267
  303.256
  303.244
  303.234
  303.229
  303.231
  303.242
)
;
  }
  heatsource1
  {
    type fixedGradient;
    gradient uniform 0;
  }
  heatsource2
  {
    type fixedGradient;
    gradient uniform 0;
  }
  Table_master
  {
    type zeroGradient;
  }
  Table_slave
  {
    type zeroGradient;
  }
  inlet
  {
    type fixedValue;
    value uniform 293.15;
  }
  outlet
  {
    type zeroGradient;
  }
} 	// ************************************************************************* //

