/*--------------------------------*- C++ -*----------------------------------*\
  =========                 |
  \\      /  F ield         | OpenFOAM: The Open Source CFD Toolbox
   \\    /   O peration     | Website:  https://openfoam.org
    \\  /    A nd           | Version:  6
     \\/     M anipulation  |
\*---------------------------------------------------------------------------*/
FoamFile
{
    version     2.0;
    format      ascii;
    class       volScalarField;
    location    "100";
    object      epsilon;
}
// * * * * * * * * * * * * * * * * * * * * * * * * * * * * * * * * * * * * * //

dimensions      [0 2 -3 0 0 0 0];

internalField   nonuniform List<scalar> 
459
(
0.00092571
0.0012956
0.00148694
0.00179669
0.00218445
0.00257839
0.00287141
0.00298823
0.00261011
0.00218695
0.00177962
0.0013955
0.00107632
0.000812833
0.000571793
0.000125204
0.000205228
0.000326817
0.000441423
0.000487655
0.000463251
0.000381201
0.000304604
0.000246185
0.00020271
0.000169957
0.000144866
0.000125199
0.000109433
9.63882e-05
8.49064e-05
7.38486e-05
6.20005e-05
4.7066e-05
0.00191118
0.00235186
0.00119459
0.001268
0.0015228
0.00184046
0.00205448
0.00209899
0.00186246
0.00153729
0.00123398
0.000980821
0.000796618
0.000666875
0.00053634
0.000784322
0.000488304
0.000114591
0.000156353
0.000271769
0.000327694
0.00034739
0.000350559
0.000376887
0.000307379
0.000240476
0.000188685
0.000150093
0.000121495
0.000100038
8.36083e-05
7.09804e-05
6.30008e-05
5.96762e-05
6.22886e-05
5.76504e-05
0.00313089
0.00475172
0.00141242
0.00134701
0.00168336
0.00202494
0.00216025
0.00213286
0.00192843
0.00161686
0.00129095
0.00101643
0.000808259
0.000654849
0.000530921
0.000532098
0.000662118
0.000118636
0.000243265
0.000306234
0.000348722
0.000365062
0.000389772
0.000901519
0.000591817
0.000400561
0.000281668
0.000205782
0.000155814
0.00012191
9.89078e-05
8.48672e-05
6.45729e-05
5.5465e-05
6.21485e-05
6.17911e-05
0.00470946
0.00907545
0.00211669
0.00165874
0.00211883
0.00239196
0.00239529
0.00231024
0.00209652
0.00174639
0.00136692
0.00105068
0.000818564
0.000651669
0.00053258
0.000485731
0.000527217
0.000834263
0.000560013
0.00046255
0.000439958
0.000441418
0.000438286
0.000464251
0.00132009
0.00100202
0.000788952
0.00063672
0.000517017
0.000417061
0.000330619
0.000254269
0.000184644
9.85282e-05
6.19404e-05
6.33217e-05
6.49286e-05
0.00678027
0.0155383
0.00386621
0.00243833
0.00301911
0.00298482
0.00282754
0.00267443
0.00238645
0.00193249
0.00144902
0.0010597
0.000792196
0.000620511
0.000518306
0.000478649
0.000523809
0.000638575
0.000612456
0.00059897
0.000599565
0.000588835
0.000555299
0.00051232
0.000519004
0.000487718
0.000451339
0.000411825
0.000365354
0.000312992
0.000257322
0.000201306
0.000146543
9.27291e-05
6.07066e-05
5.76614e-05
5.8163e-05
5.9377e-05
6.31257e-05
0.000102267
0.00945523
0.0228961
0.00809736
0.00484049
0.00441669
0.00384407
0.00348875
0.00321439
0.00279343
0.00216974
0.00152813
0.00104037
0.000735769
0.00057674
0.000513542
0.000520823
0.000601861
0.000704452
0.00076847
0.000802357
0.000796683
0.000748028
0.000667693
0.000575802
0.000500244
0.000443077
0.000397729
0.000353798
0.000306524
0.000256425
0.000205845
0.000157775
0.000114423
7.83841e-05
5.76559e-05
5.36614e-05
5.51274e-05
5.44822e-05
0.000133198
0.000122325
0.0118318
0.0271849
0.0145009
0.0087868
0.00623983
0.00496793
0.0043493
0.00391126
0.00329631
0.00241815
0.00156269
0.000976964
0.000672269
0.000565301
0.000561756
0.000624601
0.000743736
0.000870331
0.00095306
0.000965401
0.000913989
0.000815472
0.000693191
0.000570685
0.000467114
0.000392896
0.000338356
0.000290804
0.00024427
0.000199167
0.000157441
0.000121063
9.06612e-05
6.7494e-05
5.77519e-05
5.84851e-05
6.44558e-05
7.54372e-05
0.000162165
0.000152716
0.0120937
0.0253736
0.0159181
0.010547
0.00756753
0.00606971
0.00532377
0.00471142
0.00381259
0.00254385
0.00143715
0.000858879
0.000667026
0.000632113
0.00067304
0.000765284
0.000894344
0.00100244
0.00104278
0.00100396
0.000897683
0.00075589
0.000611442
0.000484774
0.000389424
0.000322275
0.000270831
0.0002264
0.000186291
0.00015112
0.000122187
0.000100407
8.59477e-05
7.95864e-05
8.56276e-05
0.000114766
0.000182008
0.000351686
0.00182502
0.000417031
0.0109675
0.0169773
0.0132632
0.00993779
0.00783778
0.00685195
0.0062473
0.0053758
0.00398802
0.00208899
0.00116788
0.000832573
0.000741594
0.000748935
0.000803748
0.000883597
0.00096452
0.00100594
0.000981635
0.000896594
0.000772994
0.000638057
0.000514693
0.000414494
0.000338543
0.000280436
0.000232433
0.000190312
0.000153516
0.000123555
0.00010299
9.56491e-05
0.000107729
0.000147936
0.000224406
0.000342726
0.000505472
0.000693564
0.000849126
0.000455501
0.00242563
0.00409835
0.00651763
0.00694543
0.00600455
0.00384558
0.00225429
0.00134932
0.000997982
0.000882753
0.00086579
0.000889812
0.000929537
0.000967035
0.00098307
0.000959317
0.000893328
0.000800011
0.000699649
0.000607619
0.00053126
0.000470316
0.000420402
0.000376121
0.000333229
0.000289702
0.000245773
0.000203898
0.000168759
0.000146608
0.000143844
0.00016627
0.000219663
0.000307892
0.000424309
0.000537117
0.00058696
0.000496513
0.00247191
0.0123966
0.0102777
0.00674614
0.00407451
0.00238943
0.00158098
0.00122929
0.00109907
0.00106221
0.00106507
0.00108421
0.00110815
0.00112829
0.00113628
0.00112543
0.00109454
0.0010488
0.000996174
0.000943892
0.000896185
0.000853749
0.000815025
0.000777237
0.000736889
0.000690539
0.000635821
0.000572704
0.000504438
0.000437422
0.000379843
0.000339948
0.000324511
0.000336063
0.000368226
0.000425279
0.000797347
0.000640415
0.00222368
0.00271385
0.00313773
0.00429751
0.00332984
0.00268178
0.00218315
0.00179019
0.00153882
0.00141356
0.00136034
0.00134632
0.00134972
0.00135407
0.00134624
0.00131611
0.00125835
0.00117533
0.00107754
0.000978351
0.000887764
0.000809708
0.000743333
0.00068556
0.000633017
0.000583178
0.000534842
0.000488068
0.000443832
0.000403609
0.000368968
0.000341276
0.000321688
0.000311295
0.000310981
0.000320252
0.000334825
0.00034652
0.000360621
0.000362859
)
;

boundaryField
{
    floor
    {
        Cmu             0.09;
        kappa           0.41;
        E               9.8;
        type            epsilonWallFunction;
        value           nonuniform List<scalar> 
29
(
0.000571793
0.000125204
0.000205228
0.000326817
0.000441423
0.000487655
0.000463251
0.000381201
0.000304604
0.000246185
0.00020271
0.000169957
0.000144866
0.000125199
0.000109433
9.63882e-05
8.49064e-05
7.38486e-05
6.20005e-05
4.7066e-05
4.7066e-05
5.76504e-05
6.17911e-05
6.49286e-05
0.000571793
0.000125204
0.000114591
0.000118636
0.000834263
)
;
    }
    ceiling
    {
        Cmu             0.09;
        kappa           0.41;
        E               9.8;
        type            epsilonWallFunction;
        value           nonuniform List<scalar> 
43
(
0.00222368
0.00271385
0.00313773
0.00429751
0.00332984
0.00268178
0.00218315
0.00179019
0.00153882
0.00141356
0.00136034
0.00134632
0.00134972
0.00135407
0.00134624
0.00131611
0.00125835
0.00117533
0.00107754
0.000978351
0.000887764
0.000809708
0.000743333
0.00068556
0.000633017
0.000583178
0.000534842
0.000488068
0.000443832
0.000403609
0.000368968
0.000341276
0.000321688
0.000311295
0.000310981
0.000320252
0.000334825
0.00034652
0.000360621
0.000362859
0.0109675
0.0169773
0.00247191
)
;
    }
    sWall
    {
        Cmu             0.09;
        kappa           0.41;
        E               9.8;
        type            epsilonWallFunction;
        value           uniform 0.00222368;
    }
    nWall
    {
        Cmu             0.09;
        kappa           0.41;
        E               9.8;
        type            epsilonWallFunction;
        value           nonuniform List<scalar> 6(0.000102267 0.000122325 0.000152716 0.000496513 0.000640415 0.000362859);
    }
    sideWalls
    {
        type            empty;
    }
    glass1
    {
        Cmu             0.09;
        kappa           0.41;
        E               9.8;
        type            epsilonWallFunction;
        value           nonuniform List<scalar> 9(0.00092571 0.00191118 0.00313089 0.00470946 0.00678027 0.00945523 0.0118318 0.0120937 0.0109675);
    }
    glass2
    {
        Cmu             0.09;
        kappa           0.41;
        E               9.8;
        type            epsilonWallFunction;
        value           nonuniform List<scalar> 2(0.000417031 0.000455501);
    }
    sun
    {
        Cmu             0.09;
        kappa           0.41;
        E               9.8;
        type            epsilonWallFunction;
        value           nonuniform List<scalar> 
14
(
0.00092571
0.0012956
0.00148694
0.00179669
0.00218445
0.00257839
0.00287141
0.00298823
0.00261011
0.00218695
0.00177962
0.0013955
0.00107632
0.000812833
)
;
    }
    heatsource1
    {
        Cmu             0.09;
        kappa           0.41;
        E               9.8;
        type            epsilonWallFunction;
        value           nonuniform List<scalar> 3(5.9377e-05 6.31257e-05 0.000102267);
    }
    heatsource2
    {
        Cmu             0.09;
        kappa           0.41;
        E               9.8;
        type            epsilonWallFunction;
        value           nonuniform List<scalar> 4(0.000784322 0.000488304 0.000488304 0.000662118);
    }
    Table_master
    {
        Cmu             0.09;
        kappa           0.41;
        E               9.8;
        type            epsilonWallFunction;
        value           nonuniform List<scalar> 9(0.000901519 0.000591817 0.000400561 0.000281668 0.000205782 0.000155814 0.00012191 9.89078e-05 8.48672e-05);
    }
    Table_slave
    {
        Cmu             0.09;
        kappa           0.41;
        E               9.8;
        type            epsilonWallFunction;
        value           nonuniform List<scalar> 9(0.00132009 0.00100202 0.000788952 0.00063672 0.000517017 0.000417061 0.000330619 0.000254269 0.000184644);
    }
    inlet
    {
        type            turbulentMixingLengthDissipationRateInlet;
        mixingLength    0.01;
        phi             phi;
        k               k;
        value           uniform 0.000101881;
    }
    outlet
    {
        type            zeroGradient;
    }
}


// ************************************************************************* //
