// -*- C++ -*-
// File generated by PyFoam - sorry for the ugliness

FoamFile
{
 version 2.0;
 format ascii;
 class volScalarField;
 location "100";
 object T;
}

dimensions [ 0 0 0 1 0 0 0 ];

internalField nonuniform List<scalar> 459
(
  303.748
  303.431
  303.428
  303.442
  303.455
  303.468
  303.478
  303.488
  303.496
  303.502
  303.503
  303.501
  303.495
  303.485
  303.473
  303.023
  303.005
  302.994
  302.984
  302.979
  302.976
  302.976
  302.978
  302.98
  302.982
  302.989
  303.003
  303.026
  303.06
  303.107
  303.167
  303.179
  303.143
  303.112
  303.989
  303.545
  303.51
  303.525
  303.544
  303.561
  303.576
  303.589
  303.599
  303.604
  303.602
  303.593
  303.574
  303.543
  303.501
  303.45
  303.335
  303.035
  303.027
  302.995
  302.968
  302.948
  302.933
  302.922
  302.921
  302.925
  302.938
  302.966
  303.008
  303.063
  303.133
  303.218
  303.299
  303.298
  303.23
  303.123
  304.207
  303.663
  303.596
  303.608
  303.633
  303.657
  303.679
  303.697
  303.71
  303.717
  303.715
  303.7
  303.67
  303.624
  303.559
  303.483
  303.413
  303.099
  303.102
  303.101
  303.101
  303.101
  303.068
  302.906
  302.906
  302.926
  302.965
  303.026
  303.102
  303.19
  303.288
  303.403
  303.516
  303.51
  303.501
  303.495
  304.407
  303.79
  303.691
  303.695
  303.727
  303.76
  303.791
  303.818
  303.838
  303.851
  303.851
  303.836
  303.801
  303.745
  303.666
  303.564
  303.449
  303.353
  303.293
  303.352
  303.416
  303.473
  303.509
  303.534
  303.554
  303.56
  303.568
  303.577
  303.59
  303.608
  303.633
  303.668
  303.713
  303.753
  303.795
  303.839
  303.897
  304.592
  303.929
  303.809
  303.796
  303.828
  303.87
  303.912
  303.951
  303.983
  304.005
  304.012
  304.003
  303.975
  303.927
  303.861
  303.782
  303.698
  303.625
  303.573
  303.583
  303.617
  303.649
  303.67
  303.681
  303.689
  303.695
  303.704
  303.717
  303.737
  303.764
  303.8
  303.843
  303.892
  303.94
  303.991
  304.038
  304.078
  304.073
  303.975
  303.71
  304.757
  304.091
  303.981
  303.946
  303.958
  303.999
  304.049
  304.099
  304.143
  304.174
  304.19
  304.188
  304.167
  304.128
  304.073
  304.004
  303.933
  303.868
  303.822
  303.8
  303.801
  303.809
  303.812
  303.813
  303.812
  303.811
  303.814
  303.823
  303.839
  303.866
  303.904
  303.952
  304.003
  304.055
  304.101
  304.139
  304.164
  304.168
  304.053
  304.004
  304.907
  304.309
  304.258
  304.222
  304.185
  304.195
  304.234
  304.281
  304.33
  304.364
  304.384
  304.387
  304.373
  304.343
  304.298
  304.239
  304.174
  304.111
  304.06
  304.025
  304.003
  303.989
  303.977
  303.965
  303.954
  303.943
  303.934
  303.929
  303.931
  303.945
  303.972
  304.013
  304.062
  304.111
  304.155
  304.19
  304.214
  304.221
  304.195
  304.015
  305.125
  304.693
  304.726
  304.696
  304.607
  304.552
  304.539
  304.549
  304.564
  304.586
  304.6
  304.603
  304.594
  304.572
  304.536
  304.486
  304.428
  304.369
  304.314
  304.268
  304.231
  304.201
  304.175
  304.15
  304.127
  304.103
  304.08
  304.059
  304.041
  304.031
  304.033
  304.051
  304.084
  304.126
  304.171
  304.213
  304.25
  304.283
  304.312
  304.349
  305.421
  305.262
  305.534
  305.442
  305.234
  305.079
  304.987
  304.935
  304.904
  304.88
  304.864
  304.853
  304.839
  304.819
  304.789
  304.749
  304.7
  304.645
  304.59
  304.537
  304.49
  304.447
  304.408
  304.371
  304.336
  304.3
  304.265
  304.229
  304.194
  304.162
  304.137
  304.123
  304.121
  304.13
  304.146
  304.167
  304.194
  304.225
  304.265
  304.388
  308.283
  306.151
  305.567
  305.377
  305.284
  305.232
  305.202
  305.182
  305.165
  305.147
  305.128
  305.103
  305.072
  305.033
  304.988
  304.936
  304.881
  304.825
  304.771
  304.719
  304.67
  304.622
  304.576
  304.53
  304.484
  304.437
  304.39
  304.343
  304.299
  304.259
  304.228
  304.21
  304.203
  304.21
  304.225
  304.246
  304.273
  304.312
  307.732
  306.512
  306.085
  305.846
  305.713
  305.635
  305.584
  305.546
  305.514
  305.482
  305.448
  305.411
  305.371
  305.326
  305.277
  305.224
  305.167
  305.109
  305.05
  304.991
  304.934
  304.879
  304.824
  304.771
  304.718
  304.665
  304.611
  304.556
  304.501
  304.448
  304.399
  304.36
  304.334
  304.321
  304.316
  304.318
  304.322
  304.344
  308.003
  307.886
  307.658
  307.174
  306.799
  306.537
  306.363
  306.237
  306.138
  306.054
  305.98
  305.911
  305.845
  305.78
  305.716
  305.653
  305.59
  305.528
  305.466
  305.405
  305.344
  305.285
  305.226
  305.168
  305.111
  305.054
  304.997
  304.941
  304.884
  304.827
  304.769
  304.711
  304.653
  304.6
  304.553
  304.509
  304.47
  304.433
  304.394
  304.38
)
;

boundaryField
{
  floor
  {
    type wallHeatTransfer;
    Tinf uniform 305.2;
    alphaWall uniform 0.24;
    value nonuniform List<scalar> 29
(
  303.704
  303.509
  303.467
  303.493
  303.567
  303.631
  303.673
  303.702
  303.718
  303.714
  303.69
  303.655
  303.618
  303.587
  303.561
  303.543
  303.542
  303.539
  303.523
  303.54
  303.54
  303.526
  303.731
  304.037
  303.704
  303.509
  303.463
  303.409
  303.561
)
;
  }
  ceiling
  {
    type wallHeatTransfer;
    Tinf uniform 303.2;
    alphaWall uniform 0.24;
    value nonuniform List<scalar> 43
(
  307.647
  307.635
  307.515
  307.036
  306.652
  306.38
  306.194
  306.056
  305.946
  305.853
  305.771
  305.696
  305.626
  305.56
  305.497
  305.437
  305.379
  305.322
  305.266
  305.211
  305.156
  305.101
  305.048
  304.994
  304.941
  304.889
  304.836
  304.784
  304.732
  304.679
  304.626
  304.572
  304.519
  304.47
  304.425
  304.384
  304.346
  304.309
  304.276
  304.255
  305.325
  305.183
  307.623
)
;
  }
  sWall
  {
    type wallHeatTransfer;
    Tinf uniform 315.2;
    alphaWall uniform 0.36;
    value uniform 308.776;
  }
  nWall
  {
    type wallHeatTransfer;
    Tinf uniform 307.2;
    alphaWall uniform 0.36;
    value nonuniform List<scalar> 6
(
  304.269
  304.455
  304.475
  304.635
  304.686
  304.807
)
;
  }
  sideWalls
  {
    type empty;
  }
  glass1
  {
    type wallHeatTransfer;
    Tinf uniform 315.2;
    alphaWall uniform 4.3;
    value nonuniform List<scalar> 9
(
  312.299
  311.159
  310.502
  310.067
  309.774
  309.564
  309.429
  309.544
  309.815
)
;
  }
  glass2
  {
    type wallHeatTransfer;
    Tinf uniform 307.2;
    alphaWall uniform 4.3;
    value nonuniform List<scalar> 2
(
  306.091
  306.06
)
;
  }
  sun
  {
    type wallHeatTransfer;
    Tinf uniform 305.2;
    alphaWall uniform 0.24;
    value nonuniform List<scalar> 14
(
  303.949
  303.673
  303.709
  303.72
  303.726
  303.73
  303.733
  303.734
  303.735
  303.734
  303.732
  303.726
  303.719
  303.711
)
;
  }
  heatsource1
  {
    type fixedGradient;
    gradient uniform 0;
  }
  heatsource2
  {
    type fixedGradient;
    gradient uniform 0;
  }
  Table_master
  {
    type zeroGradient;
  }
  Table_slave
  {
    type zeroGradient;
  }
  inlet
  {
    type fixedValue;
    value uniform 293.15;
  }
  outlet
  {
    type zeroGradient;
  }
} 	// ************************************************************************* //

