/*--------------------------------*- C++ -*----------------------------------*\
  =========                 |
  \\      /  F ield         | OpenFOAM: The Open Source CFD Toolbox
   \\    /   O peration     | Website:  https://openfoam.org
    \\  /    A nd           | Version:  6
     \\/     M anipulation  |
\*---------------------------------------------------------------------------*/
FoamFile
{
    version     2.0;
    format      ascii;
    class       volScalarField;
    location    "400";
    object      nut;
}
// * * * * * * * * * * * * * * * * * * * * * * * * * * * * * * * * * * * * * //

dimensions      [0 2 -1 0 0 0 0];

internalField   nonuniform List<scalar> 
459
(
0.000733702
0.000748135
0.000570164
0.000541376
0.000549658
0.000564891
0.000582016
0.000600795
0.000621716
0.000643055
0.000663653
0.00068241
0.000698291
0.000709722
0.0007106
0.000310638
0.000336037
0.000349575
0.00030654
0.000263696
0.000231014
0.00020974
0.000222709
0.000242858
0.000266362
0.000290079
0.000310566
0.000318735
0.000314803
0.000309502
0.000311646
0.000323178
0.000308861
0.000283832
0.00135034
0.0027795
0.00144269
0.002186
0.00255162
0.0026399
0.00270737
0.00277425
0.0028282
0.00286238
0.00286008
0.00279368
0.00261631
0.00224764
0.00160018
0.00079643
0.000533617
0.000463518
0.000866101
0.0010185
0.00102465
0.000816187
0.000469403
0.000330707
0.000404809
0.000555686
0.00073037
0.000889409
0.00100628
0.00104904
0.00104709
0.00105568
0.00113963
0.000893127
0.000663427
0.000355848
0.00189688
0.00518665
0.00218837
0.00250371
0.00363678
0.00400723
0.00414392
0.00422337
0.00426681
0.00427439
0.00422719
0.00409264
0.00381775
0.0033281
0.00257635
0.00167403
0.000872256
0.000722829
0.00202224
0.00184782
0.00152955
0.00111141
0.000698267
0.00029191
0.000310349
0.000341418
0.000372618
0.000404773
0.000439642
0.000480895
0.000534578
0.0006154
0.00182367
0.00184694
0.00150634
0.000601967
0.00238461
0.00790157
0.00384705
0.00278067
0.00381946
0.0045921
0.00496255
0.00517532
0.00531194
0.00539781
0.00542736
0.00537214
0.00517639
0.00475011
0.00399223
0.00288767
0.0016973
0.000977278
0.00263608
0.00264935
0.00220083
0.00168177
0.0012446
0.000912324
0.000682183
0.00068865
0.00069482
0.000701959
0.000712406
0.000728719
0.000754153
0.000793768
0.000857811
0.0025449
0.00260414
0.00217595
0.000861383
0.00280769
0.0105155
0.00633103
0.00412316
0.00390968
0.00444012
0.00504611
0.00551526
0.00586523
0.00614887
0.00638337
0.00656698
0.00668538
0.00670789
0.00659218
0.00630457
0.00586581
0.00540451
0.00532814
0.00496757
0.00459008
0.00431798
0.0041562
0.00404978
0.00392711
0.003846
0.00375421
0.0036483
0.00353425
0.00342412
0.0033346
0.00328303
0.00328241
0.00335014
0.00323245
0.00303457
0.00267978
0.00107641
0.000935513
0.000806205
0.00317843
0.0125772
0.009322
0.00658436
0.00505342
0.00443463
0.00461536
0.0051279
0.00567355
0.00619409
0.00667595
0.0071002
0.00745881
0.0077414
0.00792412
0.00797159
0.00785407
0.00758514
0.00725159
0.00690122
0.00659523
0.00635223
0.00616704
0.00601462
0.00587461
0.00573439
0.00557952
0.00539896
0.00518425
0.00493214
0.0046499
0.00435746
0.00407752
0.0038177
0.00356397
0.00329463
0.0029443
0.00245635
0.00181847
0.000835181
0.00347766
0.0133324
0.0112936
0.00896504
0.0070587
0.00557249
0.00476322
0.00467453
0.00502524
0.00557097
0.00622891
0.00688481
0.00747396
0.00796909
0.00835273
0.00859768
0.00867055
0.00857033
0.00835155
0.00808408
0.00781889
0.00757947
0.00737183
0.00719343
0.00703655
0.00689179
0.00674963
0.00659826
0.00642097
0.00619434
0.00589248
0.00550197
0.00504042
0.00455309
0.0040775
0.00360865
0.00310578
0.00255027
0.00192806
0.000877314
0.00345709
0.0112512
0.0101815
0.00986714
0.00850128
0.00691205
0.00568952
0.00497046
0.00472088
0.00489675
0.00541519
0.00609826
0.00681519
0.00747846
0.00804018
0.00847039
0.00872609
0.00880913
0.00875231
0.00860744
0.00842035
0.00822179
0.00803007
0.00785517
0.00770034
0.00756497
0.00744759
0.00734616
0.00725579
0.00716302
0.00703846
0.006833
0.00649071
0.00598876
0.00536871
0.00468898
0.00398561
0.00335633
0.00286432
0.00149819
0.00326808
0.00375765
0.0111774
0.0114859
0.00957546
0.00767445
0.00629391
0.00543201
0.0050001
0.00491831
0.00512258
0.0055419
0.0060879
0.00667037
0.00722721
0.00771874
0.00809987
0.00834392
0.00845426
0.00845884
0.00839142
0.00828138
0.00815123
0.0080168
0.00788784
0.00776964
0.00766576
0.00758048
0.00751903
0.00748551
0.00747816
0.0074824
0.00746587
0.00738628
0.00721693
0.00695744
0.00657436
0.00593443
0.00550136
0.00162307
0.0231357
0.0197594
0.0113121
0.00838611
0.00706302
0.0062932
0.00588551
0.00574664
0.00579498
0.00596058
0.00619345
0.0064645
0.0067593
0.00706419
0.007356
0.00760428
0.00778708
0.00790051
0.00795057
0.00794917
0.0079102
0.0078465
0.00776782
0.00768148
0.00759425
0.00751284
0.00744375
0.00739255
0.00736172
0.00734621
0.00732753
0.00727069
0.00713191
0.00687513
0.00647441
0.00590018
0.00501591
0.00163812
0.00746615
0.0149083
0.0106178
0.00809734
0.00677958
0.00611099
0.0058417
0.00582822
0.00596712
0.00618007
0.00641226
0.00663289
0.00683072
0.00700527
0.00715785
0.00728698
0.00738901
0.00746096
0.00750294
0.0075185
0.00751318
0.00749199
0.00745356
0.00739846
0.00733336
0.00726374
0.00719296
0.00712195
0.00704866
0.00696729
0.00686719
0.00673257
0.00654394
0.00628039
0.00591989
0.00542427
0.00497587
0.00164099
0.00139453
0.00177033
0.00498967
0.00451123
0.00380171
0.00319653
0.00273869
0.00240133
0.00215542
0.00198023
0.0018609
0.00178518
0.00174154
0.00171922
0.0017094
0.00170593
0.001705
0.0017044
0.00170274
0.00169913
0.0016932
0.00168495
0.00167468
0.00166288
0.00165053
0.0016381
0.00162535
0.00161226
0.00159886
0.0015851
0.00157078
0.00155544
0.00153844
0.00151893
0.00149601
0.0014685
0.0014345
0.00139205
0.00137472
0.00119997
)
;

boundaryField
{
    floor
    {
        type            nutkWallFunction;
        Cmu             0.09;
        kappa           0.41;
        E               9.8;
        value           nonuniform List<scalar> 
29
(
8.60248e-05
3.48337e-05
3.82651e-05
4.00804e-05
3.4277e-05
2.83911e-05
2.38148e-05
2.07884e-05
2.26381e-05
2.54826e-05
2.87604e-05
3.20285e-05
3.48226e-05
3.59294e-05
3.53966e-05
3.46772e-05
3.49695e-05
3.65323e-05
3.45924e-05
3.11719e-05
3.11718e-05
4.09127e-05
7.25881e-05
0.000104286
8.60248e-05
3.48336e-05
5.50306e-05
8.75233e-05
0.000118061
)
;
    }
    ceiling
    {
        type            nutkWallFunction;
        Cmu             0.09;
        kappa           0.41;
        E               9.8;
        value           nonuniform List<scalar> 
43
(
0.000166408
0.000208521
0.000543163
0.00049527
0.000423348
0.000360953
0.000312961
0.000277073
0.000250583
0.000231517
0.000218425
0.000210069
0.000205235
0.000202754
0.00020166
0.000201271
0.000201165
0.000201094
0.000200906
0.000200503
0.000199841
0.000198921
0.000197777
0.000196461
0.000195083
0.000193696
0.000192272
0.000190808
0.000189308
0.000187768
0.000186163
0.000184443
0.000182534
0.000180341
0.000177762
0.00017466
0.000170819
0.000166009
0.000164041
0.00014404
0.000368142
0.000418514
0.000784495
)
;
    }
    sWall
    {
        type            nutkWallFunction;
        Cmu             0.09;
        kappa           0.41;
        E               9.8;
        value           uniform 0.00016644;
    }
    nWall
    {
        type            nutkWallFunction;
        Cmu             0.09;
        kappa           0.41;
        E               9.8;
        value           nonuniform List<scalar> 6(9.76556e-05 0.000101151 0.000106199 0.00019369 0.000194004 0.000144048);
    }
    sideWalls
    {
        type            empty;
    }
    glass1
    {
        type            nutkWallFunction;
        Cmu             0.09;
        kappa           0.41;
        E               9.8;
        value           nonuniform List<scalar> 9(8.88218e-05 0.000161416 0.000222521 0.000275419 0.000320372 0.000359185 0.000390176 0.000388069 0.000368537);
    }
    glass2
    {
        type            nutkWallFunction;
        Cmu             0.09;
        kappa           0.41;
        E               9.8;
        value           nonuniform List<scalar> 2(0.00017804 0.000192042);
    }
    sun
    {
        type            nutkWallFunction;
        Cmu             0.09;
        kappa           0.41;
        E               9.8;
        value           nonuniform List<scalar> 
14
(
8.88436e-05
9.06033e-05
6.85938e-05
6.49623e-05
6.60107e-05
6.79332e-05
7.00865e-05
7.24389e-05
7.50491e-05
7.77006e-05
8.025e-05
8.2563e-05
8.45154e-05
8.59175e-05
)
;
    }
    heatsource1
    {
        type            nutkWallFunction;
        Cmu             0.09;
        kappa           0.41;
        E               9.8;
        value           nonuniform List<scalar> 3(0.000129719 0.000113131 9.76553e-05);
    }
    heatsource2
    {
        type            nutkWallFunction;
        Cmu             0.09;
        kappa           0.41;
        E               9.8;
        value           nonuniform List<scalar> 4(9.64684e-05 6.39825e-05 6.39825e-05 0.000105584);
    }
    Table_master
    {
        type            nutkWallFunction;
        Cmu             0.09;
        kappa           0.41;
        E               9.8;
        value           nonuniform List<scalar> 9(3.22837e-05 3.4796e-05 3.89861e-05 4.31448e-05 4.73847e-05 5.19351e-05 5.72614e-05 6.41097e-05 7.4266e-05);
    }
    Table_slave
    {
        type            nutkWallFunction;
        Cmu             0.09;
        kappa           0.41;
        E               9.8;
        value           nonuniform List<scalar> 9(8.25312e-05 8.33266e-05 8.4085e-05 8.49615e-05 8.62425e-05 8.82385e-05 9.134e-05 9.61465e-05 0.000103858);
    }
    inlet
    {
        type            calculated;
        value           uniform 0.0231357;
    }
    outlet
    {
        type            calculated;
        value           nonuniform List<scalar> 2(0.00139453 0.00177033);
    }
}


// ************************************************************************* //
