/*--------------------------------*- C++ -*----------------------------------*\
  =========                 |
  \\      /  F ield         | OpenFOAM: The Open Source CFD Toolbox
   \\    /   O peration     | Website:  https://openfoam.org
    \\  /    A nd           | Version:  6
     \\/     M anipulation  |
\*---------------------------------------------------------------------------*/
FoamFile
{
    version     2.0;
    format      ascii;
    class       volScalarField;
    location    "1300";
    object      alphat;
}
// * * * * * * * * * * * * * * * * * * * * * * * * * * * * * * * * * * * * * //

dimensions      [1 -1 -1 0 0 0 0];

internalField   nonuniform List<scalar> 
459
(
0.00123527
0.00134782
0.00137334
0.00143887
0.00149959
0.00155688
0.0016138
0.00166822
0.00170653
0.00172144
0.00170595
0.00165509
0.00156649
0.00144268
0.00129721
0.000539044
0.00064373
0.000727424
0.000734431
0.000713626
0.000683515
0.000641564
0.000598768
0.000559827
0.000525338
0.000494875
0.000467882
0.000443905
0.000422464
0.000402782
0.000383883
0.000364425
0.000352375
0.000322594
0.00168154
0.00398914
0.00377592
0.00438014
0.00497182
0.00556532
0.00608151
0.00648295
0.0068563
0.00716725
0.00737322
0.00743018
0.00728498
0.00681183
0.00548111
0.00132066
0.000819354
0.000562299
0.00118444
0.00166065
0.00202174
0.0022357
0.00224759
0.00177666
0.00152655
0.00134928
0.00121404
0.00110718
0.00102061
0.000947117
0.000878661
0.000812279
0.000753346
0.000701386
0.000832997
0.00042939
0.00205244
0.00541036
0.00460391
0.00573715
0.00625658
0.006634
0.00692894
0.00718863
0.00749057
0.00781837
0.00813366
0.00837766
0.00849717
0.00840433
0.00784062
0.00601807
0.00135983
0.00105777
0.00154144
0.00201031
0.00246608
0.00280576
0.00277328
0.00091221
0.000806917
0.00072138
0.000651944
0.000595192
0.000548389
0.000509509
0.000477244
0.000451028
0.00048722
0.000562512
0.000941174
0.000501691
0.00240871
0.00692254
0.00454347
0.00599105
0.00638368
0.00647737
0.00655561
0.00670236
0.00695549
0.00729649
0.0076893
0.00805021
0.00832189
0.00842881
0.00831238
0.00766626
0.0051464
0.00159145
0.0019086
0.00243734
0.00301787
0.00353661
0.00389594
0.00371317
0.00103249
0.000944883
0.000882526
0.000835117
0.000794582
0.000756557
0.000719909
0.000681212
0.000636091
0.000596862
0.000603172
0.00109301
0.000558904
0.00277185
0.00889642
0.00491143
0.00571103
0.00625265
0.00619646
0.00614244
0.00625265
0.00649014
0.00683865
0.0072729
0.00766987
0.00794797
0.00805591
0.00799511
0.0077378
0.00708366
0.00600277
0.00563704
0.00558114
0.00563988
0.00570914
0.0057209
0.00554423
0.00471564
0.00431421
0.00408157
0.00390068
0.0037083
0.00343284
0.00305064
0.00258101
0.00205726
0.00153606
0.00113437
0.00111942
0.000760531
0.000690118
0.000831886
0.000934232
0.00315749
0.0110611
0.00675821
0.00551891
0.00604256
0.00621404
0.00604667
0.00615068
0.0063483
0.00667207
0.00709442
0.00750817
0.00778445
0.00784606
0.00771054
0.00747744
0.00725804
0.00712108
0.0071378
0.00717642
0.00715182
0.00705245
0.00688164
0.00662572
0.00623925
0.00589232
0.00558573
0.00529315
0.00499748
0.00468179
0.0042805
0.00377455
0.00316317
0.00248391
0.00187352
0.00137958
0.00105628
0.000901377
0.00128199
0.000977155
0.00351935
0.0126213
0.00969166
0.00700786
0.00654236
0.00658239
0.00641996
0.00632868
0.00642473
0.006733
0.00717844
0.00761292
0.00787599
0.00787913
0.00766294
0.00740699
0.00734794
0.00755902
0.00782075
0.00791018
0.00779357
0.00752739
0.00716324
0.00673898
0.00629388
0.00589009
0.00553058
0.00520253
0.00490212
0.00463416
0.00439764
0.00407367
0.00360505
0.00302388
0.00245581
0.00193087
0.00155884
0.00144928
0.00148291
0.00111883
0.00359541
0.0114401
0.00993001
0.00880096
0.00810962
0.00734793
0.00670721
0.0064385
0.00656078
0.00697671
0.00751462
0.0079714
0.00817007
0.00805162
0.0077258
0.00747645
0.00757839
0.00792713
0.00807667
0.00791557
0.007531
0.00701176
0.00643677
0.00588082
0.00540073
0.00501245
0.00469633
0.00443608
0.00422948
0.00408302
0.00400562
0.00397221
0.0037471
0.00337828
0.00304693
0.00287925
0.00300561
0.00347641
0.00425227
0.00173543
0.00350531
0.00418981
0.00473683
0.00491205
0.00493037
0.00504633
0.00537924
0.00595989
0.00673705
0.00755807
0.00822911
0.00858101
0.00850348
0.00807295
0.00760913
0.00752485
0.0076037
0.00760488
0.00736642
0.0068906
0.00626928
0.00560591
0.00499619
0.00449867
0.0041207
0.00383469
0.00360812
0.00341975
0.00325694
0.00310982
0.00296964
0.00283616
0.00273017
0.00265199
0.00262207
0.00263143
0.00261064
0.00249826
0.0023301
0.00162267
0.00216781
0.00383736
0.00528649
0.00649656
0.00747725
0.00835662
0.00904323
0.00938891
0.00934256
0.00892221
0.00819378
0.00737497
0.00687608
0.00669543
0.00649453
0.00612313
0.00559066
0.00497892
0.00437132
0.00384352
0.00343844
0.00314775
0.0029421
0.00279321
0.00268254
0.00260028
0.00254174
0.0025052
0.00249389
0.00250999
0.00253771
0.00257301
0.00260638
0.00260853
0.0025331
0.00236642
0.00212398
0.00133188
0.00251603
0.00537045
0.00731855
0.00823
0.00883811
0.00925477
0.00921972
0.00863597
0.00774325
0.00678703
0.00598669
0.00540905
0.00502254
0.00467453
0.00425501
0.0037855
0.00332707
0.00293557
0.00263884
0.00243254
0.00229151
0.00219657
0.00214073
0.00211577
0.00211605
0.00213804
0.0021784
0.00223235
0.00230669
0.00239801
0.0025033
0.00261493
0.00271488
0.00278197
0.00276069
0.00277861
0.00274483
0.00135414
0.00230276
0.00231041
0.0023538
0.00242483
0.00219004
0.00200668
0.00191925
0.00183218
0.00170637
0.00155163
0.00137502
0.0011999
0.00104512
0.000922651
0.000834233
0.000772025
0.000727521
0.000695908
0.000675263
0.000664644
0.000662877
0.000668526
0.000680366
0.000697799
0.000719601
0.000745532
0.000775733
0.000810573
0.000850758
0.000897588
0.00095029
0.00100907
0.00107465
0.0011477
0.001228
0.00132493
0.00135518
0.00132052
0.0012371
0.00114816
)
;

boundaryField
{
    floor
    {
        type            compressible::alphatWallFunction;
        Prt             0.85;
        value           nonuniform List<scalar> 
29
(
0.000183502
7.51925e-05
9.08947e-05
0.000103223
0.000104247
0.000101203
9.6778e-05
9.05735e-05
8.41927e-05
7.83376e-05
7.31098e-05
6.84566e-05
6.43033e-05
6.05886e-05
5.72452e-05
5.4157e-05
5.11732e-05
4.80813e-05
4.6156e-05
4.13601e-05
4.13595e-05
5.83278e-05
6.95013e-05
7.8199e-05
0.0001835
7.51916e-05
7.87102e-05
0.000150405
0.000223244
)
;
    }
    ceiling
    {
        type            compressible::alphatWallFunction;
        Prt             0.85;
        value           nonuniform List<scalar> 
43
(
0.000316263
0.000317132
0.000322686
0.000331881
0.000301812
0.000278076
0.000266676
0.000255264
0.00023866
0.000218046
0.000194232
0.000170273
0.000148763
0.00013148
0.000118836
0.000109844
0.000103359
9.87229e-05
9.56816e-05
9.4113e-05
9.38518e-05
9.4687e-05
9.6435e-05
9.90017e-05
0.000102201
0.00010599
0.000110384
0.000115428
0.000121213
0.000127914
0.000135406
0.000143705
0.000152898
0.000163063
0.000174151
0.000187426
0.000191546
0.000186825
0.000175403
0.000163131
0.000467221
0.000550481
0.00034325
)
;
    }
    sWall
    {
        type            compressible::alphatWallFunction;
        Prt             0.85;
        value           uniform 0.000315092;
    }
    nWall
    {
        type            compressible::alphatWallFunction;
        Prt             0.85;
        value           nonuniform List<scalar> 6(0.000132803 0.000138874 0.000158712 0.000188044 0.000191072 0.000162804);
    }
    sideWalls
    {
        type            empty;
    }
    glass1
    {
        type            compressible::alphatWallFunction;
        Prt             0.85;
        value           nonuniform List<scalar> 9(0.000170713 0.000230129 0.000278307 0.000323787 0.000369479 0.000417365 0.00046179 0.000471199 0.000460433);
    }
    glass2
    {
        type            compressible::alphatWallFunction;
        Prt             0.85;
        value           nonuniform List<scalar> 2(0.000240746 0.000225901);
    }
    sun
    {
        type            compressible::alphatWallFunction;
        Prt             0.85;
        value           nonuniform List<scalar> 
14
(
0.000175033
0.00019041
0.000193878
0.000202753
0.000210938
0.000218625
0.000226231
0.000233477
0.000238561
0.000240536
0.000238483
0.000231728
0.000219907
0.000203264
)
;
    }
    heatsource1
    {
        type            compressible::alphatWallFunction;
        Prt             0.85;
        value           nonuniform List<scalar> 3(9.78638e-05 0.000118492 0.00013312);
    }
    heatsource2
    {
        type            compressible::alphatWallFunction;
        Prt             0.85;
        value           nonuniform List<scalar> 4(0.000186834 0.000116686 0.000116685 0.000192167);
    }
    Table_master
    {
        type            compressible::alphatWallFunction;
        Prt             0.85;
        value           nonuniform List<scalar> 9(0.000129986 0.000114889 0.000102451 9.22231e-05 8.37647e-05 7.67141e-05 7.08001e-05 6.58492e-05 6.17953e-05);
    }
    Table_slave
    {
        type            compressible::alphatWallFunction;
        Prt             0.85;
        value           nonuniform List<scalar> 9(0.000146988 0.000134631 0.000125755 0.000118957 0.000113108 0.000107589 0.000102238 9.65518e-05 8.9872e-05);
    }
    inlet
    {
        type            fixedValue;
        value           uniform 1.94e-05;
    }
    outlet
    {
        type            zeroGradient;
    }
}


// ************************************************************************* //
