/*--------------------------------*- C++ -*----------------------------------*\
  =========                 |
  \\      /  F ield         | OpenFOAM: The Open Source CFD Toolbox
   \\    /   O peration     | Website:  https://openfoam.org
    \\  /    A nd           | Version:  6
     \\/     M anipulation  |
\*---------------------------------------------------------------------------*/
FoamFile
{
    version     2.0;
    format      ascii;
    class       surfaceScalarField;
    location    "1300";
    object      phi;
}
// * * * * * * * * * * * * * * * * * * * * * * * * * * * * * * * * * * * * * //

dimensions      [1 0 -1 0 0 0 0];

internalField   nonuniform List<scalar> 
852
(
-0.00295829
0.00301561
-0.00399827
0.00103999
-0.00479864
0.000800364
-0.0054222
0.000623563
-0.00583552
0.000413325
-0.00601059
0.000175063
-0.00591925
-9.13363e-05
-0.00553947
-0.000379779
-0.0048869
-0.000652571
-0.00402633
-0.000860572
-0.00305753
-0.000968793
-0.00209224
-0.000965295
-0.0012327
-0.000859537
-0.000541123
-0.000691576
-0.000539462
-0.000777793
0.000780764
-0.000522823
-0.000254969
7.22496e-05
-0.000595072
0.000574725
-0.000502474
0.000924526
-0.000349801
0.00115328
-0.000228757
0.001281
-0.000127711
0.00134281
-6.18092e-05
0.00137704
-3.42375e-05
0.00139816
-2.11169e-05
0.00141019
-1.20242e-05
0.00141467
-4.47851e-06
0.00141027
4.39187e-06
0.00138949
2.078e-05
0.0013312
5.82964e-05
0.00119985
0.000131348
0.000983071
0.000216782
0.00071604
0.000267032
0.000720011
-0.00211922
0.00528929
-0.00313925
0.00206002
-0.00396823
0.00162935
-0.00458795
0.00124328
-0.00499961
0.000824985
-0.00518415
0.000359598
-0.00511014
-0.000165342
-0.00475973
-0.000730184
-0.00416106
-0.00125124
-0.00338959
-0.00163204
-0.00254342
-0.00181497
-0.00171735
-0.00179136
-0.000992125
-0.00158476
-0.000441952
-0.00124175
-0.000173353
-0.000808061
0.000117637
-0.00029104
0.000117586
0.000252192
0.000537227
0.000657973
-0.000660749
0.000926354
-0.000863453
0.00115185
-0.000727973
0.00133157
-0.000529515
0.00144801
-0.000345199
0.00146887
-0.000148571
0.00147396
-6.68931e-05
0.00148013
-4.04059e-05
0.00148531
-2.63035e-05
0.00148875
-1.54598e-05
0.0014906
-6.32725e-06
0.00149023
4.761e-06
0.00148443
2.65829e-05
0.00144551
9.72136e-05
0.00127881
0.000298054
0.000988871
0.000506718
0.00062505
0.000630854
0.00135517
-0.00148944
0.00701504
-0.00237187
0.00294245
-0.00311244
0.00236992
-0.00364841
0.00177924
-0.00401401
0.00119059
-0.00418508
0.000530673
-0.00410748
-0.000242941
-0.00375515
-0.00108252
-0.00318183
-0.00182456
-0.00248087
-0.00233299
-0.00174732
-0.00254852
-0.00105403
-0.00248465
-0.000453168
-0.00218562
2.04187e-05
-0.00171533
0.000332289
-0.00111993
0.000472765
-0.000431515
0.000590352
0.00149369
-0.000946986
0.00171383
-0.000880894
0.00167308
-0.000822705
0.00166288
-0.000717769
0.00168842
-0.000555053
0.00173179
-0.000388572
0.00158338
0.00151664
0.00147638
0.00145023
0.00143493
0.00142876
0.00143367
0.00146041
0.00155778
0.0012874
0.000568426
0.000955873
0.00083825
0.000537133
0.00104959
0.00190762
-0.00104295
0.00836401
-0.0017447
0.0036442
-0.00224251
0.00286773
-0.00260162
0.00213835
-0.00285361
0.00144258
-0.00296193
0.000638992
-0.00283001
-0.000374861
-0.0024405
-0.00147203
-0.00189427
-0.00237079
-0.00129388
-0.00293338
-0.000715034
-0.00312737
-0.000197669
-0.00300202
0.000242245
-0.00262553
0.000605198
-0.00207829
0.00092858
-0.00144331
0.00129367
-0.000796608
0.00214236
-0.000258333
0.00249977
-0.000349053
0.00214892
-0.000596131
0.00201349
-0.000745467
0.00188442
-0.000693634
0.00176858
-0.000601929
0.00169482
-0.000481293
0.00163498
-0.000328723
0.00177707
-0.000142245
0.00186409
-8.71757e-05
0.00193389
-6.99537e-05
0.00198851
-5.47655e-05
0.0020139
-2.55442e-05
0.00198837
2.53799e-05
0.00188637
0.000101845
0.00167436
0.000211855
0.00129719
0.000377014
0.00113801
0.000727614
0.000827284
0.00114897
0.000362085
0.00151479
0.00228968
-0.000728742
0.00945793
-0.00126209
0.00417755
-0.00138434
0.00298998
-0.00147804
0.00223205
-0.00154068
0.00150522
-0.00150327
0.00060158
-0.00123093
-0.0006472
-0.000791136
-0.00191182
-0.000315461
-0.00284646
0.00011693
-0.00336577
0.000471281
-0.00348172
0.000742681
-0.00327342
0.000952717
-0.00283557
0.00113113
-0.0022567
0.00131215
-0.00162434
0.00154375
-0.0010282
0.00186953
-0.000584108
0.00197614
-0.000455667
0.00189396
-0.000513955
0.0017176
-0.0005691
0.00155882
-0.000534858
0.00142283
-0.000465936
0.00132315
-0.000381612
0.00127581
-0.000281383
0.00131868
-0.000185113
0.00137286
-0.000141354
0.00143139
-0.000128484
0.00149104
-0.000114411
0.00154138
-7.58846e-05
0.00156206
4.69415e-06
0.00153146
0.000132452
0.00143739
0.000305919
0.00128069
0.000533717
0.00113481
0.000873497
0.000971061
0.00131272
0.000617958
0.0018679
0.000520552
0.00238709
-0.000986923
0.00150727
-0.00145126
0.000464133
-0.00140289
-0.000630969
0.0105039
-0.000997311
0.0045439
-0.000603543
0.00259621
-0.000311078
0.00193958
-9.75592e-05
0.0012917
0.000224322
0.000279699
0.000703522
-0.0011264
0.00114152
-0.00234982
0.0014552
-0.00316014
0.00163006
-0.00354064
0.00169139
-0.00354305
0.00167153
-0.00325356
0.001603
-0.00276704
0.00152341
-0.0021771
0.00146615
-0.00156708
0.0014563
-0.00101835
0.00148706
-0.000614866
0.00145503
-0.000423642
0.00133
-0.000388919
0.00115108
-0.000390178
0.000986753
-0.000370534
0.00085586
-0.000335042
0.000766603
-0.000292354
0.000729821
-0.000244601
0.000749182
-0.000204474
0.000799558
-0.000191729
0.000866669
-0.000195594
0.00094464
-0.000192382
0.00102756
-0.000158799
0.00110404
-7.1786e-05
0.00115562
8.08681e-05
0.00117644
0.000285104
0.00117532
0.000534837
0.00119677
0.000852041
0.00128713
0.00122237
0.00146269
0.00169234
0.00190186
0.00194791
0.00216145
0.00124769
0.00177163
0.000853951
0.000426855
-0.000717297
0.0116809
-0.000603481
0.00443008
0.000471728
0.00152101
0.00114758
0.00126373
0.00171848
0.000720803
0.00236225
-0.000364075
0.00291736
-0.0016815
0.00322472
-0.00265717
0.0032781
-0.00321353
0.0031231
-0.00338563
0.00282361
-0.00324356
0.00244376
-0.00287371
0.00203847
-0.00236175
0.00165615
-0.00179478
0.00132976
-0.00124069
0.0010795
-0.000768085
0.00090236
-0.000437728
0.000751469
-0.00027275
0.000591456
-0.000228905
0.000430147
-0.000228868
0.000290904
-0.00023129
0.000185183
-0.00022932
0.000117553
-0.000224724
9.25756e-05
-0.000219623
0.000108785
-0.000220683
0.00015248
-0.000235423
0.000212949
-0.000256062
0.000288175
-0.000267608
0.000382084
-0.000252708
0.000499672
-0.000189373
0.000629677
-4.91365e-05
0.000760228
0.000154555
0.000900669
0.000394396
0.00108901
0.000663703
0.00137174
0.000939637
0.00181456
0.00124952
0.00248322
0.00127926
0.00302644
0.000704463
0.00304607
0.00083432
0.00353554
0.00260199
0.00959243
0.00327908
0.00375299
0.00344233
0.00135776
0.00389268
0.000813382
0.00458089
3.26003e-05
0.00527303
-0.00105622
0.00555693
-0.00196539
0.00543467
-0.00253492
0.00499323
-0.00277209
0.00433696
-0.00272936
0.00356809
-0.00247469
0.00277317
-0.00207878
0.00201272
-0.0016013
0.00134184
-0.00112391
0.000787827
-0.000686679
0.000373109
-0.000353367
9.66085e-05
-0.000161227
-8.76242e-05
-8.8517e-05
-0.000229126
-8.7403e-05
-0.000348761
-0.000109233
-0.00044755
-0.000132501
-0.000523116
-0.000153753
-0.000574336
-0.000173503
-0.000600623
-0.000193335
-0.000604953
-0.000216352
-0.000596159
-0.000244217
-0.000580371
-0.00027185
-0.000557176
-0.000290802
-0.000518566
-0.000291317
-0.000445927
-0.000262011
-0.000308944
-0.000186119
-0.000121028
-3.33607e-05
9.97661e-05
0.000173603
0.000373282
0.000390188
0.000710219
0.000602701
0.00115125
0.000808489
0.00162822
0.000802291
0.00182208
0.000510601
0.00107278
0.00158362
0.00486663
0.0101561
0.0139018
0.012227
0.00303255
0.011324
0.00171644
0.0105891
0.000767485
0.00970027
-0.000167415
0.00855477
-0.000819892
0.00725936
-0.0012395
0.00590808
-0.0014208
0.00456976
-0.00139104
0.00330746
-0.00121239
0.00217162
-0.00094294
0.0011734
-0.000603079
0.000355001
-0.000305501
-0.000248468
-8.32095e-05
-0.000624373
2.25385e-05
-0.000828384
4.27849e-05
-0.000945055
2.81548e-05
-0.00103197
-4.82987e-07
-0.00110978
-3.14239e-05
-0.00118105
-6.12358e-05
-0.00124529
-8.95098e-05
-0.00130277
-0.00011602
-0.00135495
-0.000141158
-0.00140578
-0.00016552
-0.00146257
-0.000187431
-0.00153284
-0.000201572
-0.00162408
-0.000199567
-0.00174541
-0.000169987
-0.00190844
-9.8975e-05
-0.00212071
2.61506e-05
-0.00236898
0.000214906
-0.00267768
0.000482311
-0.00313255
0.000845057
-0.00382939
0.00129954
-0.00483313
0.00181223
-0.00625786
0.00222702
-0.00797399
0.00222673
-0.00746788
0.00107751
-0.00231506
0.0051009
0.00455965
0.00409847
0.00271887
0.00449959
0.000366367
0.00454068
-0.000208502
0.00413396
-0.000413175
0.00345073
-0.00055627
0.00260336
-0.000573433
0.00168425
-0.000471932
0.000767518
-0.000295655
-9.26976e-05
-8.27239e-05
-0.000792123
9.63466e-05
-0.00125098
0.000153356
-0.00149971
0.000165523
-0.00162203
0.000144862
-0.00168985
0.000110602
-0.00173799
7.63e-05
-0.00178312
4.46434e-05
-0.00183184
1.73002e-05
-0.00188764
-5.44239e-06
-0.0019506
-2.65479e-05
-0.00202019
-4.64227e-05
-0.00209757
-6.37829e-05
-0.0021842
-7.88923e-05
-0.00228219
-8.9432e-05
-0.00239271
-9.10569e-05
-0.00251461
-7.76639e-05
-0.00264334
-4.12613e-05
-0.00277022
2.79131e-05
-0.00288319
0.000139113
-0.0029798
0.000311522
-0.00306841
0.000570917
-0.00315581
0.000932466
-0.00323967
0.0013834
-0.00327364
0.00184621
-0.00319919
0.00215257
-0.00283672
0.00186425
-0.00156452
-0.000194684
-0.00380469
-0.000410196
0.00502655
0.000866043
0.00144263
0.000828955
0.000403455
0.000557523
6.29302e-05
0.000180947
-3.65985e-05
-0.000341021
-3.43019e-05
-0.000930594
1.61407e-05
-0.00148201
7.94839e-05
-0.0019148
0.00013714
-0.00217865
0.000181122
-0.00228363
0.000201328
-0.00231863
0.000188357
-0.002316
0.00016289
-0.00230515
0.000134019
-0.0023022
0.000107647
-0.00231105
8.51531e-05
-0.00233152
6.51117e-05
-0.00236104
4.68177e-05
-0.00239679
3.03173e-05
-0.0024391
1.57609e-05
-0.00248768
2.15363e-06
-0.00254198
-9.47921e-06
-0.00260179
-1.90782e-05
-0.00266551
-2.57136e-05
-0.00272925
-2.73208e-05
-0.00278619
-2.07248e-05
-0.00282565
-1.79703e-06
-0.00283586
3.81279e-05
-0.00280433
0.000107584
-0.00270787
0.000215062
-0.00251361
0.00037665
-0.00219415
0.000613008
-0.0017342
0.000923446
-0.00110996
0.00122197
-0.000141823
0.00118443
0.00116101
0.000561425
0.00157423
-0.000607903
-0.00214827
0.000271454
-0.0107891
-0.00571852
-0.00425295
-0.00383536
-0.00376319
-0.00379366
-0.00382413
-0.00380589
-0.0037256
-0.00358875
-0.00340886
-0.00320957
-0.00302396
-0.00286437
-0.00273411
-0.00263058
-0.00254982
-0.00248931
-0.00244724
-0.00242174
-0.00241083
-0.00241352
-0.0024278
-0.00245162
-0.00248198
-0.00251385
-0.00253901
-0.00254512
-0.00251114
-0.00240756
-0.00219635
-0.00182341
-0.00121397
-0.000293998
0.00092455
0.00210546
0.00266318
0.00205132
)
;

boundaryField
{
    floor
    {
        type            calculated;
        value           nonuniform List<scalar> 
29
(
0
0
0
0
0
0
0
0
0
0
0
0
0
0
0
0
0
0
0
0
-3.97018e-06
-1.0113e-05
-1.53153e-05
-1.99713e-05
-1.66088e-06
-2.97004e-06
-8.65402e-06
-9.4723e-06
-8.36042e-06
)
;
    }
    ceiling
    {
        type            calculated;
        value           nonuniform List<scalar> 
43
(
-2.34317e-05
-4.36661e-05
-4.40312e-05
-2.29311e-05
-1.41401e-05
-9.24102e-06
-6.12474e-06
-3.82885e-06
-2.10487e-06
-7.98974e-07
2.89318e-07
1.22781e-06
2.0447e-06
2.74022e-06
3.30671e-06
3.7573e-06
4.1151e-06
4.39548e-06
4.604e-06
4.74412e-06
4.82356e-06
4.85339e-06
4.84397e-06
4.80158e-06
4.73638e-06
4.65238e-06
4.55167e-06
4.43555e-06
4.30444e-06
4.157e-06
4.00391e-06
3.85171e-06
3.70596e-06
3.57438e-06
3.47122e-06
3.42628e-06
3.51688e-06
3.70418e-06
3.96441e-06
5.01831e-06
1.02796e-05
7.23269e-06
-5.66961e-05
)
;
    }
    sWall
    {
        type            calculated;
        value           uniform -0.000230203;
    }
    nWall
    {
        type            calculated;
        value           nonuniform List<scalar> 6(-4.85725e-05 -5.81143e-05 -6.2609e-05 -7.48891e-05 -8.21959e-05 -0.000101967);
    }
    sideWalls
    {
        type            empty;
        value           nonuniform 0();
    }
    glass1
    {
        type            calculated;
        value           nonuniform List<scalar> 9(-5.73204e-05 -0.000154459 -0.000236319 -0.000306013 -0.000365181 -0.000415047 -0.000459618 -0.000513551 -0.000573912);
    }
    glass2
    {
        type            calculated;
        value           nonuniform List<scalar> 2(-0.00025831 -0.000286189);
    }
    sun
    {
        type            calculated;
        value           uniform 0;
    }
    heatsource1
    {
        type            calculated;
        value           nonuniform List<scalar> 3(2.04188e-07 2.0413e-07 2.04148e-07);
    }
    heatsource2
    {
        type            calculated;
        value           nonuniform List<scalar> 4(5.11921e-08 5.12768e-08 0 0);
    }
    Table_master
    {
        type            calculated;
        value           nonuniform List<scalar> 9(-1.53138e-07 -1.53228e-07 -1.53261e-07 -1.53283e-07 -1.53298e-07 -1.53309e-07 -1.53314e-07 -1.53309e-07 -1.53279e-07);
    }
    Table_slave
    {
        type            calculated;
        value           nonuniform List<scalar> 9(1.53016e-07 1.53035e-07 1.53013e-07 1.52995e-07 1.52988e-07 1.52991e-07 1.53006e-07 1.53048e-07 1.53129e-07);
    }
    inlet
    {
        type            calculated;
        value           uniform -0.00662801;
    }
    outlet
    {
        type            calculated;
        value           nonuniform List<scalar> 2(-1.78199e-05 0.0111042);
    }
}


// ************************************************************************* //
