/*--------------------------------*- C++ -*----------------------------------*\
  =========                 |
  \\      /  F ield         | OpenFOAM: The Open Source CFD Toolbox
   \\    /   O peration     | Website:  https://openfoam.org
    \\  /    A nd           | Version:  6
     \\/     M anipulation  |
\*---------------------------------------------------------------------------*/
FoamFile
{
    version     2.0;
    format      ascii;
    class       volScalarField;
    location    "1600";
    object      nut;
}
// * * * * * * * * * * * * * * * * * * * * * * * * * * * * * * * * * * * * * //

dimensions      [0 2 -1 0 0 0 0];

internalField   nonuniform List<scalar> 
459
(
0.00106518
0.00116134
0.00118328
0.00123974
0.00129207
0.00134143
0.00139049
0.00143732
0.00147021
0.00148288
0.00146932
0.00142527
0.00134871
0.00124179
0.00111621
0.000464596
0.000554827
0.000627141
0.000633524
0.000615771
0.000589926
0.000553764
0.000516833
0.000483215
0.000453433
0.000427124
0.000403808
0.000383089
0.00036456
0.000347547
0.000331209
0.000314387
0.000303865
0.000278109
0.00145078
0.00344154
0.00325655
0.00377694
0.00428691
0.00479817
0.00524236
0.00558827
0.00590992
0.00617773
0.00635509
0.00640421
0.00627952
0.0058729
0.00472969
0.00113652
0.000706326
0.000484484
0.00102259
0.00143487
0.00174811
0.00193415
0.00194457
0.00153576
0.00131927
0.001166
0.00104912
0.000956806
0.000882032
0.000818587
0.000759405
0.000701895
0.000650724
0.000605498
0.00071801
0.000369676
0.00177181
0.00466994
0.0039733
0.00494785
0.00539487
0.00571962
0.00597336
0.00619731
0.00645784
0.00674062
0.00701254
0.00722315
0.00732669
0.00724644
0.00675943
0.00518565
0.00117107
0.000910709
0.00132942
0.00173617
0.00213211
0.00242754
0.00239929
0.000787206
0.000696238
0.00062236
0.000562395
0.000513384
0.000472962
0.000439377
0.000411501
0.000388851
0.000420377
0.000485452
0.000810604
0.00043161
0.00208051
0.00597525
0.00392405
0.00516807
0.00550446
0.00558418
0.00565136
0.00577844
0.00599728
0.00629159
0.00663028
0.00694173
0.00717675
0.00726904
0.00716805
0.00660847
0.00443091
0.00137049
0.00164495
0.00210317
0.00260694
0.00305771
0.00337043
0.0032121
0.000891354
0.000815696
0.000761884
0.000720993
0.000686022
0.000653216
0.000621554
0.000588074
0.000548993
0.00051535
0.000520671
0.000941459
0.000480608
0.00239541
0.00767787
0.00424355
0.00492944
0.00539147
0.00534054
0.00529416
0.00539121
0.00559657
0.00589717
0.00627107
0.00661336
0.00685379
0.00694798
0.00689672
0.00667517
0.0061102
0.00517821
0.00486461
0.00481916
0.00487308
0.00493622
0.00494959
0.00479926
0.00408242
0.00373662
0.00353666
0.00338092
0.00321467
0.00297601
0.00264477
0.00223749
0.00178285
0.00133048
0.000981256
0.000963865
0.000654221
0.000593847
0.000716101
0.000804315
0.0027299
0.00954548
0.00583678
0.00476827
0.0052138
0.00535588
0.00521367
0.00530483
0.00547494
0.00575332
0.00611672
0.00647315
0.00671191
0.00676665
0.00665238
0.00645429
0.00626758
0.00615121
0.00616725
0.0062028
0.00618473
0.00610289
0.00595991
0.00574314
0.00541167
0.00511237
0.00484584
0.00458975
0.00433013
0.00405341
0.00370397
0.00326494
0.00273542
0.00214753
0.00161907
0.00118875
0.000909605
0.000776485
0.0011035
0.000841319
0.0030438
0.0108941
0.008366
0.00605458
0.00565279
0.00568191
0.00554006
0.00545995
0.00554135
0.00580567
0.0061885
0.00656263
0.00679015
0.00679507
0.00661262
0.00639717
0.00635187
0.00653773
0.00676539
0.00684505
0.00674874
0.00652456
0.00621561
0.00585228
0.00546649
0.00511177
0.00479227
0.00449888
0.00423016
0.00399172
0.00378358
0.00350172
0.00309835
0.00260094
0.00211604
0.00166739
0.00135163
0.00126376
0.00129351
0.000967433
0.00311164
0.00988327
0.00857636
0.00760153
0.00700622
0.006344
0.00578841
0.00555447
0.00565798
0.00601476
0.00647709
0.00687075
0.00704352
0.00694475
0.00667005
0.00646324
0.00655937
0.00686448
0.00699616
0.00686257
0.00653701
0.00609315
0.00559626
0.00510939
0.00468273
0.00433289
0.00404608
0.00381063
0.00362585
0.00349686
0.00342949
0.00340085
0.00320935
0.00290121
0.00262927
0.00250331
0.00263355
0.003051
0.00371059
0.00149979
0.00303662
0.00362579
0.00409559
0.00424358
0.00425645
0.00435561
0.00464063
0.00513911
0.00580695
0.00651278
0.00709052
0.00739558
0.00733222
0.00696664
0.0065786
0.00651682
0.00659224
0.00659884
0.00639879
0.00599328
0.0054577
0.00487819
0.00433739
0.00388924
0.00354481
0.00328417
0.0030814
0.00291863
0.00278395
0.00266677
0.00255724
0.00245294
0.00236953
0.0023074
0.002285
0.00229457
0.00227536
0.00217386
0.00202412
0.00140225
0.00182776
0.00325959
0.00451435
0.00555948
0.00641094
0.00717769
0.00777659
0.0080804
0.00804666
0.00769344
0.00707624
0.00638187
0.00596332
0.00581487
0.00564806
0.00533297
0.00487448
0.00433976
0.00380032
0.00332426
0.00295391
0.00268674
0.00249989
0.00236938
0.00227819
0.002216
0.00217659
0.00215656
0.00215727
0.00217965
0.00221012
0.00224508
0.00227613
0.00227769
0.0022095
0.00206042
0.00184531
0.00114967
0.00212823
0.00456222
0.00625322
0.00704928
0.0075884
0.00796359
0.00793644
0.00744022
0.00667953
0.00586546
0.0051842
0.00469372
0.00436639
0.00407024
0.00371085
0.0033036
0.00289898
0.00254628
0.00227316
0.0020798
0.00194706
0.00185941
0.00181002
0.0017912
0.001797
0.00182331
0.0018664
0.00192152
0.00199391
0.00208049
0.00217833
0.00228049
0.00237082
0.00243054
0.00241102
0.00242228
0.00239238
0.00116935
0.00183044
0.0019276
0.00199948
0.00206899
0.00187713
0.00172535
0.00165299
0.00157914
0.00147151
0.00133829
0.00118662
0.00103641
0.000903776
0.00079885
0.000723073
0.000669627
0.000631133
0.000603397
0.000584791
0.000574636
0.000572089
0.000576038
0.000585492
0.000599938
0.000618366
0.000640513
0.00066648
0.000696567
0.00073137
0.000772014
0.000817851
0.000869052
0.00092623
0.000989945
0.00105996
0.00114435
0.0011707
0.00114053
0.00106792
0.000990353
)
;

boundaryField
{
    floor
    {
        type            nutkWallFunction;
        Cmu             0.09;
        kappa           0.41;
        E               9.8;
        value           nonuniform List<scalar> 
29
(
0.00013431
5.51645e-05
6.66726e-05
7.57285e-05
7.65215e-05
7.43134e-05
7.10848e-05
6.65384e-05
6.18575e-05
5.75602e-05
5.37223e-05
5.03056e-05
4.72552e-05
4.45258e-05
4.20687e-05
3.97986e-05
3.7605e-05
3.53315e-05
3.39014e-05
3.03724e-05
3.03723e-05
4.27481e-05
5.08893e-05
5.72247e-05
0.00013431
5.51644e-05
5.77229e-05
0.000110161
0.000163506
)
;
    }
    ceiling
    {
        type            nutkWallFunction;
        Cmu             0.09;
        kappa           0.41;
        E               9.8;
        value           nonuniform List<scalar> 
43
(
0.000214723
0.000225366
0.000233203
0.000240847
0.000219959
0.000203253
0.000195234
0.000187004
0.00017493
0.000159846
0.000142464
0.000125
0.000109336
9.67563e-05
8.75506e-05
8.09892e-05
7.62247e-05
7.27699e-05
7.04417e-05
6.91671e-05
6.8847e-05
6.93432e-05
7.05295e-05
7.23376e-05
7.46366e-05
7.73886e-05
8.06008e-05
8.4304e-05
8.85639e-05
9.35084e-05
9.90482e-05
0.000105193
0.000112006
0.000119541
0.000127758
0.000137579
0.000140629
0.000137137
0.000128688
0.00011959
0.000343942
0.000404841
0.000247063
)
;
    }
    sWall
    {
        type            nutkWallFunction;
        Cmu             0.09;
        kappa           0.41;
        E               9.8;
        value           uniform 0.000214782;
    }
    nWall
    {
        type            nutkWallFunction;
        Cmu             0.09;
        kappa           0.41;
        E               9.8;
        value           nonuniform List<scalar> 6(9.74168e-05 0.000101872 0.000116889 0.000138206 0.000140483 0.000119596);
    }
    sideWalls
    {
        type            empty;
    }
    glass1
    {
        type            nutkWallFunction;
        Cmu             0.09;
        kappa           0.41;
        E               9.8;
        value           nonuniform List<scalar> 9(0.000128467 0.000172812 0.000208712 0.000242563 0.000276541 0.000312119 0.000345094 0.000352183 0.000344369);
    }
    glass2
    {
        type            nutkWallFunction;
        Cmu             0.09;
        kappa           0.41;
        E               9.8;
        value           nonuniform List<scalar> 2(0.000178194 0.00016718);
    }
    sun
    {
        type            nutkWallFunction;
        Cmu             0.09;
        kappa           0.41;
        E               9.8;
        value           nonuniform List<scalar> 
14
(
0.000128369
0.000139544
0.000142078
0.000148578
0.000154573
0.000160204
0.000165776
0.000171076
0.000174786
0.000176212
0.000174685
0.000169713
0.000161031
0.000148812
)
;
    }
    heatsource1
    {
        type            nutkWallFunction;
        Cmu             0.09;
        kappa           0.41;
        E               9.8;
        value           nonuniform List<scalar> 3(7.15775e-05 8.66984e-05 9.7416e-05);
    }
    heatsource2
    {
        type            nutkWallFunction;
        Cmu             0.09;
        kappa           0.41;
        E               9.8;
        value           nonuniform List<scalar> 4(0.000136664 8.55025e-05 8.55025e-05 0.000140664);
    }
    Table_master
    {
        type            nutkWallFunction;
        Cmu             0.09;
        kappa           0.41;
        E               9.8;
        value           nonuniform List<scalar> 9(9.53486e-05 8.42648e-05 7.51361e-05 6.76303e-05 6.1423e-05 5.62484e-05 5.19071e-05 4.82721e-05 4.52956e-05);
    }
    Table_slave
    {
        type            nutkWallFunction;
        Cmu             0.09;
        kappa           0.41;
        E               9.8;
        value           nonuniform List<scalar> 9(0.000107855 9.87881e-05 9.22793e-05 8.7297e-05 8.30094e-05 7.89635e-05 7.50353e-05 7.08552e-05 6.5939e-05);
    }
    inlet
    {
        type            calculated;
        value           uniform 0.000100623;
    }
    outlet
    {
        type            calculated;
        value           nonuniform List<scalar> 2(0.00183044 0.0019276);
    }
}


// ************************************************************************* //
