/*--------------------------------*- C++ -*----------------------------------*\
  =========                 |
  \\      /  F ield         | OpenFOAM: The Open Source CFD Toolbox
   \\    /   O peration     | Website:  https://openfoam.org
    \\  /    A nd           | Version:  6
     \\/     M anipulation  |
\*---------------------------------------------------------------------------*/
FoamFile
{
    version     2.0;
    format      ascii;
    class       volScalarField;
    location    "300";
    object      nut;
}
// * * * * * * * * * * * * * * * * * * * * * * * * * * * * * * * * * * * * * //

dimensions      [0 2 -1 0 0 0 0];

internalField   nonuniform List<scalar> 
459
(
0.000712993
0.000721531
0.000592913
0.000601445
0.000622432
0.000644521
0.00066691
0.000689747
0.000713729
0.000738422
0.000760708
0.000779484
0.00079392
0.000803022
0.00080134
0.000349756
0.00038432
0.000402205
0.000343056
0.000275337
0.000236406
0.000219619
0.000232878
0.000255724
0.000284761
0.00031529
0.000344769
0.000371181
0.000390271
0.00040773
0.00042039
0.000421038
0.000434912
0.000385311
0.00131495
0.0024863
0.00143477
0.00217084
0.00240517
0.00255356
0.0027067
0.00285349
0.00297357
0.00305567
0.00308824
0.00304013
0.0028587
0.00245508
0.0017389
0.000879894
0.000592881
0.000495737
0.000971121
0.00111863
0.00110235
0.000848453
0.000484686
0.000340003
0.000416861
0.000582005
0.000787324
0.000992411
0.00118402
0.00135875
0.00148878
0.00159414
0.00170487
0.00158937
0.00159951
0.000484446
0.00184673
0.00455136
0.00175462
0.00269045
0.00361833
0.00389506
0.00407728
0.00423091
0.0043467
0.00441894
0.00442928
0.00433891
0.00408557
0.00358347
0.00277985
0.00180705
0.000952522
0.000807798
0.00217117
0.00193581
0.00159676
0.00113661
0.000712845
0.000319471
0.000345795
0.000381943
0.000418348
0.000455759
0.000495375
0.000539295
0.00059134
0.000656395
0.00151454
0.00129679
0.00105236
0.000681453
0.00233033
0.00694316
0.00266508
0.00255285
0.00407608
0.00461068
0.00486469
0.00506801
0.00523957
0.00537064
0.00546786
0.00549299
0.00537426
0.00499961
0.00424169
0.00307979
0.00181982
0.00106756
0.00275729
0.0027535
0.00237896
0.00183446
0.00135741
0.000976184
0.000672709
0.000670697
0.000669475
0.000669999
0.000675299
0.000689363
0.000717316
0.00076666
0.000854074
0.0025213
0.00276316
0.0025342
0.000974314
0.0027611
0.00931702
0.0042948
0.00271533
0.00386732
0.00465415
0.00504695
0.00533933
0.00559385
0.00583001
0.00609723
0.00637976
0.00663556
0.00680372
0.00681121
0.0065995
0.00618025
0.00568437
0.00556546
0.00518266
0.0047602
0.00441996
0.00415779
0.00391186
0.00369116
0.00352311
0.00334668
0.00317206
0.00302571
0.00293793
0.00292816
0.00299657
0.00312994
0.00332284
0.00339026
0.00333458
0.00286855
0.00128571
0.00112699
0.000979388
0.00315194
0.0113195
0.00683786
0.00406174
0.00362206
0.00406733
0.00457154
0.00497543
0.0052753
0.0055844
0.00598322
0.00646223
0.00698264
0.00748347
0.00788896
0.00811914
0.0081111
0.00786969
0.00750039
0.00707108
0.00666522
0.00631873
0.00602328
0.00575557
0.00548923
0.00520065
0.0048744
0.00451566
0.00415639
0.00385153
0.00365014
0.00356006
0.00354611
0.00355348
0.00353052
0.00342655
0.0031503
0.00265602
0.00194036
0.00101935
0.00348144
0.0125203
0.00985858
0.00683021
0.00485026
0.00413558
0.00422954
0.00454012
0.00474344
0.00499071
0.00535252
0.00586283
0.00650501
0.00720852
0.00787036
0.00838167
0.00865096
0.00865279
0.00845591
0.00815546
0.00782966
0.00752199
0.00724615
0.00699888
0.00676289
0.00651342
0.00622212
0.00586036
0.00541722
0.0049275
0.0044741
0.00412546
0.00389019
0.00372218
0.00355605
0.00332571
0.00297267
0.00250512
0.00198364
0.00101592
0.00350008
0.0113577
0.0101039
0.00906896
0.0073151
0.00592058
0.00519184
0.00491379
0.00478953
0.00475266
0.00484551
0.00511083
0.00558106
0.00624458
0.00701184
0.007738
0.0082758
0.00854066
0.00858399
0.00847779
0.00829161
0.00807755
0.0078686
0.00768286
0.00752532
0.00739118
0.00726499
0.00711383
0.00688719
0.00654202
0.00609862
0.00560224
0.00511476
0.0046723
0.00426242
0.0038668
0.00342633
0.00299493
0.00268511
0.00144475
0.00333842
0.00385075
0.0083356
0.00896266
0.00799166
0.00686585
0.00597071
0.00535483
0.00494952
0.00470789
0.00462164
0.00467997
0.0048919
0.00527986
0.00584034
0.0064985
0.00711907
0.0075852
0.00786405
0.00797886
0.00797543
0.00790041
0.00779272
0.00768203
0.00758995
0.00753265
0.00752244
0.00756114
0.00762539
0.00764601
0.00752617
0.00727262
0.00696371
0.0067467
0.00671418
0.00660913
0.00604863
0.00493917
0.00510591
0.00160784
0.0179506
0.0168588
0.00980144
0.00772171
0.00661598
0.00588923
0.00539556
0.00506803
0.00486305
0.00476265
0.00476346
0.00486962
0.00508781
0.00541143
0.00580458
0.00620429
0.00654995
0.00680604
0.00696566
0.0070419
0.00705732
0.00703656
0.00700262
0.00697814
0.00698665
0.00704928
0.00717373
0.00732615
0.0074545
0.00750503
0.00744515
0.00730931
0.00714092
0.00681366
0.0061766
0.00522904
0.00449863
0.00156045
0.00652462
0.0135453
0.00950598
0.00746051
0.00632515
0.0056051
0.00513241
0.00483001
0.00464979
0.00456805
0.00457364
0.00465664
0.00480452
0.00499661
0.0052181
0.00544931
0.00566711
0.00585111
0.00598941
0.00608015
0.00612917
0.00614517
0.00613147
0.00610277
0.00607521
0.00606203
0.00606285
0.00607555
0.00609638
0.0061068
0.00608215
0.00600661
0.00585848
0.00550581
0.00497045
0.00419369
0.00399768
0.0014187
0.0017898
0.00271518
0.00473004
0.00428822
0.0035327
0.0029542
0.00253457
0.0022237
0.00198648
0.00180143
0.00165637
0.00154349
0.00145652
0.00139126
0.00134494
0.00131583
0.00130055
0.00129539
0.00129641
0.00129994
0.00130308
0.00130405
0.00130208
0.00129725
0.00129077
0.00128283
0.00127379
0.00126421
0.00125576
0.00125013
0.00124721
0.00124516
0.00124023
0.00122698
0.00120085
0.00117281
0.0011386
0.00109509
0.00110949
0.00102834
)
;

boundaryField
{
    floor
    {
        type            nutkWallFunction;
        Cmu             0.09;
        kappa           0.41;
        E               9.8;
        value           nonuniform List<scalar> 
29
(
9.70591e-05
4.01203e-05
4.47126e-05
4.70675e-05
3.92228e-05
3.00194e-05
2.45944e-05
2.22185e-05
2.40966e-05
2.72995e-05
3.13158e-05
3.54801e-05
3.94513e-05
4.29719e-05
4.54968e-05
4.77928e-05
4.94498e-05
4.95332e-05
5.13387e-05
4.48419e-05
4.48418e-05
5.77377e-05
8.24469e-05
0.000117699
9.70592e-05
4.01202e-05
5.9181e-05
9.7839e-05
0.000128647
)
;
    }
    ceiling
    {
        type            nutkWallFunction;
        Cmu             0.09;
        kappa           0.41;
        E               9.8;
        value           nonuniform List<scalar> 
43
(
0.00021058
0.000310399
0.000516832
0.000472417
0.000395454
0.000335418
0.000291125
0.000257825
0.000232085
0.000211779
0.000195704
0.000183089
0.000173299
0.000165911
0.000160643
0.00015732
0.000155572
0.000154979
0.000155095
0.000155497
0.000155855
0.000155964
0.000155739
0.000155186
0.000154445
0.000153536
0.000152499
0.0001514
0.00015043
0.000149784
0.000149448
0.000149213
0.000148646
0.000147123
0.000144113
0.000140875
0.000136914
0.000131856
0.000133531
0.000124055
0.000375318
0.000427879
0.00069321
)
;
    }
    sWall
    {
        type            nutkWallFunction;
        Cmu             0.09;
        kappa           0.41;
        E               9.8;
        value           uniform 0.000210627;
    }
    nWall
    {
        type            nutkWallFunction;
        Cmu             0.09;
        kappa           0.41;
        E               9.8;
        value           nonuniform List<scalar> 6(0.000118309 0.000123013 0.000122609 0.000184954 0.000168996 0.000124061);
    }
    sideWalls
    {
        type            empty;
    }
    glass1
    {
        type            nutkWallFunction;
        Cmu             0.09;
        kappa           0.41;
        E               9.8;
        value           nonuniform List<scalar> 9(8.62852e-05 0.000157367 0.000216986 0.000269563 0.000315416 0.000356374 0.000390498 0.000392432 0.000375764);
    }
    glass2
    {
        type            nutkWallFunction;
        Cmu             0.09;
        kappa           0.41;
        E               9.8;
        value           nonuniform List<scalar> 2(0.000171988 0.000190307);
    }
    sun
    {
        type            nutkWallFunction;
        Cmu             0.09;
        kappa           0.41;
        E               9.8;
        value           nonuniform List<scalar> 
14
(
8.63169e-05
8.73623e-05
7.14593e-05
7.2527e-05
7.5144e-05
7.78869e-05
8.06556e-05
8.34682e-05
8.64097e-05
8.94263e-05
9.21385e-05
9.44162e-05
9.6163e-05
9.72623e-05
)
;
    }
    heatsource1
    {
        type            nutkWallFunction;
        Cmu             0.09;
        kappa           0.41;
        E               9.8;
        value           nonuniform List<scalar> 3(0.000153863 0.000135575 0.000118304);
    }
    heatsource2
    {
        type            nutkWallFunction;
        Cmu             0.09;
        kappa           0.41;
        E               9.8;
        value           nonuniform List<scalar> 4(0.00010649 7.14601e-05 7.14601e-05 0.000115123);
    }
    Table_master
    {
        type            nutkWallFunction;
        Cmu             0.09;
        kappa           0.41;
        E               9.8;
        value           nonuniform List<scalar> 9(3.60579e-05 3.95972e-05 4.44024e-05 4.91838e-05 5.40431e-05 5.91349e-05 6.47218e-05 7.1271e-05 7.93605e-05);
    }
    Table_slave
    {
        type            nutkWallFunction;
        Cmu             0.09;
        kappa           0.41;
        E               9.8;
        value           nonuniform List<scalar> 9(8.13699e-05 8.11214e-05 8.09702e-05 8.10343e-05 8.1687e-05 8.34169e-05 8.68436e-05 9.28553e-05 0.000103397);
    }
    inlet
    {
        type            calculated;
        value           uniform 0.0179506;
    }
    outlet
    {
        type            calculated;
        value           nonuniform List<scalar> 2(0.0017898 0.00271518);
    }
}


// ************************************************************************* //
