/*--------------------------------*- C++ -*----------------------------------*\
  =========                 |
  \\      /  F ield         | OpenFOAM: The Open Source CFD Toolbox
   \\    /   O peration     | Website:  https://openfoam.org
    \\  /    A nd           | Version:  6
     \\/     M anipulation  |
\*---------------------------------------------------------------------------*/
FoamFile
{
    version     2.0;
    format      ascii;
    class       volScalarField;
    location    "1000";
    object      alphat;
}
// * * * * * * * * * * * * * * * * * * * * * * * * * * * * * * * * * * * * * //

dimensions      [1 -1 -1 0 0 0 0];

internalField   nonuniform List<scalar> 
459
(
0.00123719
0.0013499
0.00137556
0.00144123
0.0015021
0.00155955
0.00161665
0.00167105
0.00170914
0.00172359
0.00170741
0.00165565
0.00156594
0.00144085
0.00129429
0.000535744
0.000637895
0.000720426
0.000727862
0.000706564
0.00067617
0.000633906
0.000590869
0.000551787
0.000517245
0.000486796
0.000459869
0.000435967
0.00041465
0.000395141
0.000376474
0.00035738
0.000346405
0.000318095
0.00168344
0.00399116
0.00377444
0.00437681
0.00496803
0.00556095
0.00607613
0.00647898
0.00685387
0.00716613
0.00737304
0.00743087
0.00728725
0.00681789
0.00549862
0.00131755
0.000820491
0.000558035
0.00117373
0.00164234
0.00199608
0.00220479
0.00221301
0.00174539
0.0014961
0.00131925
0.0011844
0.00107794
0.000991751
0.000919292
0.000852197
0.000787542
0.000730134
0.000679632
0.000817234
0.000425685
0.00205444
0.00541455
0.00460114
0.00572209
0.00623821
0.00661582
0.00691315
0.00717797
0.00748541
0.00781796
0.00813659
0.00838271
0.00850369
0.00841008
0.00784397
0.00601476
0.00135886
0.00104431
0.00152052
0.00197883
0.00242441
0.00275515
0.00272223
0.000903584
0.00079839
0.000713014
0.000643757
0.000587179
0.000540537
0.000501791
0.000469616
0.000443393
0.000476914
0.000547456
0.000928222
0.000499512
0.00241082
0.00692854
0.004544
0.00597001
0.00635455
0.00645085
0.00653665
0.00669329
0.00695502
0.00730271
0.00769961
0.00806278
0.00833559
0.00844032
0.00831978
0.00766498
0.00513025
0.00158806
0.00189566
0.00240868
0.00297128
0.0034723
0.0038164
0.00363709
0.00102387
0.000935003
0.000871347
0.000822919
0.000781833
0.000743671
0.000707017
0.000668463
0.000623726
0.000585886
0.00059233
0.00108926
0.000557718
0.00277407
0.00890406
0.00491548
0.00569542
0.00621881
0.00616439
0.00612342
0.00624871
0.00649517
0.00685073
0.00728871
0.00768739
0.0079656
0.0080728
0.0080106
0.00774884
0.00708474
0.00599397
0.00561046
0.00553339
0.00556928
0.00561644
0.00560949
0.00542392
0.00461338
0.00421253
0.00397886
0.00379952
0.00361161
0.00334393
0.00297359
0.00251756
0.00200877
0.00150478
0.00111652
0.00110344
0.00076452
0.000692589
0.000833487
0.000936264
0.00315982
0.0110703
0.00676571
0.00551841
0.00602449
0.00618895
0.00603851
0.0061538
0.00635788
0.00668704
0.00711309
0.0075282
0.00780395
0.00786483
0.00772972
0.00749581
0.00726858
0.0071122
0.00709968
0.00710759
0.00705639
0.00693748
0.00675637
0.0065003
0.00612087
0.0057789
0.00547437
0.00518118
0.00488271
0.00456419
0.00416664
0.00367324
0.00308455
0.00243491
0.0018538
0.00136138
0.00106318
0.00091105
0.00128956
0.000979642
0.00352168
0.0126314
0.00970189
0.00701941
0.00655448
0.00658541
0.00642489
0.00633685
0.00643777
0.00675103
0.00719964
0.00763468
0.00789616
0.00789793
0.00768283
0.00742708
0.00735862
0.00754139
0.0077645
0.00782241
0.00768923
0.00742299
0.00707276
0.00666744
0.00623293
0.00582531
0.00545123
0.00510312
0.00478128
0.00449284
0.00424049
0.00393697
0.00350607
0.00296657
0.00244279
0.00194703
0.0016022
0.00147607
0.00146073
0.00111083
0.00359765
0.0114469
0.00993751
0.00881055
0.00812427
0.00735388
0.0067129
0.00644906
0.00657794
0.00699919
0.00753922
0.00799502
0.00819049
0.00807007
0.00774683
0.00749595
0.00758055
0.00788967
0.00800457
0.00783452
0.00746308
0.00696957
0.00641774
0.00586777
0.00537201
0.00495386
0.00460392
0.0043129
0.00408186
0.00391671
0.00382324
0.00378532
0.00365201
0.00333433
0.00305075
0.00290825
0.00299779
0.00331248
0.0041169
0.00168797
0.00350742
0.00419202
0.00473838
0.00491234
0.00492898
0.0050495
0.00538974
0.00597958
0.00676444
0.00758856
0.00825792
0.00860602
0.00852259
0.0080901
0.00763458
0.00753425
0.0075817
0.00755421
0.00730986
0.00685866
0.00626801
0.00562369
0.0050075
0.00448109
0.00406509
0.00374414
0.00349233
0.00329075
0.00312679
0.00298947
0.00286832
0.00275546
0.00266875
0.00260588
0.0025811
0.00258878
0.00257041
0.00247362
0.00230868
0.00156763
0.00216713
0.00383708
0.00530127
0.00652443
0.0075157
0.0084027
0.00908644
0.00942289
0.00936775
0.0089471
0.00821291
0.00738994
0.0068831
0.00667914
0.00646501
0.0060973
0.00558126
0.00498471
0.00438846
0.00385476
0.00342274
0.00310215
0.00287267
0.00270908
0.00259259
0.00251157
0.00245905
0.00243099
0.00242732
0.0024522
0.00248983
0.00253686
0.00258824
0.00262472
0.00261416
0.00253856
0.00224443
0.00125183
0.00252009
0.00537295
0.00734925
0.00826607
0.00887978
0.00930309
0.00924539
0.00864826
0.0077498
0.00679467
0.00599113
0.00540776
0.00501443
0.00466419
0.00425355
0.0037964
0.00334399
0.0029471
0.00263615
0.00241423
0.00226571
0.00216697
0.00210365
0.00207102
0.00206543
0.00208268
0.00211909
0.00217013
0.00224075
0.00232784
0.00242856
0.00253665
0.00263679
0.00270522
0.00272511
0.00269314
0.00193798
0.0012802
0.00215254
0.00226728
0.00235186
0.00241945
0.00218886
0.00200904
0.00192333
0.00183533
0.00170826
0.00155179
0.00137464
0.0011997
0.00104533
0.000922976
0.000834331
0.00077155
0.000726045
0.000692817
0.000669846
0.0006563
0.000651239
0.000653456
0.000661851
0.000675677
0.000694727
0.000718399
0.000746499
0.00077935
0.000817578
0.000862334
0.000913107
0.000969926
0.00103328
0.00110355
0.00118013
0.00126214
0.00127831
0.00114254
0.00108384
0.00128193
)
;

boundaryField
{
    floor
    {
        type            compressible::alphatWallFunction;
        Prt             0.85;
        value           nonuniform List<scalar> 
29
(
0.000183103
7.46909e-05
9.00273e-05
0.000102198
0.000103286
0.000100166
9.56943e-05
8.94347e-05
8.3008e-05
7.71218e-05
7.18761e-05
6.72156e-05
6.30637e-05
5.93523e-05
5.60205e-05
5.2952e-05
4.99975e-05
4.69558e-05
4.51981e-05
4.06297e-05
4.06292e-05
5.77483e-05
6.91667e-05
7.8019e-05
0.000183101
7.469e-05
7.80657e-05
0.000148519
0.000222791
)
;
    }
    ceiling
    {
        type            compressible::alphatWallFunction;
        Prt             0.85;
        value           nonuniform List<scalar> 
43
(
0.000296805
0.000311588
0.000322438
0.000331194
0.00030166
0.000278382
0.000267211
0.000255679
0.00023891
0.000218067
0.00019418
0.000170245
0.000148791
0.000131526
0.000118849
0.000109775
0.000103143
9.8268e-05
9.48815e-05
9.28779e-05
9.21282e-05
9.24568e-05
9.36999e-05
9.57431e-05
9.85498e-05
0.000102025
0.000106131
0.000110909
0.000116438
0.000122873
0.000130125
0.000138185
0.000147107
0.000156929
0.00016755
0.000178839
0.000181056
0.000162349
0.000154187
0.000181559
0.00046748
0.000550747
0.000343767
)
;
    }
    sWall
    {
        type            compressible::alphatWallFunction;
        Prt             0.85;
        value           uniform 0.000295585;
    }
    nWall
    {
        type            compressible::alphatWallFunction;
        Prt             0.85;
        value           nonuniform List<scalar> 6(0.00013309 0.000139224 0.000157599 0.0001771 0.000180986 0.000181229);
    }
    sideWalls
    {
        type            empty;
    }
    glass1
    {
        type            compressible::alphatWallFunction;
        Prt             0.85;
        value           nonuniform List<scalar> 9(0.000170967 0.000230371 0.000278556 0.000324046 0.000369747 0.000417643 0.000462065 0.000471462 0.000460681);
    }
    glass2
    {
        type            compressible::alphatWallFunction;
        Prt             0.85;
        value           nonuniform List<scalar> 2(0.00023448 0.000218584);
    }
    sun
    {
        type            compressible::alphatWallFunction;
        Prt             0.85;
        value           nonuniform List<scalar> 
14
(
0.000175296
0.000190692
0.000194179
0.000203071
0.000211275
0.000218981
0.000226611
0.000233852
0.000238906
0.00024082
0.000238675
0.000231802
0.000219833
0.000203015
)
;
    }
    heatsource1
    {
        type            compressible::alphatWallFunction;
        Prt             0.85;
        value           nonuniform List<scalar> 3(9.82275e-05 0.000118722 0.000133409);
    }
    heatsource2
    {
        type            compressible::alphatWallFunction;
        Prt             0.85;
        value           nonuniform List<scalar> 4(0.000186409 0.00011685 0.000116849 0.000192034);
    }
    Table_master
    {
        type            compressible::alphatWallFunction;
        Prt             0.85;
        value           nonuniform List<scalar> 9(0.000128758 0.000113656 0.000101225 9.10086e-05 8.25626e-05 7.55242e-05 6.96195e-05 6.46726e-05 6.06091e-05);
    }
    Table_slave
    {
        type            compressible::alphatWallFunction;
        Prt             0.85;
        value           nonuniform List<scalar> 9(0.000145778 0.00013323 0.000124156 0.0001172 0.000111261 0.000105711 0.000100348 9.46701e-05 8.80314e-05);
    }
    inlet
    {
        type            fixedValue;
        value           uniform 1.94e-05;
    }
    outlet
    {
        type            zeroGradient;
    }
}


// ************************************************************************* //
