/*--------------------------------*- C++ -*----------------------------------*\
  =========                 |
  \\      /  F ield         | OpenFOAM: The Open Source CFD Toolbox
   \\    /   O peration     | Website:  https://openfoam.org
    \\  /    A nd           | Version:  6
     \\/     M anipulation  |
\*---------------------------------------------------------------------------*/
FoamFile
{
    version     2.0;
    format      ascii;
    class       surfaceScalarField;
    location    "1000";
    object      phi;
}
// * * * * * * * * * * * * * * * * * * * * * * * * * * * * * * * * * * * * * //

dimensions      [1 0 -1 0 0 0 0];

internalField   nonuniform List<scalar> 
852
(
-0.00295925
0.00301662
-0.00399925
0.00104
-0.00479917
0.000799921
-0.00542178
0.000622619
-0.00583352
0.000411738
-0.00600611
0.000172589
-0.00591124
-9.486e-05
-0.00552715
-0.000384092
-0.00487039
-0.000656763
-0.00400684
-0.000863543
-0.00303715
-0.000969686
-0.00207338
-0.000963774
-0.00121789
-0.000855488
-0.00053273
-0.000685158
-0.000531054
-0.000785154
0.000788161
-0.000544609
-0.000240543
3.82232e-05
-0.000582831
0.000533436
-0.000495211
0.000877747
-0.00034431
0.00110286
-0.000225108
0.00122912
-0.000126264
0.00129064
-6.15145e-05
0.00132496
-3.43176e-05
0.00134632
-2.13579e-05
0.00135873
-1.24172e-05
0.00136382
-5.08474e-06
0.00136043
3.38826e-06
0.00134157
1.88615e-05
0.00128719
5.43818e-05
0.00116355
0.000123649
0.000959503
0.000204044
0.000710217
0.000249288
0.000714253
-0.00212041
0.00529164
-0.00314115
0.00206074
-0.00397021
0.00162898
-0.00458938
0.0012418
-0.00499974
0.000822094
-0.00518194
0.00035479
-0.00510444
-0.000172361
-0.00474982
-0.000738708
-0.00414731
-0.00125927
-0.0033734
-0.00163746
-0.00252672
-0.00181636
-0.00170199
-0.0017885
-0.000979622
-0.00157786
-0.000432878
-0.0012319
-0.000165497
-0.000798434
0.000118885
-0.000284432
0.000118835
0.000236245
0.000560683
0.000629647
-0.000633944
0.000892457
-0.000845639
0.00111189
-0.000714644
0.00128692
-0.00051934
0.00140033
-0.000338516
0.00142085
-0.00014678
0.00142597
-6.66312e-05
0.00143214
-4.04948e-05
0.00143733
-2.6543e-05
0.00144078
-1.58667e-05
0.0014427
-7.00223e-06
0.00144254
3.5519e-06
0.00143732
2.40846e-05
0.00140048
9.12174e-05
0.00124132
0.000282813
0.000963208
0.000482157
0.000615146
0.000597352
0.00133965
-0.00149048
0.00701867
-0.00237378
0.00294404
-0.00311481
0.00237002
-0.00365074
0.00177772
-0.00401545
0.00118681
-0.00418442
0.000523761
-0.00410318
-0.000253601
-0.00374664
-0.00109525
-0.00317002
-0.00183588
-0.00246742
-0.00234006
-0.00173409
-0.00254969
-0.00104233
-0.00248026
-0.000443926
-0.00217626
2.71846e-05
-0.00170301
0.000336721
-0.00110797
0.000474976
-0.000422686
0.000593813
0.00148283
-0.000912522
0.00169965
-0.000850758
0.00165083
-0.000796819
0.00163357
-0.000697381
0.00165369
-0.000539468
0.00169259
-0.000377412
0.00154597
0.00147949
0.00143915
0.00141276
0.00139705
0.0013902
0.00139391
0.00141815
0.00150952
0.0012483
0.000544038
0.000926891
0.000803563
0.000523817
0.00100043
0.00187896
-0.00104372
0.00836871
-0.00174622
0.00364655
-0.00224461
0.0028684
-0.00260395
0.00213707
-0.00285541
0.00143827
-0.00296174
0.000630088
-0.00282576
-0.000389573
-0.00243239
-0.00148863
-0.00188403
-0.00238424
-0.00128317
-0.00294091
-0.000705354
-0.00312751
-0.000189755
-0.00299585
0.000247978
-0.00261399
0.000608775
-0.00206381
0.000929256
-0.00142845
0.00128995
-0.000783377
0.00213052
-0.000246757
0.00247285
-0.000333901
0.00212987
-0.000569537
0.00199619
-0.000717079
0.00186649
-0.000667119
0.00174763
-0.000578518
0.00166951
-0.000461345
0.00160477
-0.000312672
0.0017353
-0.000130679
0.00181244
-7.729e-05
0.00187383
-6.15443e-05
0.00192231
-4.86315e-05
0.0019449
-2.27479e-05
0.00192069
2.40645e-05
0.0018242
9.63327e-05
0.00162175
0.0002023
0.00125913
0.000362464
0.00110294
0.000700236
0.000797758
0.00110874
0.000334609
0.00146358
0.00223374
-0.00072925
0.00946351
-0.00126315
0.00418044
-0.0013858
0.00299105
-0.00147958
0.00223085
-0.00154175
0.00150045
-0.00150157
0.000589915
-0.00122486
-0.00066629
-0.000782632
-0.00193085
-0.000306625
-0.00286024
0.000124658
-0.00337219
0.000477295
-0.00348014
0.00074679
-0.00326535
0.000955257
-0.00282246
0.00113205
-0.0022406
0.00131086
-0.00160725
0.00153904
-0.00101155
0.00185988
-0.0005676
0.00196211
-0.000436132
0.00188211
-0.000489534
0.00170712
-0.000542086
0.00154771
-0.000507709
0.00140874
-0.000439546
0.00130385
-0.000356456
0.00124913
-0.000257957
0.00128189
-0.000163438
0.00132596
-0.000121352
0.00137552
-0.000111109
0.0014285
-0.000101607
0.00147583
-7.00803e-05
0.00149816
1.73847e-06
0.00147352
0.000120969
0.00138837
0.000287458
0.00124272
0.000508113
0.00110572
0.000837234
0.00094954
0.00126492
0.000596363
0.00181676
0.000493644
0.00233646
-0.000986652
0.00148009
-0.00144988
0.00046303
-0.00140139
-0.00063134
0.0105103
-0.000997973
0.00454708
-0.000604073
0.00259716
-0.000310892
0.00193767
-9.62522e-05
0.00128581
0.000230111
0.000263554
0.00071285
-0.00114903
0.00115052
-0.00236851
0.0014622
-0.00317193
0.00163463
-0.00354462
0.00169394
-0.00353945
0.00167225
-0.00324365
0.00160242
-0.00275262
0.00152194
-0.00216012
0.00146382
-0.00154913
0.00145277
-0.0010005
0.00148198
-0.000596813
0.00144937
-0.00040352
0.00132524
-0.000365396
0.0011468
-0.000363645
0.000980977
-0.000341889
0.000846227
-0.000304794
0.000750874
-0.000261102
0.000706051
-0.000213133
0.000716109
-0.000173495
0.000757139
-0.000162381
0.00081588
-0.00016985
0.000887365
-0.000173092
0.000966937
-0.000149652
0.00104545
-7.67742e-05
0.00110457
6.18497e-05
0.00113455
0.000257475
0.00114433
0.000498337
0.00117743
0.000804133
0.00128016
0.00116219
0.00146669
0.00163023
0.00191069
0.00189246
0.00216587
0.00122492
0.0017789
0.000849997
0.000435753
-0.000717251
0.0116877
-0.000603217
0.00443305
0.000473391
0.00152055
0.00115238
0.00125868
0.00173004
0.000708156
0.00237757
-0.000383974
0.00292989
-0.00170135
0.00323355
-0.00267217
0.00328303
-0.0032214
0.00312445
-0.00338603
0.00282223
-0.00323723
0.00244049
-0.00286192
0.00203436
-0.00234649
0.00165216
-0.00177792
0.00132647
-0.00122344
0.00107716
-0.000751192
0.00090093
-0.000420578
0.000750864
-0.000253453
0.000591357
-0.000205888
0.000429612
-0.000201899
0.000288287
-0.000200563
0.000178794
-0.0001953
0.000106035
-0.000188342
7.48947e-05
-0.000181993
8.44194e-05
-0.00018302
0.000121464
-0.000199425
0.0001757
-0.000224085
0.000245308
-0.0002427
0.000334579
-0.000238922
0.000450074
-0.000192268
0.000586383
-7.44596e-05
0.000728133
0.000115725
0.000880714
0.000345757
0.00108368
0.000601172
0.00138488
0.000860989
0.00184958
0.00116553
0.00252353
0.00121851
0.00304514
0.000703309
0.0030639
0.000831233
0.00356282
0.00260482
0.00959693
0.00328278
0.00375508
0.00344747
0.00135586
0.0039016
0.000804554
0.0045953
1.44592e-05
0.00528764
-0.00107632
0.00556773
-0.00198144
0.00544003
-0.00254448
0.0049933
-0.00277466
0.0043328
-0.00272553
0.00356117
-0.0024656
0.00276473
-0.00206548
0.00200433
-0.00158608
0.00133483
-0.00110842
0.000782885
-0.000671502
0.000370423
-0.000338729
9.57119e-05
-0.000145867
-8.73445e-05
-7.03954e-05
-0.000228184
-6.50475e-05
-0.000347545
-8.2538e-05
-0.000446761
-0.000101347
-0.000523444
-0.000118616
-0.000576128
-0.000135658
-0.000604135
-0.000153984
-0.000610422
-0.000176733
-0.000603787
-0.000206059
-0.000590429
-0.000237442
-0.000570216
-0.000262913
-0.000535945
-0.000273193
-0.000470557
-0.000257656
-0.000342593
-0.000202423
-0.000147116
-7.97507e-05
9.35971e-05
0.000105044
0.000386549
0.00030822
0.000749427
0.000498112
0.00122714
0.000687824
0.00173047
0.000715176
0.00186934
0.000564439
0.000927538
0.00177303
0.00475162
0.0101613
0.0139092
0.0122354
0.00302961
0.0113372
0.0017028
0.0106021
0.0007495
0.00970694
-0.000181108
0.00855497
-0.000829458
0.00725374
-0.00124324
0.00589771
-0.00141864
0.0045563
-0.00138411
0.0032928
-0.00120211
0.00215681
-0.000929486
0.00116046
-0.00058973
0.000344716
-0.000292671
-0.000256557
-7.02279e-05
-0.000630763
3.5477e-05
-0.000833338
5.67091e-05
-0.000947864
4.41308e-05
-0.0010309
1.79891e-05
-0.00110431
-9.12552e-06
-0.00117182
-3.38427e-05
-0.00123274
-5.76937e-05
-0.00128672
-8.16775e-05
-0.00133515
-0.000105555
-0.0013823
-0.000129574
-0.00143556
-0.000152808
-0.00150222
-0.000170775
-0.00158926
-0.000175874
-0.00170478
-0.000157674
-0.00185925
-0.00010319
-0.00206202
3.55256e-07
-0.00230402
0.000162249
-0.00259447
0.000395491
-0.00300366
0.000717416
-0.00363542
0.00112987
-0.00456256
0.00161496
-0.00591181
0.00206442
-0.00762169
0.00227432
-0.00744363
0.00159498
-0.00240282
0.0051026
0.00455611
0.00409343
0.00271198
0.0044896
0.000353341
0.00452723
-0.000218741
0.00411671
-0.00041893
0.00342923
-0.000555762
0.00257939
-0.000568796
0.0016598
-0.00046452
0.000743947
-0.000286259
-0.000113023
-7.25159e-05
-0.000806489
0.000103736
-0.00125915
0.000159993
-0.00150234
0.000172959
-0.0016207
0.000153838
-0.00168603
0.000122039
-0.00173185
8.99541e-05
-0.00177424
6.03792e-05
-0.00181851
3.51381e-05
-0.00186663
1.42776e-05
-0.00192061
-3.70833e-06
-0.00198094
-2.13491e-05
-0.002048
-3.8497e-05
-0.00212391
-5.36645e-05
-0.00221098
-6.5729e-05
-0.00231043
-7.13266e-05
-0.0024216
-6.4707e-05
-0.00254088
-3.83882e-05
-0.00266092
1.68471e-05
-0.00276989
0.000109329
-0.00286256
0.000254916
-0.00294411
0.000477045
-0.00301623
0.000789537
-0.00307456
0.0011882
-0.00307948
0.00161989
-0.00296113
0.00194607
-0.00226764
0.00158083
-0.000577777
-9.48821e-05
-0.00290231
-0.000440639
0.00505335
0.000852887
0.00141846
0.000813652
0.000392578
0.000536455
5.84578e-05
0.000153658
-3.61336e-05
-0.000371599
-3.05075e-05
-0.000959777
1.9381e-05
-0.0015065
8.22006e-05
-0.00193243
0.000139673
-0.00218836
0.000183414
-0.0022879
0.000203275
-0.00231881
0.000190907
-0.00231212
0.000166268
-0.00229675
0.000138468
-0.00228825
0.000113534
-0.00229085
9.25611e-05
-0.00230458
7.41062e-05
-0.00232692
5.74739e-05
-0.00235496
4.23255e-05
-0.00238711
2.84402e-05
-0.00242446
1.60006e-05
-0.00246711
4.15625e-06
-0.00251462
-6.15977e-06
-0.00256627
-1.40752e-05
-0.00261954
-1.80534e-05
-0.00266897
-1.52799e-05
-0.0027054
-1.95663e-06
-0.00271786
2.9309e-05
-0.0026954
8.68693e-05
-0.00261798
0.000177495
-0.00245519
0.000314258
-0.00217872
0.00051306
-0.00176804
0.00077752
-0.00117983
0.00103169
-0.000113943
0.00088018
0.00176949
-0.000302599
0.00337742
-0.00170281
0.000560686
-0.00794119
-0.0107962
-0.00569871
-0.00425735
-0.00385066
-0.00378295
-0.00381293
-0.00383956
-0.003818
-0.00373492
-0.00359544
-0.00341314
-0.00321179
-0.00302349
-0.0028604
-0.00272556
-0.00261602
-0.00252775
-0.00245816
-0.00240536
-0.0023678
-0.00234419
-0.00233302
-0.00233367
-0.00234459
-0.00236335
-0.00238598
-0.00240574
-0.00241204
-0.00238693
-0.00230411
-0.00213051
-0.00181999
-0.00131053
-0.000536505
0.000491753
0.00136838
0.00106175
-0.000646443
)
;

boundaryField
{
    floor
    {
        type            calculated;
        value           nonuniform List<scalar> 
29
(
0
0
0
0
0
0
0
0
0
0
0
0
0
0
0
0
0
0
0
0
-4.03507e-06
-1.02528e-05
-1.54879e-05
-2.01665e-05
-1.67469e-06
-3.00537e-06
-8.76539e-06
-9.62488e-06
-8.4304e-06
)
;
    }
    ceiling
    {
        type            calculated;
        value           nonuniform List<scalar> 
43
(
-4.66762e-05
-4.54002e-05
-4.41297e-05
-2.29079e-05
-1.41114e-05
-9.24571e-06
-6.1574e-06
-3.87823e-06
-2.17705e-06
-8.83821e-07
1.91572e-07
1.11727e-06
1.92291e-06
2.61189e-06
3.17695e-06
3.63075e-06
3.99593e-06
4.2881e-06
4.51289e-06
4.67263e-06
4.77308e-06
4.82351e-06
4.83335e-06
4.80998e-06
4.75722e-06
4.6815e-06
4.58695e-06
4.4751e-06
4.34668e-06
4.2009e-06
4.04692e-06
3.89191e-06
3.74175e-06
3.6041e-06
3.49168e-06
3.42958e-06
3.55202e-06
4.02998e-06
5.38762e-06
6.34903e-06
1.01951e-05
7.15943e-06
-5.66027e-05
)
;
    }
    sWall
    {
        type            calculated;
        value           uniform -0.00027168;
    }
    nWall
    {
        type            calculated;
        value           nonuniform List<scalar> 6(-4.86947e-05 -5.82446e-05 -6.31577e-05 -7.82817e-05 -8.5584e-05 -9.2105e-05);
    }
    sideWalls
    {
        type            empty;
        value           nonuniform 0();
    }
    glass1
    {
        type            calculated;
        value           nonuniform List<scalar> 9(-5.73715e-05 -0.000154606 -0.000236549 -0.000306315 -0.000365546 -0.000415467 -0.000460092 -0.000514088 -0.000574519);
    }
    glass2
    {
        type            calculated;
        value           nonuniform List<scalar> 2(-0.000261264 -0.000289195);
    }
    sun
    {
        type            calculated;
        value           uniform 0;
    }
    heatsource1
    {
        type            calculated;
        value           nonuniform List<scalar> 3(2.04218e-07 2.04151e-07 2.04168e-07);
    }
    heatsource2
    {
        type            calculated;
        value           nonuniform List<scalar> 4(5.11975e-08 5.12818e-08 0 0);
    }
    Table_master
    {
        type            calculated;
        value           nonuniform List<scalar> 9(-1.53169e-07 -1.53258e-07 -1.53291e-07 -1.53313e-07 -1.53329e-07 -1.53339e-07 -1.53345e-07 -1.53341e-07 -1.53313e-07);
    }
    Table_slave
    {
        type            calculated;
        value           nonuniform List<scalar> 9(1.5305e-07 1.53071e-07 1.53052e-07 1.53037e-07 1.5303e-07 1.53033e-07 1.53046e-07 1.53086e-07 1.53164e-07);
    }
    inlet
    {
        type            calculated;
        value           uniform -0.0066291;
    }
    outlet
    {
        type            calculated;
        value           nonuniform List<scalar> 2(0.00825954 0.0029004);
    }
}


// ************************************************************************* //
