/*--------------------------------*- C++ -*----------------------------------*\
  =========                 |
  \\      /  F ield         | OpenFOAM: The Open Source CFD Toolbox
   \\    /   O peration     | Website:  https://openfoam.org
    \\  /    A nd           | Version:  6
     \\/     M anipulation  |
\*---------------------------------------------------------------------------*/
FoamFile
{
    version     2.0;
    format      ascii;
    class       volScalarField;
    location    "1000";
    object      epsilon;
}
// * * * * * * * * * * * * * * * * * * * * * * * * * * * * * * * * * * * * * //

dimensions      [0 2 -3 0 0 0 0];

internalField   nonuniform List<scalar> 
459
(
0.000420091
0.000543337
0.000573784
0.000659354
0.000745717
0.000833554
0.000927022
0.00102377
0.00109631
0.00112647
0.0010982
0.00100514
0.000855219
0.000672523
0.000495526
3.45492e-05
5.88945e-05
8.44448e-05
8.60954e-05
7.86583e-05
6.8935e-05
5.70236e-05
4.6414e-05
3.79821e-05
3.14202e-05
2.62893e-05
2.22348e-05
1.90035e-05
1.63916e-05
1.42144e-05
1.2313e-05
1.05398e-05
9.57019e-06
7.3823e-06
0.00106618
0.00156694
0.000510295
0.000493113
0.000514438
0.000551945
0.000609814
0.000687883
0.000763677
0.000812407
0.000813653
0.000760655
0.000661228
0.000537099
0.000436017
0.000520316
0.000116472
3.96119e-05
9.35012e-05
0.000103301
9.63142e-05
8.36551e-05
7.11281e-05
6.48588e-05
5.24838e-05
4.14765e-05
3.27855e-05
2.61088e-05
2.10011e-05
1.70912e-05
1.4111e-05
1.19276e-05
1.05904e-05
1.00198e-05
2.63538e-05
1.77238e-05
0.00194763
0.00387125
0.000628558
0.000466918
0.000486011
0.000543486
0.000631561
0.000745028
0.000851724
0.000917489
0.000924089
0.000871138
0.000770295
0.000645552
0.000529414
0.000471828
0.000554438
0.000267795
0.000207556
0.000163762
0.000130495
0.000105006
8.95365e-05
0.000163958
0.000113986
8.17852e-05
6.05973e-05
4.62642e-05
3.62922e-05
2.91816e-05
2.40309e-05
2.03101e-05
1.55294e-05
1.30437e-05
5.00577e-05
2.84485e-05
0.00316099
0.00807253
0.000994505
0.000468439
0.000470099
0.000550294
0.000682242
0.000852712
0.000990236
0.00105928
0.00105508
0.000987063
0.000867555
0.000723293
0.000595677
0.000512014
0.000492592
0.000892731
0.00051516
0.000315357
0.000214092
0.000156192
0.000120196
0.000103297
0.000237445
0.000182894
0.000149737
0.000127447
0.00011021
9.54119e-05
8.24538e-05
7.00793e-05
5.72526e-05
3.4264e-05
2.22565e-05
8.35087e-05
3.94146e-05
0.00483407
0.0144537
0.00197134
0.00054595
0.000469899
0.000574476
0.000809326
0.0010714
0.00122228
0.00127011
0.00123407
0.00113244
0.000979565
0.000800175
0.000625607
0.000481699
0.000382585
0.000340258
0.000278342
0.000222429
0.000177664
0.000142829
0.000116129
9.78337e-05
9.4583e-05
8.87957e-05
8.32142e-05
7.76003e-05
7.13848e-05
6.43941e-05
5.7366e-05
5.06685e-05
4.44981e-05
3.58987e-05
2.76378e-05
5.96024e-05
4.57204e-05
7.49163e-05
0.000130987
0.000185238
0.00716618
0.0215307
0.00445917
0.00101722
0.000654549
0.000750424
0.00123447
0.00151409
0.00160186
0.0015819
0.00149137
0.00134032
0.00113559
0.000900504
0.000670367
0.000479539
0.000347516
0.000272903
0.000227944
0.000192379
0.000160374
0.000132948
0.0001112
9.61433e-05
8.89595e-05
8.64111e-05
8.53275e-05
8.37161e-05
8.03384e-05
7.4223e-05
6.52022e-05
5.56894e-05
4.69556e-05
3.91504e-05
3.40077e-05
4.49932e-05
4.70831e-05
5.76044e-05
0.000242461
0.000211788
0.00995395
0.0257853
0.00933614
0.00338441
0.00213341
0.00206229
0.00231433
0.00231608
0.00219921
0.00203864
0.0018469
0.00161164
0.00132788
0.0010185
0.000723919
0.000487172
0.00033088
0.000245828
0.000200694
0.000169118
0.000142006
0.000119831
0.000103868
9.47468e-05
9.23714e-05
9.45576e-05
9.84564e-05
0.000102364
0.000105035
0.000104697
9.79738e-05
8.65582e-05
7.51745e-05
6.55472e-05
6.16218e-05
6.89588e-05
8.80834e-05
0.00014158
0.000327543
0.000318542
0.010644
0.0288182
0.01563
0.00992267
0.00697778
0.00539718
0.00427822
0.00352314
0.00300816
0.00262579
0.00228634
0.0019282
0.00152913
0.00111922
0.000744684
0.000460429
0.000289579
0.0002049
0.000164448
0.00013839
0.000118289
0.000104172
9.63192e-05
9.44573e-05
9.78186e-05
0.000105052
0.000114949
0.000127139
0.000141696
0.000158489
0.000176429
0.000187378
0.000196549
0.000217172
0.000260612
0.000392966
0.000730929
0.0013884
0.0040522
0.00119749
0.00989794
0.0168769
0.0135476
0.0102272
0.00779103
0.00612626
0.00499939
0.00422678
0.00366983
0.00320451
0.00273397
0.00221055
0.00163471
0.00109123
0.000624929
0.000329376
0.000205954
0.000151735
0.00012386
0.000106072
9.43664e-05
8.80921e-05
8.68399e-05
9.0042e-05
9.70997e-05
0.000107582
0.000121534
0.000139684
0.000163411
0.000194739
0.000236386
0.000292287
0.000368983
0.000484918
0.000656241
0.000888993
0.00115483
0.00138585
0.00156356
0.000977038
0.00498628
0.00669622
0.00667157
0.0061647
0.00547132
0.00480732
0.00416203
0.00347381
0.00272322
0.001937
0.00107092
0.000565586
0.000298133
0.000173095
0.000120104
9.46921e-05
8.07951e-05
7.26465e-05
6.83237e-05
6.72928e-05
6.91463e-05
7.35118e-05
8.0207e-05
8.93262e-05
0.000101314
0.000117025
0.000137817
0.00016575
0.000204061
0.000257798
0.000332349
0.000435054
0.000569426
0.000722699
0.000853441
0.000906576
0.000848671
0.000536373
0.00344052
0.00676729
0.00663229
0.00531882
0.00447946
0.00382212
0.00299332
0.00210229
0.00133815
0.000781556
0.000422662
0.000233411
0.000138606
9.43298e-05
7.38817e-05
6.37198e-05
5.85861e-05
5.64836e-05
5.66071e-05
5.85049e-05
6.19505e-05
6.69498e-05
7.36532e-05
8.2353e-05
9.35652e-05
0.000108115
0.00012728
0.000153023
0.000188099
0.000236121
0.000302058
0.000390918
0.000503327
0.000630861
0.000725741
0.000822199
0.000762241
0.000563557
0.00271727
0.00271555
0.00287029
0.00319184
0.00235686
0.00179528
0.00154955
0.00134716
0.00108706
0.000820355
0.00056803
0.00037274
0.000241551
0.000162668
0.000118136
9.26765e-05
7.73818e-05
6.80744e-05
6.28685e-05
6.07889e-05
6.11934e-05
6.36365e-05
6.79325e-05
7.40092e-05
8.18072e-05
9.15934e-05
0.000103779
0.000118971
0.000138097
0.000162686
0.000193714
0.000232645
0.000281799
0.000344125
0.00042254
0.000532271
0.00057033
0.000527836
0.000432977
0.000345134
)
;

boundaryField
{
    floor
    {
        Cmu             0.09;
        kappa           0.41;
        E               9.8;
        type            epsilonWallFunction;
        value           nonuniform List<scalar> 
29
(
0.000495526
3.45492e-05
5.88945e-05
8.44448e-05
8.60954e-05
7.86583e-05
6.8935e-05
5.70236e-05
4.6414e-05
3.79821e-05
3.14202e-05
2.62893e-05
2.22348e-05
1.90035e-05
1.63916e-05
1.42144e-05
1.2313e-05
1.05398e-05
9.57019e-06
7.3823e-06
7.3823e-06
1.77238e-05
2.84485e-05
3.94146e-05
0.000495526
3.45492e-05
3.96119e-05
0.000267795
0.000892731
)
;
    }
    ceiling
    {
        Cmu             0.09;
        kappa           0.41;
        E               9.8;
        type            epsilonWallFunction;
        value           nonuniform List<scalar> 
43
(
0.00271727
0.00271555
0.00287029
0.00319184
0.00235686
0.00179528
0.00154955
0.00134716
0.00108706
0.000820355
0.00056803
0.00037274
0.000241551
0.000162668
0.000118136
9.26765e-05
7.73818e-05
6.80744e-05
6.28685e-05
6.07889e-05
6.11934e-05
6.36365e-05
6.79325e-05
7.40092e-05
8.18072e-05
9.15934e-05
0.000103779
0.000118971
0.000138097
0.000162686
0.000193714
0.000232645
0.000281799
0.000344125
0.00042254
0.000532271
0.00057033
0.000527836
0.000432977
0.000345134
0.00989794
0.0168769
0.00344052
)
;
    }
    sWall
    {
        Cmu             0.09;
        kappa           0.41;
        E               9.8;
        type            epsilonWallFunction;
        value           uniform 0.00271727;
    }
    nWall
    {
        Cmu             0.09;
        kappa           0.41;
        E               9.8;
        type            epsilonWallFunction;
        value           nonuniform List<scalar> 6(0.000185238 0.000211788 0.000318542 0.000536373 0.000563557 0.000345134);
    }
    sideWalls
    {
        type            empty;
    }
    glass1
    {
        Cmu             0.09;
        kappa           0.41;
        E               9.8;
        type            epsilonWallFunction;
        value           nonuniform List<scalar> 9(0.000420091 0.00106618 0.00194763 0.00316099 0.00483407 0.00716618 0.00995395 0.010644 0.00989794);
    }
    glass2
    {
        Cmu             0.09;
        kappa           0.41;
        E               9.8;
        type            epsilonWallFunction;
        value           nonuniform List<scalar> 2(0.00119749 0.000977038);
    }
    sun
    {
        Cmu             0.09;
        kappa           0.41;
        E               9.8;
        type            epsilonWallFunction;
        value           nonuniform List<scalar> 
14
(
0.000420091
0.000543337
0.000573784
0.000659354
0.000745717
0.000833554
0.000927022
0.00102377
0.00109631
0.00112647
0.0010982
0.00100514
0.000855219
0.000672523
)
;
    }
    heatsource1
    {
        Cmu             0.09;
        kappa           0.41;
        E               9.8;
        type            epsilonWallFunction;
        value           nonuniform List<scalar> 3(7.49163e-05 0.000130987 0.000185238);
    }
    heatsource2
    {
        Cmu             0.09;
        kappa           0.41;
        E               9.8;
        type            epsilonWallFunction;
        value           nonuniform List<scalar> 4(0.000520316 0.000116472 0.000116472 0.000554438);
    }
    Table_master
    {
        Cmu             0.09;
        kappa           0.41;
        E               9.8;
        type            epsilonWallFunction;
        value           nonuniform List<scalar> 9(0.000163958 0.000113986 8.17852e-05 6.05973e-05 4.62642e-05 3.62922e-05 2.91816e-05 2.40309e-05 2.03101e-05);
    }
    Table_slave
    {
        Cmu             0.09;
        kappa           0.41;
        E               9.8;
        type            epsilonWallFunction;
        value           nonuniform List<scalar> 9(0.000237445 0.000182894 0.000149737 0.000127447 0.00011021 9.54119e-05 8.24538e-05 7.00793e-05 5.72526e-05);
    }
    inlet
    {
        type            turbulentMixingLengthDissipationRateInlet;
        mixingLength    0.01;
        phi             phi;
        k               k;
        value           uniform 0.000101881;
    }
    outlet
    {
        type            zeroGradient;
    }
}


// ************************************************************************* //
