// -*- C++ -*-
// File generated by PyFoam - sorry for the ugliness

FoamFile
{
 version 2.0;
 format ascii;
 class volScalarField;
 location "500";
 object T;
}

dimensions [ 0 0 0 1 0 0 0 ];

internalField nonuniform List<scalar> 459
(
  303.281
  303.026
  303.012
  303.007
  303.003
  302.998
  302.992
  302.983
  302.972
  302.963
  302.961
  302.966
  302.98
  302.993
  303.015
  303.284
  303.25
  303.228
  303.228
  303.241
  303.253
  303.265
  303.276
  303.288
  303.299
  303.311
  303.323
  303.335
  303.347
  303.36
  303.374
  303.389
  303.409
  303.447
  303.447
  303.064
  303.04
  303.04
  303.04
  303.037
  303.027
  303.005
  302.979
  302.957
  302.948
  302.953
  302.967
  302.979
  302.994
  302.996
  303.002
  303.292
  303.213
  303.193
  303.199
  303.216
  303.234
  303.245
  303.255
  303.266
  303.276
  303.287
  303.297
  303.308
  303.32
  303.332
  303.346
  303.365
  303.39
  303.438
  303.624
  303.115
  303.078
  303.088
  303.099
  303.102
  303.088
  303.047
  302.995
  302.955
  302.939
  302.946
  302.962
  302.976
  302.987
  302.994
  302.999
  303.225
  303.174
  303.165
  303.184
  303.214
  303.243
  303.249
  303.257
  303.266
  303.276
  303.286
  303.297
  303.308
  303.32
  303.332
  303.347
  303.364
  303.389
  303.438
  303.807
  303.178
  303.122
  303.144
  303.175
  303.194
  303.171
  303.097
  303.012
  302.951
  302.928
  302.938
  302.961
  302.982
  302.995
  303.002
  303.006
  303.017
  303.042
  303.082
  303.133
  303.189
  303.242
  303.286
  303.322
  303.35
  303.375
  303.397
  303.417
  303.436
  303.454
  303.47
  303.484
  303.446
  303.416
  303.41
  303.444
  303.987
  303.258
  303.172
  303.2
  303.254
  303.296
  303.253
  303.135
  303.017
  302.942
  302.916
  302.932
  302.967
  303
  303.022
  303.033
  303.042
  303.063
  303.098
  303.148
  303.207
  303.269
  303.326
  303.376
  303.419
  303.453
  303.48
  303.504
  303.522
  303.535
  303.544
  303.547
  303.542
  303.512
  303.468
  303.439
  303.452
  303.602
  303.688
  303.68
  304.155
  303.362
  303.247
  303.265
  303.34
  303.378
  303.289
  303.141
  303.002
  302.918
  302.897
  302.928
  302.983
  303.037
  303.075
  303.098
  303.12
  303.154
  303.201
  303.258
  303.321
  303.382
  303.437
  303.483
  303.522
  303.553
  303.577
  303.595
  303.608
  303.615
  303.616
  303.61
  303.596
  303.565
  303.519
  303.477
  303.468
  303.537
  303.577
  303.624
  304.313
  303.526
  303.409
  303.421
  303.489
  303.437
  303.276
  303.084
  302.933
  302.863
  302.871
  302.935
  303.024
  303.106
  303.166
  303.208
  303.241
  303.285
  303.339
  303.397
  303.455
  303.51
  303.557
  303.595
  303.625
  303.648
  303.665
  303.677
  303.683
  303.683
  303.677
  303.665
  303.646
  303.614
  303.572
  303.528
  303.505
  303.526
  303.55
  303.588
  304.534
  303.947
  303.813
  303.779
  303.669
  303.426
  303.141
  302.91
  302.786
  302.779
  302.854
  302.977
  303.116
  303.227
  303.306
  303.353
  303.39
  303.437
  303.491
  303.544
  303.592
  303.635
  303.669
  303.696
  303.716
  303.731
  303.74
  303.745
  303.745
  303.74
  303.729
  303.714
  303.694
  303.664
  303.63
  303.595
  303.578
  303.593
  303.618
  303.741
  304.852
  304.57
  304.324
  304.072
  303.527
  302.991
  302.643
  302.512
  302.558
  302.721
  302.918
  303.113
  303.305
  303.41
  303.466
  303.505
  303.543
  303.587
  303.634
  303.677
  303.713
  303.742
  303.765
  303.78
  303.791
  303.796
  303.797
  303.794
  303.788
  303.78
  303.77
  303.761
  303.753
  303.75
  303.755
  303.77
  303.799
  303.831
  303.855
  303.917
  296.32
  297.372
  298.774
  300.123
  301.162
  301.947
  302.532
  303.002
  303.266
  303.417
  303.511
  303.57
  303.611
  303.646
  303.682
  303.719
  303.755
  303.785
  303.81
  303.827
  303.838
  303.844
  303.846
  303.844
  303.84
  303.834
  303.827
  303.819
  303.812
  303.806
  303.802
  303.802
  303.808
  303.821
  303.843
  303.869
  303.901
  303.976
  296.723
  298.376
  300.03
  301.573
  302.396
  302.897
  303.216
  303.418
  303.539
  303.616
  303.668
  303.707
  303.739
  303.768
  303.796
  303.822
  303.846
  303.864
  303.876
  303.883
  303.886
  303.886
  303.883
  303.879
  303.874
  303.867
  303.86
  303.854
  303.847
  303.841
  303.837
  303.835
  303.837
  303.844
  303.856
  303.884
  303.924
  303.954
  299.853
  299.777
  299.771
  301.951
  302.841
  303.209
  303.411
  303.545
  303.639
  303.705
  303.752
  303.787
  303.814
  303.836
  303.854
  303.87
  303.884
  303.895
  303.903
  303.907
  303.909
  303.909
  303.907
  303.904
  303.9
  303.896
  303.892
  303.887
  303.882
  303.878
  303.873
  303.868
  303.864
  303.861
  303.859
  303.861
  303.871
  303.891
  303.96
  304.075
)
;

boundaryField
{
  floor
  {
    type wallHeatTransfer;
    Tinf uniform 305.2;
    alphaWall uniform 0.24;
    value nonuniform List<scalar> 29
(
  303.27
  303.622
  303.558
  303.507
  303.492
  303.501
  303.516
  303.539
  303.564
  303.588
  303.612
  303.636
  303.658
  303.68
  303.702
  303.724
  303.746
  303.771
  303.8
  303.855
  303.855
  303.812
  303.791
  303.78
  303.27
  303.622
  303.633
  303.497
  303.21
)
;
  }
  ceiling
  {
    type wallHeatTransfer;
    Tinf uniform 303.2;
    alphaWall uniform 0.24;
    value nonuniform List<scalar> 43
(
  300.093
  300.012
  300
  302.03
  302.865
  303.208
  303.396
  303.519
  303.604
  303.662
  303.701
  303.73
  303.752
  303.77
  303.785
  303.798
  303.808
  303.816
  303.821
  303.823
  303.823
  303.82
  303.817
  303.812
  303.808
  303.803
  303.799
  303.794
  303.79
  303.787
  303.784
  303.782
  303.781
  303.781
  303.783
  303.788
  303.797
  303.808
  303.867
  303.984
  304.776
  304.515
  297.144
)
;
  }
  sWall
  {
    type wallHeatTransfer;
    Tinf uniform 315.2;
    alphaWall uniform 0.36;
    value uniform 301.451;
  }
  nWall
  {
    type wallHeatTransfer;
    Tinf uniform 307.2;
    alphaWall uniform 0.36;
    value nonuniform List<scalar> 6
(
  304.358
  304.293
  304.21
  304.479
  304.452
  304.54
)
;
  }
  sideWalls
  {
    type empty;
  }
  glass1
  {
    type wallHeatTransfer;
    Tinf uniform 315.2;
    alphaWall uniform 4.3;
    value nonuniform List<scalar> 9
(
  311.226
  310.638
  310.269
  309.992
  309.761
  309.549
  309.397
  309.474
  309.704
)
;
  }
  glass2
  {
    type wallHeatTransfer;
    Tinf uniform 307.2;
    alphaWall uniform 4.3;
    value nonuniform List<scalar> 2
(
  305.942
  306.051
)
;
  }
  sun
  {
    type wallHeatTransfer;
    Tinf uniform 305.2;
    alphaWall uniform 0.24;
    value nonuniform List<scalar> 14
(
  303.47
  303.224
  303.207
  303.195
  303.185
  303.174
  303.162
  303.15
  303.139
  303.132
  303.134
  303.148
  303.18
  303.22
)
;
  }
  heatsource1
  {
    type fixedGradient;
    gradient uniform 0;
  }
  heatsource2
  {
    type fixedGradient;
    gradient uniform 0;
  }
  Table_master
  {
    type zeroGradient;
  }
  Table_slave
  {
    type zeroGradient;
  }
  inlet
  {
    type fixedValue;
    value uniform 293.15;
  }
  outlet
  {
    type zeroGradient;
  }
} 	// ************************************************************************* //

