// -*- C++ -*-
// File generated by PyFoam - sorry for the ugliness

FoamFile
{
 version 2.0;
 format ascii;
 class volVectorField;
 location "500";
 object U;
}

dimensions [ 0 1 -1 0 0 0 0 ];

internalField nonuniform List<vector> 459
(
  (0.021276 0.0893323 0)
  (-0.175734 0.0283107 0)
  (-0.206364 0.0165404 0)
  (-0.236406 0.00761318 0)
  (-0.252612 -0.00195621 0)
  (-0.252685 -0.0120794 0)
  (-0.235341 -0.0228057 0)
  (-0.202246 -0.0328625 0)
  (-0.157289 -0.0402075 0)
  (-0.106694 -0.0436093 0)
  (-0.0571621 -0.0423953 0)
  (-0.01238 -0.034984 0)
  (0.0214027 -0.0182403 0)
  (0.0322027 -0.000893179 0)
  (0.0203324 0.024641 0)
  (-0.0214506 0.0134719 0)
  (-0.0418077 -0.0128225 0)
  (-0.0202063 -0.026367 0)
  (0.0043508 -0.027011 0)
  (0.0277338 -0.0210178 0)
  (0.046671 -0.0149876 0)
  (0.0598418 -0.00872861 0)
  (0.0675301 -0.0052857 0)
  (0.0712445 -0.00395184 0)
  (0.0731226 -0.00340194 0)
  (0.0743836 -0.00304668 0)
  (0.0753003 -0.00274856 0)
  (0.0758025 -0.00242425 0)
  (0.0756248 -0.00186505 0)
  (0.0741116 -0.000644619 0)
  (0.0698786 0.00184449 0)
  (0.0612924 0.00506694 0)
  (0.0487913 0.00946157 0)
  (0.00591512 0.0242677 0)
  (0.189438 0.183256 0)
  (-0.159047 0.0769273 0)
  (-0.165321 0.0554189 0)
  (-0.196589 0.0367809 0)
  (-0.213333 0.0153884 0)
  (-0.214336 -0.00879456 0)
  (-0.198306 -0.0343564 0)
  (-0.168048 -0.0567517 0)
  (-0.12831 -0.0713355 0)
  (-0.0851094 -0.0763248 0)
  (-0.0440975 -0.0716861 0)
  (-0.0085117 -0.0570764 0)
  (0.0192576 -0.0328315 0)
  (0.0372553 -0.00626556 0)
  (0.0468924 0.0216101 0)
  (0.0529452 0.0264835 0)
  (0.0374334 0.0342119 0)
  (0.0357946 0.0443901 0)
  (0.00980531 -0.01774 0)
  (0.0269667 -0.037358 0)
  (0.040534 -0.0375311 0)
  (0.0532889 -0.0310273 0)
  (0.0640891 -0.0223962 0)
  (0.0694733 -0.0103708 0)
  (0.070894 -0.00308388 0)
  (0.0709621 -0.00024253 0)
  (0.071157 0.000849716 0)
  (0.0715074 0.00145414 0)
  (0.0717765 0.00190905 0)
  (0.0719132 0.00247886 0)
  (0.0718535 0.00357294 0)
  (0.0710413 0.00613113 0)
  (0.0670053 0.01279 0)
  (0.0569413 0.0195853 0)
  (0.0459628 0.0271192 0)
  (-0.0264043 0.0509155 0)
  (0.34449 0.273612 0)
  (-0.169015 0.120294 0)
  (-0.124099 0.0886073 0)
  (-0.154551 0.0569343 0)
  (-0.170031 0.0216644 0)
  (-0.169918 -0.0177809 0)
  (-0.152495 -0.0583489 0)
  (-0.122997 -0.0919886 0)
  (-0.0876104 -0.111443 0)
  (-0.0516525 -0.115559 0)
  (-0.0192077 -0.105629 0)
  (0.00850855 -0.0829436 0)
  (0.0295405 -0.053049 0)
  (0.0458417 -0.0208903 0)
  (0.0566796 0.00968213 0)
  (0.0596362 0.0314144 0)
  (0.0530967 0.0676725 0)
  (0.0978705 -0.00293075 0)
  (0.0738381 -0.0329884 0)
  (0.0720724 -0.0449747 0)
  (0.0747712 -0.0448792 0)
  (0.0776218 -0.0385994 0)
  (0.0811579 -0.0317029 0)
  (0.0807741 -0.0242535 0)
  (0.0724807 -0.0160196 0)
  (0.0660333 -0.0115447 0)
  (0.0630617 -0.00902084 0)
  (0.0616853 -0.00739688 0)
  (0.0607627 -0.00628025 0)
  (0.0601712 -0.00538573 0)
  (0.0605097 -0.00416493 0)
  (0.0631805 -0.000357074 0)
  (0.0615455 0.0175499 0)
  (0.0496073 0.0313028 0)
  (0.045712 0.0440853 0)
  (-0.0578379 0.0777757 0)
  (0.486433 0.345979 0)
  (-0.197424 0.157604 0)
  (-0.0810853 0.11751 0)
  (-0.109688 0.0752046 0)
  (-0.120825 0.0281424 0)
  (-0.114695 -0.0265673 0)
  (-0.0927086 -0.0823994 0)
  (-0.0638869 -0.12509 0)
  (-0.0347799 -0.14634 0)
  (-0.00806736 -0.147774 0)
  (0.0147922 -0.131889 0)
  (0.0324492 -0.104694 0)
  (0.0471209 -0.0706804 0)
  (0.0597847 -0.034861 0)
  (0.071838 -0.000875821 0)
  (0.085062 0.028743 0)
  (0.103751 0.0628232 0)
  (0.134941 0.0563879 0)
  (0.129877 0.00319346 0)
  (0.115197 -0.0255639 0)
  (0.103991 -0.0376096 0)
  (0.0949909 -0.0395031 0)
  (0.0872043 -0.0352048 0)
  (0.080438 -0.0271151 0)
  (0.0792091 -0.015668 0)
  (0.0851516 -0.00990008 0)
  (0.0890882 -0.00669132 0)
  (0.0896002 -0.00463771 0)
  (0.0879836 -0.00293031 0)
  (0.0848419 -0.00123045 0)
  (0.0797084 0.000768629 0)
  (0.0714293 0.00352809 0)
  (0.0568977 0.00775718 0)
  (0.0453582 0.0277912 0)
  (0.0360771 0.0450484 0)
  (0.0467042 0.0614206 0)
  (-0.0884066 0.100511 0)
  (0.611589 0.401329 0)
  (-0.235853 0.186695 0)
  (-0.0387942 0.134758 0)
  (-0.062839 0.086079 0)
  (-0.0660793 0.0299582 0)
  (-0.0441507 -0.0404929 0)
  (-0.0167674 -0.107941 0)
  (0.00852847 -0.153507 0)
  (0.0276085 -0.170827 0)
  (0.0418156 -0.167071 0)
  (0.051874 -0.147502 0)
  (0.0589904 -0.117197 0)
  (0.0645682 -0.0812989 0)
  (0.0700176 -0.0449049 0)
  (0.0771899 -0.0120931 0)
  (0.0873241 0.014041 0)
  (0.102618 0.0278531 0)
  (0.11413 0.00714552 0)
  (0.112923 -0.014124 0)
  (0.105161 -0.0251494 0)
  (0.0946504 -0.0297678 0)
  (0.0838431 -0.0299759 0)
  (0.0739458 -0.0264198 0)
  (0.0658988 -0.0194107 0)
  (0.0618484 -0.00863073 0)
  (0.0615348 -0.00222915 0)
  (0.0613622 0.000778471 0)
  (0.0602908 0.00256788 0)
  (0.0589976 0.00429315 0)
  (0.0574619 0.00652986 0)
  (0.0552446 0.00976229 0)
  (0.0518094 0.0145548 0)
  (0.0462195 0.0217366 0)
  (0.0403523 0.0361263 0)
  (0.0334791 0.0538359 0)
  (0.0551359 0.0750111 0)
  (-0.0139808 0.110031 0)
  (0.0465951 0.0390286 0)
  (-0.058981 -0.0335104 0)
  (-0.264624 -0.0551235 0)
  (0.706062 0.446259 0)
  (-0.276025 0.20461 0)
  (-0.00487718 0.131653 0)
  (-0.013025 0.0863328 0)
  (0.000656493 0.0180692 0)
  (0.0451874 -0.0696472 0)
  (0.0714815 -0.13322 0)
  (0.0871114 -0.169856 0)
  (0.0935877 -0.181406 0)
  (0.0933821 -0.172812 0)
  (0.0887487 -0.14971 0)
  (0.0820766 -0.117629 0)
  (0.0753717 -0.0814959 0)
  (0.0704162 -0.0464251 0)
  (0.0687279 -0.0165054 0)
  (0.0711612 0.00511396 0)
  (0.0779534 0.0146411 0)
  (0.0827434 0.00689595 0)
  (0.0812742 -0.00418467 0)
  (0.0744573 -0.0130133 0)
  (0.0650786 -0.0180607 0)
  (0.0552919 -0.0193248 0)
  (0.0462105 -0.0172701 0)
  (0.0387337 -0.0124534 0)
  (0.033996 -0.00589493 0)
  (0.0320334 -0.00155819 0)
  (0.031307 0.000608925 0)
  (0.0313113 0.00194842 0)
  (0.0318562 0.00347371 0)
  (0.0328154 0.00589447 0)
  (0.0339661 0.00978775 0)
  (0.0351563 0.0156894 0)
  (0.0361599 0.0241644 0)
  (0.038001 0.0367884 0)
  (0.0392759 0.0532814 0)
  (0.0631085 0.0757769 0)
  (0.0485386 0.0983808 0)
  (0.0890171 0.0688862 0)
  (0.112293 0.0442566 0)
  (-0.126606 -0.00613393 0)
  (0.770087 0.486653 0)
  (-0.296439 0.186823 0)
  (0.0306897 0.0754157 0)
  (0.0592876 0.0440268 0)
  (0.110673 -0.0289305 0)
  (0.148505 -0.102396 0)
  (0.167163 -0.152038 0)
  (0.169307 -0.175793 0)
  (0.158671 -0.177399 0)
  (0.139622 -0.162069 0)
  (0.116446 -0.135621 0)
  (0.0929923 -0.1032 0)
  (0.0718414 -0.068657 0)
  (0.0551365 -0.0367515 0)
  (0.0440112 -0.0111575 0)
  (0.0387278 0.00567483 0)
  (0.0397135 0.0121806 0)
  (0.0409677 0.00823491 0)
  (0.0390124 0.000658748 0)
  (0.0342341 -0.00600375 0)
  (0.0271532 -0.00993668 0)
  (0.0193899 -0.0110435 0)
  (0.0119978 -0.00977152 0)
  (0.00590915 -0.00674403 0)
  (0.00204583 -0.00300926 0)
  (0.000529758 -0.000558287 0)
  (0.00064877 0.000444073 0)
  (0.00191426 0.000864813 0)
  (0.00418469 0.00163797 0)
  (0.00739471 0.00348615 0)
  (0.0115604 0.00691733 0)
  (0.0167952 0.0122781 0)
  (0.0231189 0.019946 0)
  (0.0315515 0.0303747 0)
  (0.040934 0.043241 0)
  (0.0640807 0.0610909 0)
  (0.079103 0.0723324 0)
  (0.111687 0.0518436 0)
  (0.152004 0.0420359 0)
  (-0.0391214 0.0881997 0)
  (0.878454 0.48234 0)
  (-0.0454132 0.162752 0)
  (0.122102 -0.0122773 0)
  (0.215216 -0.0728384 0)
  (0.262759 -0.1096 0)
  (0.277578 -0.140439 0)
  (0.270648 -0.1591 0)
  (0.246001 -0.162387 0)
  (0.208768 -0.151751 0)
  (0.164956 -0.130223 0)
  (0.120208 -0.102402 0)
  (0.0792466 -0.0723135 0)
  (0.0443137 -0.04215 0)
  (0.0185536 -0.0164559 0)
  (0.00160429 0.00156025 0)
  (-0.00444296 0.0103301 0)
  (-0.0043929 0.0122656 0)
  (-0.00379114 0.00891042 0)
  (-0.00517635 0.00352424 0)
  (-0.00840046 -0.00109824 0)
  (-0.0133144 -0.00379026 0)
  (-0.018925 -0.00463291 0)
  (-0.0242191 -0.00406107 0)
  (-0.0284175 -0.00264504 0)
  (-0.0309488 -0.0011639 0)
  (-0.0318483 -0.000507048 0)
  (-0.0316087 -0.000771807 0)
  (-0.0305582 -0.00152198 0)
  (-0.0286852 -0.00218649 0)
  (-0.0255633 -0.00218573 0)
  (-0.0206842 -0.000999878 0)
  (-0.013857 0.0016473 0)
  (-0.0059449 0.00566787 0)
  (0.00577526 0.0110475 0)
  (0.0184114 0.0162753 0)
  (0.0389887 0.0232594 0)
  (0.0595084 0.0207042 0)
  (0.0793905 0.000223324 0)
  (0.138461 0.0475983 0)
  (-0.425466 0.19678 0)
  (1.02978 0.427632 0)
  (0.494733 0.281835 0)
  (0.505691 0.172481 0)
  (0.5274 0.0762661 0)
  (0.486609 -0.000303488 0)
  (0.421313 -0.0567804 0)
  (0.351525 -0.0889119 0)
  (0.279308 -0.098695 0)
  (0.206835 -0.0918898 0)
  (0.137555 -0.0738431 0)
  (0.0757785 -0.0507837 0)
  (0.0246646 -0.0270608 0)
  (-0.0171473 -0.00494209 0)
  (-0.0376767 0.00607243 0)
  (-0.0462181 0.0108285 0)
  (-0.048216 0.0123765 0)
  (-0.0475431 0.0117194 0)
  (-0.0468438 0.00912385 0)
  (-0.0475601 0.00567479 0)
  (-0.0498025 0.00263467 0)
  (-0.0529521 0.000633867 0)
  (-0.0565094 -0.000371222 0)
  (-0.0599302 -0.000690503 0)
  (-0.0627371 -0.000719128 0)
  (-0.06471 -0.000874181 0)
  (-0.0660667 -0.00146363 0)
  (-0.0673595 -0.00239856 0)
  (-0.0691701 -0.00331169 0)
  (-0.0719978 -0.00370821 0)
  (-0.0762348 -0.00300756 0)
  (-0.0821382 -0.000603364 0)
  (-0.0897143 0.00399333 0)
  (-0.0993491 0.0111415 0)
  (-0.113193 0.0213902 0)
  (-0.133882 0.0350855 0)
  (-0.163388 0.0517579 0)
  (-0.205872 0.0684853 0)
  (-0.26025 0.0820396 0)
  (-0.334587 0.0894504 0)
  (-0.591036 0.0823987 0)
  (-0.0925361 0.0496997 0)
  (0.105831 -0.0126569 0)
  (0.176223 -0.0687516 0)
  (0.154075 -0.0738686 0)
  (0.120951 -0.0619936 0)
  (0.0804833 -0.0459232 0)
  (0.0357437 -0.0280406 0)
  (-0.0141284 -0.00762373 0)
  (-0.0514493 0.00559644 0)
  (-0.0743342 0.0125328 0)
  (-0.0850512 0.014955 0)
  (-0.0887105 0.0148506 0)
  (-0.0892393 0.0144634 0)
  (-0.0881312 0.0140172 0)
  (-0.0865736 0.0133184 0)
  (-0.0856049 0.0122062 0)
  (-0.0858386 0.0109955 0)
  (-0.0872539 0.0102073 0)
  (-0.0894113 0.0101656 0)
  (-0.0918159 0.010836 0)
  (-0.094085 0.0119601 0)
  (-0.0960344 0.0132306 0)
  (-0.0977026 0.0143618 0)
  (-0.0993165 0.0151342 0)
  (-0.101142 0.0154663 0)
  (-0.103345 0.0154124 0)
  (-0.105959 0.015208 0)
  (-0.108917 0.0153491 0)
  (-0.112094 0.0166122 0)
  (-0.115316 0.0199936 0)
  (-0.118367 0.0265869 0)
  (-0.12107 0.0373171 0)
  (-0.123215 0.0523658 0)
  (-0.124171 0.0701284 0)
  (-0.121847 0.0842794 0)
  (-0.107768 0.0793192 0)
  (-0.0800864 0.0243964 0)
  (-0.179819 -0.177512 0)
  (0.0535861 0.197347 0)
  (0.0450157 0.0451828 0)
  (0.0130409 -0.0214143 0)
  (-0.0300906 -0.0252445 0)
  (-0.0666331 -0.0149582 0)
  (-0.0974804 -0.00725013 0)
  (-0.119449 -0.00152307 0)
  (-0.130923 0.00131986 0)
  (-0.13467 0.000584206 0)
  (-0.134528 -0.00153041 0)
  (-0.13176 -0.00406349 0)
  (-0.128014 -0.00698554 0)
  (-0.124172 -0.00969389 0)
  (-0.12048 -0.0122553 0)
  (-0.117198 -0.0151081 0)
  (-0.114671 -0.0186726 0)
  (-0.113142 -0.0230038 0)
  (-0.112588 -0.0278241 0)
  (-0.112759 -0.0327291 0)
  (-0.11334 -0.0373779 0)
  (-0.114079 -0.0415479 0)
  (-0.114837 -0.0450853 0)
  (-0.115574 -0.0478363 0)
  (-0.116297 -0.0495676 0)
  (-0.116992 -0.0499242 0)
  (-0.117575 -0.0484983 0)
  (-0.117865 -0.0449398 0)
  (-0.117556 -0.0390409 0)
  (-0.116162 -0.0307426 0)
  (-0.112929 -0.0200216 0)
  (-0.106794 -0.00671611 0)
  (-0.0965028 0.00942571 0)
  (-0.0808484 0.0279759 0)
  (-0.0592882 0.0459402 0)
  (-0.0344306 0.0562635 0)
  (0.0252434 0.0281801 0)
  (0.14614 -0.0387381 0)
  (-0.0441579 -0.0795459 0)
  (-0.0699989 -0.332473 0)
  (-0.42517 -0.123189 0)
  (-0.302476 0.0768119 0)
  (-0.266907 0.00153852 0)
  (-0.23049 0.00643713 0)
  (-0.226183 0.0200223 0)
  (-0.22544 0.0294707 0)
  (-0.221706 0.0374525 0)
  (-0.214611 0.045121 0)
  (-0.204638 0.051983 0)
  (-0.193612 0.0575422 0)
  (-0.182995 0.0623808 0)
  (-0.173421 0.0669085 0)
  (-0.165092 0.0714423 0)
  (-0.15775 0.0763262 0)
  (-0.151005 0.0818062 0)
  (-0.144649 0.0880769 0)
  (-0.138693 0.0952076 0)
  (-0.133249 0.10305 0)
  (-0.128384 0.11123 0)
  (-0.124076 0.11926 0)
  (-0.120235 0.126704 0)
  (-0.116752 0.133253 0)
  (-0.113533 0.138695 0)
  (-0.110525 0.142816 0)
  (-0.10771 0.145325 0)
  (-0.105072 0.145862 0)
  (-0.102546 0.144118 0)
  (-0.0999618 0.139996 0)
  (-0.0969541 0.133751 0)
  (-0.0928115 0.126049 0)
  (-0.0862561 0.117919 0)
  (-0.0754269 0.110679 0)
  (-0.0586214 0.105826 0)
  (-0.0357184 0.104637 0)
  (-0.00540639 0.106415 0)
  (0.0272724 0.10533 0)
  (0.0667865 0.0922759 0)
  (0.149539 0.0556669 0)
  (-0.509407 0.138103 0)
)
;

boundaryField
{
  floor
  {
    type noSlip;
  }
  ceiling
  {
    type noSlip;
  }
  sWall
  {
    type noSlip;
  }
  nWall
  {
    type noSlip;
  }
  sideWalls
  {
    type empty;
  }
  glass1
  {
    type noSlip;
  }
  glass2
  {
    type noSlip;
  }
  sun
  {
    type noSlip;
  }
  heatsource1
  {
    type noSlip;
  }
  heatsource2
  {
    type noSlip;
  }
  Table_master
  {
    type noSlip;
  }
  Table_slave
  {
    type noSlip;
  }
  inlet
  {
    type fixedValue;
    value uniform (0.3 0 0);
  }
  outlet
  {
    type zeroGradient;
  }
} 	// ************************************************************************* //

