/*--------------------------------*- C++ -*----------------------------------*\
  =========                 |
  \\      /  F ield         | OpenFOAM: The Open Source CFD Toolbox
   \\    /   O peration     | Website:  https://openfoam.org
    \\  /    A nd           | Version:  6
     \\/     M anipulation  |
\*---------------------------------------------------------------------------*/
FoamFile
{
    version     2.0;
    format      ascii;
    class       volScalarField;
    location    "1500";
    object      nut;
}
// * * * * * * * * * * * * * * * * * * * * * * * * * * * * * * * * * * * * * //

dimensions      [0 2 -1 0 0 0 0];

internalField   nonuniform List<scalar> 
459
(
0.00106501
0.00116116
0.00118315
0.00123964
0.00129199
0.00134141
0.00139054
0.0014374
0.0014703
0.00148293
0.00146928
0.00142512
0.0013484
0.00124128
0.00111551
0.000464414
0.000554463
0.000626711
0.000633098
0.000615318
0.000589461
0.000553297
0.000516365
0.000482752
0.000452985
0.000426699
0.000403412
0.000382723
0.000364226
0.000347247
0.000330946
0.000314164
0.000303697
0.000278007
0.00145046
0.00343944
0.00325602
0.00377728
0.00428801
0.00480003
0.00524459
0.00559098
0.00591261
0.00617984
0.0063561
0.00640388
0.00627795
0.00587112
0.00473209
0.00113581
0.000706748
0.000484179
0.00102114
0.00143257
0.00174488
0.00193033
0.00194071
0.00153271
0.00131658
0.0011635
0.00104671
0.000954401
0.000879598
0.000816199
0.000757099
0.000699715
0.00064868
0.000603696
0.000716559
0.000369574
0.00177133
0.00466601
0.003972
0.00494864
0.00539696
0.00572274
0.00597719
0.00620162
0.00646202
0.00674418
0.00701496
0.00722402
0.00732567
0.00724337
0.00675566
0.00518237
0.001171
0.000909665
0.00132755
0.00173331
0.00212812
0.00242256
0.00239453
0.000786644
0.000695737
0.000621903
0.000561974
0.000512989
0.000472587
0.000439017
0.000411158
0.000388526
0.000419657
0.000484365
0.000809877
0.000431633
0.00207989
0.00596986
0.00392147
0.00516893
0.00550764
0.00558883
0.00565682
0.00578383
0.0060022
0.00629599
0.00663374
0.0069439
0.00717698
0.00726671
0.00716404
0.00660361
0.00442361
0.00137015
0.00164322
0.00209974
0.00260217
0.00305183
0.00336356
0.00320583
0.00089062
0.00081495
0.000761089
0.000720142
0.000685128
0.000652305
0.000620659
0.00058723
0.000548241
0.000514355
0.000519628
0.000941107
0.000480798
0.0023947
0.00767171
0.00423935
0.00492911
0.00539548
0.005347
0.00530071
0.00539664
0.00560116
0.00590148
0.00627465
0.00661588
0.00685455
0.00694644
0.0068929
0.00666977
0.00610439
0.00517408
0.00486012
0.00481401
0.00486716
0.00492912
0.00494073
0.00478868
0.00407222
0.00372516
0.00352405
0.00336763
0.00320124
0.00296302
0.00263289
0.00222731
0.00177487
0.00132477
0.000977808
0.000963847
0.000654387
0.000593932
0.000716124
0.000804295
0.00272916
0.00953934
0.00583161
0.00476535
0.00521605
0.00536284
0.0052191
0.00530901
0.00547851
0.00575674
0.00611989
0.00647553
0.00671272
0.00676517
0.00664837
0.00644818
0.00626037
0.00614403
0.00616028
0.00619578
0.00617688
0.00609316
0.00594729
0.00572733
0.00539362
0.0050933
0.00482721
0.00457276
0.00431558
0.00404128
0.00369367
0.00325615
0.00272801
0.00214162
0.00161485
0.00118819
0.0009094
0.000776129
0.00110355
0.000841174
0.00304313
0.0108886
0.00836166
0.00605168
0.00565365
0.00568446
0.00554231
0.00546193
0.00554361
0.0058084
0.00619128
0.00656466
0.00679055
0.0067931
0.00660795
0.00639005
0.0063431
0.00652844
0.00675618
0.00683541
0.00673736
0.00651025
0.00619792
0.00583226
0.00544639
0.00509421
0.00477921
0.00449121
0.00422788
0.00399382
0.00378833
0.00350799
0.0031041
0.00260422
0.00211592
0.00166433
0.00134487
0.0012525
0.00128217
0.000964844
0.00311105
0.00987981
0.00857314
0.00759889
0.00700546
0.00634198
0.00578692
0.00555444
0.00565953
0.00601742
0.00647995
0.00687255
0.00704325
0.00694182
0.00666403
0.00645432
0.00654836
0.00685235
0.00698333
0.00684796
0.00651994
0.00607404
0.00557701
0.00509296
0.00467177
0.00432897
0.00404918
0.00381949
0.00363856
0.00351148
0.0034449
0.0034166
0.00322396
0.00290933
0.00262781
0.00248821
0.00260293
0.0030126
0.00367891
0.00149672
0.00303615
0.0036253
0.00409466
0.004242
0.0042541
0.0043541
0.00464065
0.00514096
0.00581039
0.00651695
0.00709398
0.00739657
0.00732984
0.00696101
0.0065692
0.00650278
0.00657529
0.00657997
0.00637865
0.00597259
0.00543804
0.00486236
0.00432828
0.00388864
0.00355267
0.00329865
0.00309952
0.00293697
0.00279927
0.00267658
0.00255997
0.00244833
0.00235893
0.00229275
0.00226782
0.00227632
0.00225807
0.00215992
0.00201357
0.00139988
0.00182653
0.00325829
0.00451455
0.00556258
0.00641589
0.00718358
0.00778213
0.00808434
0.00804748
0.00768859
0.00706343
0.00636494
0.00594403
0.00579334
0.00562475
0.00530933
0.00485318
0.00432422
0.00379356
0.00332744
0.00296635
0.0027062
0.00252324
0.00239326
0.00229956
0.00223247
0.00218666
0.00215963
0.00215358
0.00217007
0.00219568
0.00222709
0.00225624
0.00225783
0.00219182
0.00204656
0.00183574
0.00114867
0.00212449
0.00457128
0.00625704
0.00705336
0.00759201
0.00796698
0.00793485
0.00743381
0.00666855
0.00585085
0.00516732
0.00467544
0.00434735
0.00405125
0.00369355
0.00329068
0.00289303
0.00254862
0.00228339
0.00209646
0.00196789
0.00188206
0.00183248
0.0018118
0.0018144
0.00183653
0.00187472
0.00192449
0.00199148
0.00207271
0.00216553
0.00226331
0.00235041
0.00240853
0.00238959
0.00240373
0.0023746
0.00116803
0.00197022
0.00196497
0.00200124
0.00207396
0.0018791
0.00172546
0.00165279
0.00157865
0.00147079
0.00133723
0.00118527
0.00103487
0.000902195
0.000797341
0.000721696
0.00066843
0.000630182
0.000602772
0.00058455
0.000574783
0.000572569
0.000576779
0.000586416
0.000600988
0.00061949
0.00064166
0.000667604
0.000697623
0.000732311
0.00077278
0.000818348
0.0008692
0.000925955
0.000989188
0.00105869
0.00114254
0.0011687
0.00113871
0.00106661
0.000989754
)
;

boundaryField
{
    floor
    {
        type            nutkWallFunction;
        Cmu             0.09;
        kappa           0.41;
        E               9.8;
        value           nonuniform List<scalar> 
29
(
0.000134228
5.51409e-05
6.66267e-05
7.5675e-05
7.64687e-05
7.42569e-05
7.10266e-05
6.64794e-05
6.17978e-05
5.75009e-05
5.36644e-05
5.02501e-05
4.72032e-05
4.44774e-05
4.20243e-05
3.97585e-05
3.75695e-05
3.53013e-05
3.38785e-05
3.03583e-05
3.03582e-05
4.27345e-05
5.08923e-05
5.72491e-05
0.000134228
5.51409e-05
5.76838e-05
0.000110037
0.000163468
)
;
    }
    ceiling
    {
        type            nutkWallFunction;
        Cmu             0.09;
        kappa           0.41;
        E               9.8;
        value           nonuniform List<scalar> 
43
(
0.000230103
0.000229449
0.000233396
0.000241385
0.000220174
0.000203265
0.000195211
0.00018695
0.00017485
0.000159725
0.000142309
0.000124819
0.000109148
9.6574e-05
8.73824e-05
8.08416e-05
7.61065e-05
7.26918e-05
7.04115e-05
6.91856e-05
6.89074e-05
6.94363e-05
7.06453e-05
7.24689e-05
7.47765e-05
7.75309e-05
8.07395e-05
8.44336e-05
8.86787e-05
9.36014e-05
9.9108e-05
0.000105211
0.000111974
0.000119452
0.000127609
0.000137369
0.000140397
0.000136925
0.000128535
0.000119519
0.000343893
0.000404792
0.000246657
)
;
    }
    sWall
    {
        type            nutkWallFunction;
        Cmu             0.09;
        kappa           0.41;
        E               9.8;
        value           uniform 0.000230164;
    }
    nWall
    {
        type            nutkWallFunction;
        Cmu             0.09;
        kappa           0.41;
        E               9.8;
        value           nonuniform List<scalar> 6(9.74144e-05 0.000101854 0.000116583 0.00013809 0.00014033 0.000119525);
    }
    sideWalls
    {
        type            empty;
    }
    glass1
    {
        type            nutkWallFunction;
        Cmu             0.09;
        kappa           0.41;
        E               9.8;
        value           nonuniform List<scalar> 9(0.000128446 0.000172776 0.000208659 0.000242496 0.000276465 0.000312041 0.000345024 0.000352121 0.000344321);
    }
    glass2
    {
        type            nutkWallFunction;
        Cmu             0.09;
        kappa           0.41;
        E               9.8;
        value           nonuniform List<scalar> 2(0.000177848 0.000166912);
    }
    sun
    {
        type            nutkWallFunction;
        Cmu             0.09;
        kappa           0.41;
        E               9.8;
        value           nonuniform List<scalar> 
14
(
0.000128349
0.000139522
0.000142064
0.000148567
0.000154565
0.000160201
0.000165782
0.000171085
0.000174796
0.000176217
0.00017468
0.000169696
0.000160996
0.000148754
)
;
    }
    heatsource1
    {
        type            nutkWallFunction;
        Cmu             0.09;
        kappa           0.41;
        E               9.8;
        value           nonuniform List<scalar> 3(7.15881e-05 8.67012e-05 9.74136e-05);
    }
    heatsource2
    {
        type            nutkWallFunction;
        Cmu             0.09;
        kappa           0.41;
        E               9.8;
        value           nonuniform List<scalar> 4(0.000136581 8.55542e-05 8.55541e-05 0.000140655);
    }
    Table_master
    {
        type            nutkWallFunction;
        Cmu             0.09;
        kappa           0.41;
        E               9.8;
        value           nonuniform List<scalar> 9(9.52806e-05 8.42034e-05 7.50793e-05 6.75773e-05 6.13727e-05 5.62001e-05 5.18603e-05 4.82272e-05 4.52527e-05);
    }
    Table_slave
    {
        type            nutkWallFunction;
        Cmu             0.09;
        kappa           0.41;
        E               9.8;
        value           nonuniform List<scalar> 9(0.000107768 9.86982e-05 9.21827e-05 8.71929e-05 8.28994e-05 7.88507e-05 7.4924e-05 7.07495e-05 6.5844e-05);
    }
    inlet
    {
        type            calculated;
        value           uniform 0.000100623;
    }
    outlet
    {
        type            calculated;
        value           nonuniform List<scalar> 2(0.00197022 0.00196497);
    }
}


// ************************************************************************* //
