/*--------------------------------*- C++ -*----------------------------------*\
  =========                 |
  \\      /  F ield         | OpenFOAM: The Open Source CFD Toolbox
   \\    /   O peration     | Website:  https://openfoam.org
    \\  /    A nd           | Version:  6
     \\/     M anipulation  |
\*---------------------------------------------------------------------------*/
FoamFile
{
    version     2.0;
    format      ascii;
    class       volScalarField;
    location    "600";
    object      nut;
}
// * * * * * * * * * * * * * * * * * * * * * * * * * * * * * * * * * * * * * //

dimensions      [0 2 -1 0 0 0 0];

internalField   nonuniform List<scalar> 
459
(
0.00117263
0.00129034
0.00132802
0.00139708
0.00146344
0.00153016
0.00159499
0.00164138
0.00166111
0.00164825
0.00159994
0.00151396
0.00132149
0.00111784
0.000933394
0.000505857
0.000595942
0.000698586
0.000753751
0.000759387
0.000740519
0.000692735
0.000640901
0.00059397
0.00055294
0.000517149
0.000485844
0.000458227
0.000433542
0.000411155
0.000389872
0.000367974
0.000346424
0.000309667
0.00155159
0.00389717
0.00379252
0.00441218
0.00503468
0.0055874
0.00600646
0.00638624
0.00669418
0.00689727
0.00696815
0.00687267
0.00655106
0.00586475
0.00403193
0.0011906
0.000915713
0.000499721
0.0012058
0.00189193
0.00246697
0.00283584
0.00283255
0.00200675
0.0016582
0.00142681
0.00125652
0.00112503
0.00101979
0.000933983
0.000860331
0.000784475
0.00071164
0.000646615
0.000697894
0.00036626
0.0018621
0.00527882
0.00468752
0.00554982
0.00597436
0.00629671
0.00657269
0.00688139
0.00721802
0.00755177
0.00784143
0.00800158
0.00795554
0.0076033
0.0065969
0.00446243
0.00119213
0.000741306
0.00135399
0.00210251
0.00291654
0.00353442
0.00345767
0.000963353
0.000836807
0.000734093
0.000651357
0.000584259
0.000529208
0.000483493
0.000445537
0.000415554
0.000451061
0.000519677
0.00078997
0.000407532
0.00215615
0.00658327
0.00474087
0.00572327
0.00591309
0.00602345
0.00618797
0.00643716
0.00678794
0.00720462
0.00762691
0.00790922
0.0080401
0.00798014
0.00759698
0.00642271
0.00357625
0.00135996
0.00159578
0.00221694
0.00312301
0.00406351
0.0047348
0.00448154
0.00109817
0.000991715
0.000912223
0.000848555
0.000795404
0.000747179
0.000700048
0.000650964
0.000595645
0.000539503
0.00053244
0.000904978
0.000445043
0.00245487
0.00825035
0.00513576
0.00568749
0.00585401
0.00584263
0.00593223
0.00612278
0.00647821
0.00692898
0.00736351
0.00767344
0.0078142
0.00780424
0.00765171
0.00719138
0.00610238
0.00528623
0.00539396
0.0057795
0.00626095
0.0066587
0.00684302
0.00661847
0.00541427
0.00478091
0.00438243
0.00406866
0.00371811
0.00331577
0.00285606
0.00234449
0.00180367
0.00129495
0.000936378
0.000952275
0.000583488
0.000562624
0.000689107
0.000774384
0.00277321
0.0101035
0.0068252
0.00598256
0.00623215
0.00602878
0.00596843
0.00606861
0.00639487
0.00686846
0.00732908
0.00763134
0.00772346
0.00767005
0.00759853
0.00757703
0.00753906
0.00767242
0.00803919
0.00835831
0.00853615
0.00854059
0.00836667
0.00799588
0.00737693
0.00680163
0.00629914
0.00581608
0.00530999
0.0047656
0.00417036
0.003518
0.00281984
0.00212591
0.00156896
0.0011936
0.000863104
0.000737476
0.00105553
0.000807645
0.00306111
0.0113844
0.00933956
0.0075298
0.00704778
0.00644254
0.0061049
0.00614039
0.00650512
0.00704462
0.00754483
0.00783544
0.00788266
0.00782091
0.00790115
0.00830051
0.00882931
0.0093354
0.00971688
0.00983274
0.00972446
0.0094377
0.00901526
0.00848641
0.00787141
0.00725988
0.00667961
0.0061115
0.00554963
0.00501007
0.00447694
0.00392111
0.00332722
0.00270939
0.00217123
0.00171749
0.00137212
0.0012605
0.00124248
0.000934808
0.00311764
0.00994419
0.00889539
0.00793941
0.00690591
0.00617343
0.00594913
0.00620887
0.00680168
0.00749098
0.00802289
0.0082524
0.00824077
0.00826003
0.00868777
0.00939682
0.00989438
0.010213
0.0103272
0.0101857
0.00982255
0.0092984
0.00866439
0.00796076
0.00723115
0.00652476
0.00585817
0.00523621
0.00468102
0.00422571
0.00388895
0.00363305
0.00332474
0.00296396
0.00265896
0.00249681
0.00252767
0.00279775
0.00350963
0.00140259
0.00303972
0.0036006
0.00399284
0.00406462
0.00422956
0.00471218
0.00552407
0.00655683
0.00759266
0.00837884
0.00872004
0.00865868
0.00863867
0.00897337
0.00941029
0.00977213
0.00995209
0.00995432
0.00976029
0.0093576
0.00877736
0.00807118
0.00728745
0.00647794
0.0056947
0.00497067
0.00431395
0.00373467
0.00325499
0.002882
0.00260772
0.00241679
0.00229161
0.00220946
0.00217025
0.00216604
0.0021503
0.00207651
0.00193863
0.00130199
0.00155224
0.00300421
0.00534201
0.0071808
0.00847494
0.00928871
0.00960456
0.00950593
0.00906948
0.00862259
0.008516
0.00869304
0.00883357
0.00884071
0.00870995
0.00842682
0.00797292
0.00736335
0.00665232
0.00590924
0.00519411
0.00454592
0.00397899
0.00349151
0.0030812
0.00274969
0.0024963
0.00232007
0.00221201
0.00215706
0.00214244
0.00215591
0.00218467
0.00220716
0.00219036
0.00211209
0.00186374
0.0010508
0.0019772
0.00533082
0.00759126
0.00884771
0.0091538
0.00888727
0.00829615
0.00764971
0.00713988
0.00681045
0.00662782
0.00649264
0.00634474
0.00617292
0.00595199
0.00565286
0.00527185
0.00484001
0.00440619
0.00401104
0.00367314
0.0033916
0.00315544
0.00295228
0.00277293
0.0026126
0.00247103
0.00235252
0.00226352
0.00220979
0.00219325
0.00220767
0.00223522
0.00224915
0.00221367
0.0021318
0.00165589
0.00107637
0.00175769
0.00185309
0.00192051
0.00203911
0.00191949
0.00184724
0.00176373
0.00165332
0.00152107
0.00138826
0.00127216
0.001183
0.00112113
0.0010788
0.00104759
0.00102104
0.000994696
0.000966433
0.000936531
0.000906812
0.000879257
0.000855022
0.000834302
0.000816765
0.000802124
0.000790577
0.000782973
0.000780653
0.000785081
0.000797423
0.000818351
0.000848122
0.000886766
0.000933931
0.000987631
0.00104428
0.00104513
0.000933222
0.000904799
0.00110322
)
;

boundaryField
{
    floor
    {
        type            nutkWallFunction;
        Cmu             0.09;
        kappa           0.41;
        E               9.8;
        value           nonuniform List<scalar> 
29
(
0.000112857
6.04541e-05
7.18339e-05
8.45491e-05
9.12891e-05
9.19751e-05
8.96791e-05
8.3832e-05
7.74343e-05
7.15878e-05
6.64302e-05
6.18929e-05
5.78923e-05
5.43363e-05
5.1135e-05
4.82117e-05
4.54138e-05
4.25144e-05
3.96389e-05
3.46796e-05
3.46796e-05
4.22846e-05
4.77346e-05
5.26273e-05
0.000112857
6.0454e-05
5.96707e-05
8.97664e-05
0.000162308
)
;
    }
    ceiling
    {
        type            nutkWallFunction;
        Cmu             0.09;
        kappa           0.41;
        E               9.8;
        value           nonuniform List<scalar> 
43
(
0.000206722
0.000217218
0.000224602
0.000237635
0.000224631
0.000216724
0.00020753
0.000195295
0.000180519
0.000165536
0.000152308
0.000142058
0.000134894
0.000129967
0.000126321
0.000123209
0.000120112
0.000116779
0.00011324
0.00010971
0.000106424
0.000103525
0.000101038
9.89277e-05
9.71616e-05
9.57658e-05
9.4845e-05
9.45632e-05
9.50985e-05
9.65902e-05
9.91142e-05
0.000102692
0.000107315
0.000112926
0.000119275
0.00012593
0.000126029
0.00011284
0.000109463
0.000132813
0.000344257
0.000402249
0.000230645
)
;
    }
    sWall
    {
        type            nutkWallFunction;
        Cmu             0.09;
        kappa           0.41;
        E               9.8;
        value           uniform 0.000206779;
    }
    nWall
    {
        type            nutkWallFunction;
        Cmu             0.09;
        kappa           0.41;
        E               9.8;
        value           nonuniform List<scalar> 6(9.37968e-05 9.78206e-05 0.000113036 0.000126701 0.00012969 0.000132821);
    }
    sideWalls
    {
        type            empty;
    }
    glass1
    {
        type            nutkWallFunction;
        Cmu             0.09;
        kappa           0.41;
        E               9.8;
        value           nonuniform List<scalar> 9(0.000140986 0.000184172 0.000218673 0.000250769 0.000282898 0.000316686 0.000346896 0.000352803 0.000344688);
    }
    glass2
    {
        type            nutkWallFunction;
        Cmu             0.09;
        kappa           0.41;
        E               9.8;
        value           nonuniform List<scalar> 2(0.000167224 0.000155774);
    }
    sun
    {
        type            nutkWallFunction;
        Cmu             0.09;
        kappa           0.41;
        E               9.8;
        value           nonuniform List<scalar> 
14
(
0.000140854
0.000154377
0.000158678
0.000166525
0.000174025
0.000181527
0.000188784
0.000193955
0.000196149
0.000194718
0.000189332
0.000179704
0.00015793
0.000134499
)
;
    }
    heatsource1
    {
        type            nutkWallFunction;
        Cmu             0.09;
        kappa           0.41;
        E               9.8;
        value           nonuniform List<scalar> 3(6.76543e-05 8.33874e-05 9.3797e-05);
    }
    heatsource2
    {
        type            nutkWallFunction;
        Cmu             0.09;
        kappa           0.41;
        E               9.8;
        value           nonuniform List<scalar> 4(0.000142919 0.000110757 0.000110757 0.000143095);
    }
    Table_master
    {
        type            nutkWallFunction;
        Cmu             0.09;
        kappa           0.41;
        E               9.8;
        value           nonuniform List<scalar> 9(0.000116401 0.000101327 8.88953e-05 7.87313e-05 7.0374e-05 6.34299e-05 5.75954e-05 5.2699e-05 4.8794e-05);
    }
    Table_slave
    {
        type            nutkWallFunction;
        Cmu             0.09;
        kappa           0.41;
        E               9.8;
        value           nonuniform List<scalar> 9(0.000132214 0.00011975 0.000110343 0.00010274 9.63423e-05 9.04934e-05 8.47336e-05 7.86856e-05 7.18028e-05);
    }
    inlet
    {
        type            calculated;
        value           uniform 0.000100623;
    }
    outlet
    {
        type            calculated;
        value           nonuniform List<scalar> 2(0.00175769 0.00185309);
    }
}


// ************************************************************************* //
