/*--------------------------------*- C++ -*----------------------------------*\
  =========                 |
  \\      /  F ield         | OpenFOAM: The Open Source CFD Toolbox
   \\    /   O peration     | Website:  https://openfoam.org
    \\  /    A nd           | Version:  6
     \\/     M anipulation  |
\*---------------------------------------------------------------------------*/
FoamFile
{
    version     2.0;
    format      ascii;
    class       volScalarField;
    location    "1200";
    object      epsilon;
}
// * * * * * * * * * * * * * * * * * * * * * * * * * * * * * * * * * * * * * //

dimensions      [0 2 -3 0 0 0 0];

internalField   nonuniform List<scalar> 
459
(
0.00042683
0.000553145
0.000585205
0.000673058
0.000761941
0.000852654
0.000949645
0.001049
0.0011229
0.00115253
0.00112165
0.0010243
0.000868551
0.000678615
0.000493454
3.54427e-05
6.03933e-05
8.71938e-05
8.9769e-05
8.23751e-05
7.23945e-05
5.98773e-05
4.86863e-05
3.97998e-05
3.28947e-05
2.75034e-05
2.32485e-05
1.98572e-05
1.71191e-05
1.4838e-05
1.28471e-05
1.09915e-05
9.92407e-06
7.60636e-06
0.00107806
0.0015761
0.000519235
0.000502426
0.000524805
0.0005641
0.000624687
0.000705371
0.000782745
0.000831241
0.000830466
0.000774579
0.000671968
0.000544932
0.000440076
0.000520879
0.000124601
4.02277e-05
9.52271e-05
0.000106174
9.95036e-05
8.67828e-05
7.40612e-05
6.78647e-05
5.48838e-05
4.33078e-05
3.41758e-05
2.71702e-05
2.18191e-05
1.77249e-05
1.46072e-05
1.23181e-05
1.09136e-05
1.03151e-05
2.61193e-05
1.78425e-05
0.00196352
0.0038754
0.000637528
0.000475423
0.000495876
0.000555977
0.000647843
0.000764995
0.000873277
0.000938242
0.000942203
0.000886204
0.000781828
0.000654688
0.000536385
0.000478437
0.000568733
0.000268073
0.000210545
0.000167735
0.00013461
0.000108835
9.32364e-05
0.000172104
0.000119101
8.50858e-05
6.27959e-05
4.77752e-05
3.73615e-05
2.99599e-05
2.46173e-05
2.07768e-05
1.58429e-05
1.32808e-05
4.91157e-05
2.84001e-05
0.00317921
0.00806535
0.0010054
0.000477159
0.000480331
0.000564552
0.000703028
0.000878185
0.00101598
0.00108292
0.00107522
0.00100387
0.000879651
0.000733734
0.000605018
0.000521453
0.000503024
0.000912301
0.000528044
0.000325094
0.000221782
0.00016244
0.000125357
0.000108033
0.000249661
0.000191267
0.000155761
0.000131909
0.000113558
9.80024e-05
8.44176e-05
7.15008e-05
5.819e-05
3.46204e-05
2.23993e-05
8.11432e-05
3.92363e-05
0.00485329
0.01443
0.00198865
0.000557414
0.000482401
0.000594001
0.000843316
0.00110672
0.0012538
0.00129728
0.00125693
0.00115091
0.000993528
0.000810714
0.000634043
0.000489555
0.000391157
0.000349996
0.000287892
0.000231349
0.000185709
0.000149782
0.000121895
0.000102553
9.89911e-05
9.25404e-05
8.62927e-05
8.00711e-05
7.33415e-05
6.59715e-05
5.85923e-05
5.15647e-05
4.50913e-05
3.62004e-05
2.77732e-05
5.84288e-05
4.51577e-05
7.38838e-05
0.000129614
0.000183624
0.00718563
0.021495
0.00449209
0.00104162
0.000678634
0.000791328
0.00129423
0.00156142
0.00163996
0.00161388
0.00151845
0.00136178
0.00115109
0.000910941
0.00067766
0.000485971
0.000354722
0.000281424
0.000237184
0.000201546
0.000168792
0.000140157
0.000117003
0.000100603
9.23884e-05
8.90435e-05
8.73075e-05
8.51401e-05
8.1325e-05
7.49217e-05
6.57976e-05
5.61961e-05
4.73683e-05
3.94621e-05
3.42441e-05
4.46278e-05
4.66656e-05
5.70571e-05
0.000239463
0.000210013
0.00996411
0.0257466
0.00937999
0.00344862
0.002211
0.00218615
0.00239628
0.00237315
0.00224357
0.00207624
0.00187896
0.00163682
0.00134542
0.00102933
0.000730496
0.00049286
0.000337822
0.000254501
0.00021019
0.000178333
0.000150174
0.000126549
0.000109035
9.84958e-05
9.49939e-05
9.63351e-05
9.95554e-05
0.000102886
0.000105103
0.000104517
9.78847e-05
8.67546e-05
7.56243e-05
6.61535e-05
6.23411e-05
6.95357e-05
8.84935e-05
0.000141223
0.000324364
0.000315992
0.0106471
0.0286942
0.0156019
0.00994744
0.0070662
0.00546579
0.00433256
0.00357038
0.00305282
0.00266868
0.00232479
0.00195803
0.00154896
0.00113022
0.000749817
0.000465376
0.000296606
0.000213873
0.000173775
0.000146859
0.000125395
0.00010976
0.000100462
9.73679e-05
9.97584e-05
0.000106227
0.000115473
0.000127075
0.000141113
0.000157498
0.000175211
0.000186675
0.000196533
0.000217679
0.000261606
0.000393137
0.000725776
0.00136831
0.00398411
0.00118124
0.00989685
0.016851
0.0135222
0.0102146
0.00779525
0.00614607
0.00503205
0.00427163
0.00372427
0.00326115
0.00278312
0.00224355
0.00165307
0.00109814
0.000622923
0.000334731
0.000214046
0.000160433
0.000132189
0.000113346
0.000100333
9.27351e-05
9.02933e-05
9.25164e-05
9.87986e-05
0.000108646
0.00012204
0.000139679
0.000162941
0.000193857
0.000235148
0.000290779
0.000367218
0.00048195
0.00065084
0.000879931
0.00114188
0.00137038
0.00154659
0.000967717
0.00493438
0.00663617
0.00668172
0.00619073
0.00551859
0.00487694
0.0042374
0.00353483
0.00275705
0.00192687
0.00105954
0.000564428
0.000303271
0.000182054
0.000129205
0.000103169
8.83149e-05
7.91411e-05
7.37831e-05
7.17572e-05
7.2722e-05
7.63117e-05
8.23228e-05
9.08173e-05
0.000102221
0.000117388
0.00013768
0.00016516
0.000203057
0.000256284
0.000330185
0.000431871
0.000564701
0.000716191
0.000845911
0.000899976
0.000845474
0.000535425
0.00340573
0.00671964
0.00664436
0.00535246
0.00452747
0.00385824
0.0030102
0.00210837
0.00134287
0.000787765
0.000435168
0.000246479
0.000151706
0.000107159
8.60944e-05
7.52407e-05
6.93296e-05
6.63742e-05
6.55896e-05
6.65986e-05
6.91655e-05
7.32896e-05
7.91552e-05
8.70445e-05
9.74491e-05
0.000111176
0.000129492
0.000154344
0.00018846
0.00023544
0.000300176
0.000387571
0.000498164
0.000623498
0.000716673
0.0008118
0.000762475
0.000563009
0.0021663
0.00253006
0.00282383
0.00312876
0.00233737
0.00181597
0.00159808
0.00139464
0.00112946
0.000850831
0.000593521
0.000395509
0.000262223
0.000181076
0.000134301
0.000106717
8.94295e-05
7.82595e-05
7.13691e-05
6.78379e-05
6.70347e-05
6.84874e-05
7.19275e-05
7.73592e-05
8.46431e-05
9.39619e-05
0.000105714
0.000120502
0.000139251
0.000163488
0.000193966
0.000232211
0.000280495
0.000341701
0.000418607
0.000525549
0.000562713
0.000520687
0.000428032
0.000342267
)
;

boundaryField
{
    floor
    {
        Cmu             0.09;
        kappa           0.41;
        E               9.8;
        type            epsilonWallFunction;
        value           nonuniform List<scalar> 
29
(
0.000493454
3.54427e-05
6.03933e-05
8.71938e-05
8.9769e-05
8.23751e-05
7.23945e-05
5.98773e-05
4.86863e-05
3.97998e-05
3.28947e-05
2.75034e-05
2.32485e-05
1.98572e-05
1.71191e-05
1.4838e-05
1.28471e-05
1.09915e-05
9.92407e-06
7.60636e-06
7.60636e-06
1.78425e-05
2.84001e-05
3.92363e-05
0.000493454
3.54427e-05
4.02277e-05
0.000268073
0.000912301
)
;
    }
    ceiling
    {
        Cmu             0.09;
        kappa           0.41;
        E               9.8;
        type            epsilonWallFunction;
        value           nonuniform List<scalar> 
43
(
0.0021663
0.00253006
0.00282383
0.00312876
0.00233737
0.00181597
0.00159808
0.00139464
0.00112946
0.000850831
0.000593521
0.000395509
0.000262223
0.000181076
0.000134301
0.000106717
8.94295e-05
7.82595e-05
7.13691e-05
6.78379e-05
6.70347e-05
6.84874e-05
7.19275e-05
7.73592e-05
8.46431e-05
9.39619e-05
0.000105714
0.000120502
0.000139251
0.000163488
0.000193966
0.000232211
0.000280495
0.000341701
0.000418607
0.000525549
0.000562713
0.000520687
0.000428032
0.000342267
0.00989685
0.016851
0.00340573
)
;
    }
    sWall
    {
        Cmu             0.09;
        kappa           0.41;
        E               9.8;
        type            epsilonWallFunction;
        value           uniform 0.0021663;
    }
    nWall
    {
        Cmu             0.09;
        kappa           0.41;
        E               9.8;
        type            epsilonWallFunction;
        value           nonuniform List<scalar> 6(0.000183624 0.000210013 0.000315992 0.000535425 0.000563009 0.000342267);
    }
    sideWalls
    {
        type            empty;
    }
    glass1
    {
        Cmu             0.09;
        kappa           0.41;
        E               9.8;
        type            epsilonWallFunction;
        value           nonuniform List<scalar> 9(0.00042683 0.00107806 0.00196352 0.00317921 0.00485329 0.00718563 0.00996411 0.0106471 0.00989685);
    }
    glass2
    {
        Cmu             0.09;
        kappa           0.41;
        E               9.8;
        type            epsilonWallFunction;
        value           nonuniform List<scalar> 2(0.00118124 0.000967717);
    }
    sun
    {
        Cmu             0.09;
        kappa           0.41;
        E               9.8;
        type            epsilonWallFunction;
        value           nonuniform List<scalar> 
14
(
0.00042683
0.000553145
0.000585205
0.000673058
0.000761941
0.000852654
0.000949645
0.001049
0.0011229
0.00115253
0.00112165
0.0010243
0.000868551
0.000678615
)
;
    }
    heatsource1
    {
        Cmu             0.09;
        kappa           0.41;
        E               9.8;
        type            epsilonWallFunction;
        value           nonuniform List<scalar> 3(7.38838e-05 0.000129614 0.000183624);
    }
    heatsource2
    {
        Cmu             0.09;
        kappa           0.41;
        E               9.8;
        type            epsilonWallFunction;
        value           nonuniform List<scalar> 4(0.000520879 0.000124601 0.000124601 0.000568733);
    }
    Table_master
    {
        Cmu             0.09;
        kappa           0.41;
        E               9.8;
        type            epsilonWallFunction;
        value           nonuniform List<scalar> 9(0.000172104 0.000119101 8.50858e-05 6.27959e-05 4.77752e-05 3.73615e-05 2.99599e-05 2.46173e-05 2.07768e-05);
    }
    Table_slave
    {
        Cmu             0.09;
        kappa           0.41;
        E               9.8;
        type            epsilonWallFunction;
        value           nonuniform List<scalar> 9(0.000249661 0.000191267 0.000155761 0.000131909 0.000113558 9.80024e-05 8.44176e-05 7.15008e-05 5.819e-05);
    }
    inlet
    {
        type            turbulentMixingLengthDissipationRateInlet;
        mixingLength    0.01;
        phi             phi;
        k               k;
        value           uniform 0.000101881;
    }
    outlet
    {
        type            zeroGradient;
    }
}


// ************************************************************************* //
