// -*- C++ -*-
// File generated by PyFoam - sorry for the ugliness

FoamFile
{
 version 2.0;
 format ascii;
 class volVectorField;
 location "400";
 object U;
}

dimensions [ 0 1 -1 0 0 0 0 ];

internalField nonuniform List<vector> 459
(
  (0.0558853 0.0815807 0)
  (-0.158581 0.0191587 0)
  (-0.173485 0.0167294 0)
  (-0.203407 0.0134462 0)
  (-0.228284 0.00935313 0)
  (-0.247385 0.00487508 0)
  (-0.259743 -3.54589e-05 0)
  (-0.264134 -0.00551192 0)
  (-0.258942 -0.0116828 0)
  (-0.243523 -0.0186842 0)
  (-0.217455 -0.0259714 0)
  (-0.181252 -0.033056 0)
  (-0.136884 -0.0401816 0)
  (-0.0922789 -0.048986 0)
  (-0.0718096 -0.0602271 0)
  (0.0292767 0.0135008 0)
  (-0.017905 -0.0138456 0)
  (0.000408729 -0.0155554 0)
  (0.0105892 -0.00735376 0)
  (0.015424 -0.00170888 0)
  (0.0165984 0.00203165 0)
  (0.0142277 0.00486718 0)
  (0.00934969 0.00491557 0)
  (0.0046093 0.00185588 0)
  (0.0024688 -0.000693676 0)
  (0.00185218 -0.0015937 0)
  (0.00204789 -0.00170886 0)
  (0.0025673 -0.00176405 0)
  (0.00330033 -0.00188718 0)
  (0.00416376 -0.00187923 0)
  (0.00489449 -0.00163584 0)
  (0.00698332 -0.00568839 0)
  (0.0309405 -0.0105407 0)
  (-0.0386651 0.00865176 0)
  (0.246609 0.170117 0)
  (-0.160059 0.0536181 0)
  (-0.145249 0.0491393 0)
  (-0.178393 0.0423956 0)
  (-0.203721 0.0343293 0)
  (-0.223231 0.0251871 0)
  (-0.236233 0.0146125 0)
  (-0.241604 0.00220071 0)
  (-0.237657 -0.0122548 0)
  (-0.224214 -0.0278405 0)
  (-0.201305 -0.0427994 0)
  (-0.170212 -0.0552693 0)
  (-0.133848 -0.0641335 0)
  (-0.0983197 -0.0691162 0)
  (-0.0719948 -0.0671873 0)
  (-0.0476802 -0.0431732 0)
  (-0.0124462 -0.0118093 0)
  (0.111826 0.000612956 0)
  (0.0466142 -0.00937968 0)
  (0.034361 -0.0104656 0)
  (0.0369915 -0.00609789 0)
  (0.04011 -0.00190115 0)
  (0.0422968 0.00132948 0)
  (0.0433375 0.00509684 0)
  (0.0433526 0.00654894 0)
  (0.0433321 0.00588177 0)
  (0.0429196 0.0047043 0)
  (0.041923 0.00376585 0)
  (0.0406093 0.00313167 0)
  (0.0392159 0.00267743 0)
  (0.0378125 0.00233093 0)
  (0.0358414 0.0023357 0)
  (0.0316054 0.00414397 0)
  (0.0224325 -0.000483927 0)
  (0.0400122 -0.00833301 0)
  (-0.110937 0.0263063 0)
  (0.418977 0.257032 0)
  (-0.190888 0.0907041 0)
  (-0.112047 0.0823471 0)
  (-0.147923 0.0683132 0)
  (-0.171119 0.0542342 0)
  (-0.189686 0.0388015 0)
  (-0.202792 0.0211119 0)
  (-0.209058 0.000585097 0)
  (-0.206176 -0.0226499 0)
  (-0.19414 -0.0473869 0)
  (-0.173628 -0.0705641 0)
  (-0.146424 -0.0890776 0)
  (-0.115387 -0.100508 0)
  (-0.084782 -0.102283 0)
  (-0.058511 -0.0911458 0)
  (-0.0351531 -0.0643416 0)
  (-0.00962599 -0.034084 0)
  (0.102525 -0.0430481 0)
  (0.0270145 -0.0279989 0)
  (0.0233552 -0.0149625 0)
  (0.0305965 -0.00826963 0)
  (0.0359452 -0.00563454 0)
  (0.0408795 -0.00514706 0)
  (0.0477538 -0.00315294 0)
  (0.0522509 -0.00159128 0)
  (0.0557142 -0.00152207 0)
  (0.0584113 -0.00201404 0)
  (0.0602501 -0.00248983 0)
  (0.0614913 -0.0028174 0)
  (0.0624397 -0.00303809 0)
  (0.0633863 -0.0031613 0)
  (0.0644945 -0.00182081 0)
  (0.0606947 0.0108172 0)
  (0.04553 0.013651 0)
  (0.0616916 0.0087823 0)
  (-0.136312 0.0384476 0)
  (0.570574 0.328375 0)
  (-0.2371 0.126703 0)
  (-0.0740462 0.111921 0)
  (-0.113823 0.0915033 0)
  (-0.131895 0.0736836 0)
  (-0.147502 0.0541225 0)
  (-0.159528 0.0310398 0)
  (-0.166056 0.00334442 0)
  (-0.163595 -0.0287355 0)
  (-0.152468 -0.0624109 0)
  (-0.134622 -0.0929018 0)
  (-0.112174 -0.116333 0)
  (-0.0873328 -0.129848 0)
  (-0.0628691 -0.129761 0)
  (-0.0411971 -0.114074 0)
  (-0.0221576 -0.0863167 0)
  (-0.00405742 -0.0511817 0)
  (0.0216631 0.0426358 0)
  (0.0309893 -0.0187288 0)
  (0.0182114 -0.0210491 0)
  (0.0182057 -0.012719 0)
  (0.0226737 -0.00982998 0)
  (0.0261882 -0.0091363 0)
  (0.0287193 -0.00837668 0)
  (0.0322458 -0.00762395 0)
  (0.0403826 -0.00832585 0)
  (0.0497425 -0.00896976 0)
  (0.0598536 -0.00947914 0)
  (0.0705205 -0.00953185 0)
  (0.0807914 -0.00865376 0)
  (0.0887959 -0.00626526 0)
  (0.0916548 -0.00195247 0)
  (0.0858495 0.00476148 0)
  (0.0722036 0.022346 0)
  (0.0534181 0.0357165 0)
  (0.0640678 0.043298 0)
  (-0.197153 0.0454922 0)
  (0.699673 0.385319 0)
  (-0.2869 0.1593 0)
  (-0.0332239 0.131162 0)
  (-0.076729 0.107415 0)
  (-0.0875784 0.0880173 0)
  (-0.0980555 0.0661051 0)
  (-0.107179 0.0392159 0)
  (-0.112514 0.00566759 0)
  (-0.108552 -0.0342886 0)
  (-0.0975587 -0.0756442 0)
  (-0.0830598 -0.111148 0)
  (-0.0668046 -0.137189 0)
  (-0.0498509 -0.151638 0)
  (-0.0337453 -0.150153 0)
  (-0.020096 -0.13129 0)
  (-0.0092231 -0.101376 0)
  (-0.000607915 -0.0676341 0)
  (0.0119229 -0.0378552 0)
  (0.0184195 -0.033389 0)
  (0.0170322 -0.0239944 0)
  (0.0149556 -0.0161781 0)
  (0.0160114 -0.0129289 0)
  (0.0181127 -0.0119796 0)
  (0.0207585 -0.0115947 0)
  (0.0250274 -0.0111765 0)
  (0.0314562 -0.01216 0)
  (0.0389917 -0.0138214 0)
  (0.0475232 -0.015301 0)
  (0.0569105 -0.0157417 0)
  (0.0665679 -0.0140164 0)
  (0.075354 -0.0086314 0)
  (0.0818518 0.0016895 0)
  (0.0831827 0.0160572 0)
  (0.0791061 0.0345176 0)
  (0.0690366 0.0522967 0)
  (0.0808842 0.0679254 0)
  (0.00514335 0.0613795 0)
  (0.0591086 0.0349157 0)
  (-0.0386395 -0.0175266 0)
  (-0.289859 -0.0462565 0)
  (0.792629 0.434455 0)
  (-0.332585 0.184645 0)
  (0.00159228 0.132641 0)
  (-0.0365456 0.115432 0)
  (-0.040121 0.0966791 0)
  (-0.0446836 0.0736738 0)
  (-0.0494511 0.0450557 0)
  (-0.0516048 0.00767493 0)
  (-0.0411493 -0.0403295 0)
  (-0.0302739 -0.0874527 0)
  (-0.0206724 -0.124581 0)
  (-0.0123764 -0.150347 0)
  (-0.0049752 -0.164259 0)
  (0.001098 -0.161119 0)
  (0.00500077 -0.13935 0)
  (0.00671592 -0.107009 0)
  (0.0073977 -0.0719666 0)
  (0.00961332 -0.0411552 0)
  (0.0104172 -0.0266821 0)
  (0.00776072 -0.0194108 0)
  (0.00600795 -0.015398 0)
  (0.00677639 -0.0138856 0)
  (0.00837316 -0.0137687 0)
  (0.0103807 -0.0143623 0)
  (0.0134401 -0.0156038 0)
  (0.0177736 -0.0180107 0)
  (0.023115 -0.0209676 0)
  (0.0294656 -0.023678 0)
  (0.0368621 -0.0251855 0)
  (0.045224 -0.0240685 0)
  (0.0542976 -0.0182602 0)
  (0.0637128 -0.0054659 0)
  (0.0722366 0.0137775 0)
  (0.0769086 0.0351804 0)
  (0.078577 0.0549865 0)
  (0.0927445 0.0726967 0)
  (0.0832201 0.0688716 0)
  (0.10594 0.057751 0)
  (0.119753 0.0458821 0)
  (-0.105859 0.0132938 0)
  (0.828942 0.47867 0)
  (-0.356952 0.174292 0)
  (0.0263076 0.0905111 0)
  (0.0162372 0.112355 0)
  (0.0147862 0.104046 0)
  (0.0136767 0.0779614 0)
  (0.0138951 0.0453458 0)
  (0.0196679 0.00148591 0)
  (0.0386398 -0.0529887 0)
  (0.0466701 -0.0978228 0)
  (0.048615 -0.130883 0)
  (0.0467717 -0.153306 0)
  (0.043109 -0.165272 0)
  (0.0381528 -0.160785 0)
  (0.0314625 -0.137632 0)
  (0.0226859 -0.10394 0)
  (0.0138683 -0.068152 0)
  (0.00655618 -0.0378142 0)
  (0.000705978 -0.0217127 0)
  (-0.00349355 -0.0164507 0)
  (-0.00439896 -0.015418 0)
  (-0.00344608 -0.0149018 0)
  (-0.00280117 -0.0149025 0)
  (-0.00246351 -0.016012 0)
  (-0.00152724 -0.0182621 0)
  (0.000188952 -0.0216043 0)
  (0.00253989 -0.0255266 0)
  (0.00551209 -0.0293382 0)
  (0.00930374 -0.0321858 0)
  (0.0142406 -0.0327156 0)
  (0.0208218 -0.0288544 0)
  (0.0297148 -0.0177064 0)
  (0.0446208 0.00331527 0)
  (0.0578152 0.0263895 0)
  (0.0689191 0.0453523 0)
  (0.0873941 0.0595597 0)
  (0.102508 0.0566546 0)
  (0.125447 0.0446106 0)
  (0.160806 0.0494607 0)
  (-0.0347619 0.10796 0)
  (0.930253 0.490563 0)
  (-0.110708 0.155415 0)
  (0.0921599 0.0274597 0)
  (0.131798 0.0521864 0)
  (0.114515 0.0676061 0)
  (0.103227 0.0489397 0)
  (0.103746 0.0131045 0)
  (0.120196 -0.0307046 0)
  (0.133154 -0.0683108 0)
  (0.13161 -0.100253 0)
  (0.120691 -0.125387 0)
  (0.104902 -0.143881 0)
  (0.0883215 -0.154953 0)
  (0.0721361 -0.149826 0)
  (0.0549543 -0.125044 0)
  (0.0347417 -0.0903563 0)
  (0.0152261 -0.0548503 0)
  (-0.00100259 -0.0262386 0)
  (-0.0113114 -0.0146293 0)
  (-0.0154392 -0.0145908 0)
  (-0.0151299 -0.0167231 0)
  (-0.0139076 -0.0156986 0)
  (-0.0148967 -0.014638 0)
  (-0.0168549 -0.0157139 0)
  (-0.0184719 -0.0185005 0)
  (-0.0198238 -0.0222309 0)
  (-0.0212837 -0.0263882 0)
  (-0.0229999 -0.0305488 0)
  (-0.0248505 -0.0340784 0)
  (-0.0264726 -0.0360213 0)
  (-0.0271686 -0.0351301 0)
  (-0.0257615 -0.0299995 0)
  (-0.0194648 -0.0192646 0)
  (0.00590922 -0.000843989 0)
  (0.0199461 0.0147121 0)
  (0.036558 0.0206039 0)
  (0.0485916 0.0106509 0)
  (0.0627192 -0.00411693 0)
  (0.126063 0.0565011 0)
  (-0.444007 0.228071 0)
  (1.06404 0.447775 0)
  (0.518757 0.299314 0)
  (0.514701 0.231962 0)
  (0.48164 0.187532 0)
  (0.405578 0.155662 0)
  (0.342918 0.112585 0)
  (0.309654 0.0639707 0)
  (0.288847 0.0159728 0)
  (0.258246 -0.0295378 0)
  (0.222499 -0.067048 0)
  (0.185217 -0.0951583 0)
  (0.149059 -0.116096 0)
  (0.118241 -0.130842 0)
  (0.0922647 -0.127309 0)
  (0.0673011 -0.101488 0)
  (0.0367014 -0.0667699 0)
  (0.0066366 -0.0328979 0)
  (-0.0150391 -0.0103807 0)
  (-0.0255961 -0.00791727 0)
  (-0.0286233 -0.0148921 0)
  (-0.0257008 -0.0196643 0)
  (-0.0236868 -0.0158052 0)
  (-0.0268745 -0.0128962 0)
  (-0.031575 -0.0138614 0)
  (-0.035774 -0.0168259 0)
  (-0.0400659 -0.0201338 0)
  (-0.0454593 -0.0233576 0)
  (-0.0524932 -0.0262992 0)
  (-0.0614299 -0.0283484 0)
  (-0.0725612 -0.0284387 0)
  (-0.0863121 -0.0251431 0)
  (-0.103314 -0.0168031 0)
  (-0.123708 -0.00198635 0)
  (-0.144697 0.0187527 0)
  (-0.166664 0.0410726 0)
  (-0.203993 0.0627668 0)
  (-0.257008 0.081236 0)
  (-0.313096 0.0945633 0)
  (-0.382153 0.101394 0)
  (-0.654813 0.101015 0)
  (-0.183074 0.152205 0)
  (0.175414 0.182978 0)
  (0.262757 0.156179 0)
  (0.259992 0.114318 0)
  (0.25724 0.0673471 0)
  (0.251627 0.0228493 0)
  (0.237559 -0.0136057 0)
  (0.211915 -0.0401814 0)
  (0.178748 -0.0599667 0)
  (0.143206 -0.0778959 0)
  (0.112096 -0.0964341 0)
  (0.0831588 -0.0941537 0)
  (0.0576392 -0.0654519 0)
  (0.0212351 -0.0333192 0)
  (-0.0169798 -0.00366539 0)
  (-0.0325167 0.00417516 0)
  (-0.0416952 -0.000893737 0)
  (-0.0413131 -0.0111653 0)
  (-0.0350725 -0.0176602 0)
  (-0.0324758 -0.0110078 0)
  (-0.0378708 -0.00922483 0)
  (-0.0449852 -0.0103272 0)
  (-0.0502313 -0.0122539 0)
  (-0.0552931 -0.0141307 0)
  (-0.0620597 -0.0156814 0)
  (-0.0709363 -0.0167764 0)
  (-0.0816974 -0.0168548 0)
  (-0.0939442 -0.0150066 0)
  (-0.106876 -0.0101496 0)
  (-0.119069 -0.00107206 0)
  (-0.128937 0.0132234 0)
  (-0.13663 0.0330643 0)
  (-0.143086 0.0570152 0)
  (-0.150568 0.0789159 0)
  (-0.155219 0.0884341 0)
  (-0.140054 0.0660192 0)
  (-0.100561 -0.0306311 0)
  (-0.284014 -0.221034 0)
  (-0.094713 0.278039 0)
  (0.0884025 0.188535 0)
  (0.106292 0.125794 0)
  (0.132369 0.0925847 0)
  (0.15727 0.0613755 0)
  (0.170718 0.0345867 0)
  (0.169904 0.0168463 0)
  (0.158344 0.002919 0)
  (0.137422 -0.0116576 0)
  (0.11171 -0.0345402 0)
  (0.082168 -0.0689604 0)
  (0.0397266 -0.0647681 0)
  (0.0151705 -0.0116607 0)
  (-0.0228844 0.0322039 0)
  (-0.0360356 0.0379434 0)
  (-0.0408041 0.0380508 0)
  (-0.0449519 0.0305836 0)
  (-0.0428188 0.0018992 0)
  (-0.0452229 -0.00870641 0)
  (-0.047278 0.0242443 0)
  (-0.0507304 0.0386633 0)
  (-0.0551896 0.0347759 0)
  (-0.0586171 0.0265259 0)
  (-0.0623268 0.0230193 0)
  (-0.0671354 0.0215862 0)
  (-0.0729719 0.0199376 0)
  (-0.0794489 0.0182309 0)
  (-0.0860768 0.0171451 0)
  (-0.0920086 0.0170145 0)
  (-0.095672 0.0183954 0)
  (-0.0952298 0.0243643 0)
  (-0.0885733 0.037193 0)
  (-0.0756395 0.0564363 0)
  (-0.0573027 0.0763327 0)
  (-0.0358347 0.0889168 0)
  (0.00185139 0.0787173 0)
  (0.140387 0.00569261 0)
  (-0.205092 -0.13637 0)
  (-0.192261 -0.386709 0)
  (-0.467167 -0.10201 0)
  (-0.327029 0.172045 0)
  (-0.169508 0.0605474 0)
  (-0.0766154 0.0189797 0)
  (0.0190244 0.00474238 0)
  (0.071523 -0.0190819 0)
  (0.105926 -0.0434585 0)
  (0.122149 -0.0675713 0)
  (0.123009 -0.0880403 0)
  (0.11082 -0.10626 0)
  (0.0876303 -0.128921 0)
  (0.0426048 -0.156358 0)
  (-0.0524517 -0.126475 0)
  (-0.0609205 -0.107061 0)
  (-0.0557024 -0.0872931 0)
  (-0.0432125 -0.0868654 0)
  (-0.0290729 -0.0908068 0)
  (-0.0159179 -0.106641 0)
  (-0.0175434 -0.141743 0)
  (-0.0527833 -0.137524 0)
  (-0.0659687 -0.124711 0)
  (-0.0639705 -0.11675 0)
  (-0.0620895 -0.118757 0)
  (-0.0648045 -0.117554 0)
  (-0.0699251 -0.112708 0)
  (-0.074863 -0.106132 0)
  (-0.079236 -0.0985486 0)
  (-0.0830935 -0.0900713 0)
  (-0.085978 -0.080439 0)
  (-0.0867408 -0.0689679 0)
  (-0.0834451 -0.0549856 0)
  (-0.073095 -0.0397166 0)
  (-0.0532607 -0.0222147 0)
  (-0.0253948 -0.00182956 0)
  (0.0283494 0.0255131 0)
  (0.074162 0.0278878 0)
  (0.119756 0.00966429 0)
  (0.173572 -0.0300492 0)
  (-0.175856 -0.0981332 0)
)
;

boundaryField
{
  floor
  {
    type noSlip;
  }
  ceiling
  {
    type noSlip;
  }
  sWall
  {
    type noSlip;
  }
  nWall
  {
    type noSlip;
  }
  sideWalls
  {
    type empty;
  }
  glass1
  {
    type noSlip;
  }
  glass2
  {
    type noSlip;
  }
  sun
  {
    type noSlip;
  }
  heatsource1
  {
    type noSlip;
  }
  heatsource2
  {
    type noSlip;
  }
  Table_master
  {
    type noSlip;
  }
  Table_slave
  {
    type noSlip;
  }
  inlet
  {
    type fixedValue;
    value uniform (0.0382683 -0.092388 0);
  }
  outlet
  {
    type zeroGradient;
  }
} 	// ************************************************************************* //

