/*--------------------------------*- C++ -*----------------------------------*\
  =========                 |
  \\      /  F ield         | OpenFOAM: The Open Source CFD Toolbox
   \\    /   O peration     | Website:  https://openfoam.org
    \\  /    A nd           | Version:  6
     \\/     M anipulation  |
\*---------------------------------------------------------------------------*/
FoamFile
{
    version     2.0;
    format      ascii;
    class       volScalarField;
    location    "1300";
    object      epsilon;
}
// * * * * * * * * * * * * * * * * * * * * * * * * * * * * * * * * * * * * * //

dimensions      [0 2 -3 0 0 0 0];

internalField   nonuniform List<scalar> 
459
(
0.000427328
0.000553579
0.000585726
0.000673613
0.000762539
0.000853318
0.000950428
0.00104968
0.00112325
0.00115225
0.00112048
0.00102218
0.000865587
0.000675176
0.000490214
3.46304e-05
5.85017e-05
8.42545e-05
8.67666e-05
7.93167e-05
6.94816e-05
5.72487e-05
4.63715e-05
3.77764e-05
3.11266e-05
2.59541e-05
2.18862e-05
1.8651e-05
1.60491e-05
1.38903e-05
1.20141e-05
1.02771e-05
9.35088e-06
7.23859e-06
0.00107844
0.00157792
0.000520253
0.000503736
0.000526392
0.000566026
0.000627033
0.000708007
0.000785351
0.000833366
0.000831723
0.00077481
0.000671199
0.000543353
0.000437931
0.00051695
0.000123931
3.91908e-05
9.2057e-05
0.000103208
9.68518e-05
8.45349e-05
7.20923e-05
6.58627e-05
5.30928e-05
4.17606e-05
3.28571e-05
2.60515e-05
2.08705e-05
1.6914e-05
1.39078e-05
1.16962e-05
1.03111e-05
9.70343e-06
2.58117e-05
1.73297e-05
0.00196382
0.0038793
0.000638678
0.000477259
0.00049825
0.000558945
0.000651485
0.000769145
0.0008774
0.000941787
0.000944758
0.000887601
0.000781972
0.000653661
0.000534481
0.000475558
0.000565689
0.000257746
0.000204525
0.000163631
0.000131655
0.00010657
9.11527e-05
0.000165936
0.000114496
8.1571e-05
6.00475e-05
4.55748e-05
3.5561e-05
2.84548e-05
2.33297e-05
1.96396e-05
1.4957e-05
1.25659e-05
4.97936e-05
2.79599e-05
0.0031797
0.00807323
0.00100644
0.000479147
0.000483168
0.00056833
0.000707979
0.000883798
0.00102135
0.00108758
0.00107882
0.00100627
0.000880622
0.000733584
0.000603909
0.000519368
0.000499936
0.000904211
0.000522919
0.000321644
0.000219342
0.000160643
0.000123903
0.000106368
0.000241352
0.000183812
0.000148748
0.000125281
0.000107432
9.24862e-05
7.9502e-05
6.72201e-05
5.46339e-05
3.25791e-05
2.13191e-05
8.45527e-05
3.89119e-05
0.00485449
0.0144453
0.00198982
0.000559088
0.000485259
0.000598485
0.000850458
0.00111399
0.00126026
0.00130278
0.00126129
0.00115393
0.000995179
0.000811211
0.000633743
0.000488741
0.000389904
0.000348261
0.000285976
0.000229689
0.000184425
0.000148811
0.000121034
0.000101486
9.71486e-05
9.0132e-05
8.34686e-05
7.70213e-05
7.02782e-05
6.30358e-05
5.57679e-05
4.88439e-05
4.25124e-05
3.41253e-05
2.65456e-05
5.95907e-05
4.6135e-05
7.47695e-05
0.000130518
0.000184921
0.00718838
0.02152
0.00449579
0.0010431
0.000681351
0.000797119
0.00130461
0.00157016
0.00164732
0.00162008
0.00152337
0.00136517
0.00115292
0.000911512
0.000677505
0.000485542
0.000354114
0.000280497
0.000236002
0.000200452
0.000167942
0.000139415
0.000116067
9.91399e-05
9.01274e-05
8.59676e-05
8.35782e-05
8.10471e-05
7.72591e-05
7.12984e-05
6.27202e-05
5.35445e-05
4.50924e-05
3.76423e-05
3.32492e-05
4.47949e-05
4.79128e-05
5.78174e-05
0.000241358
0.000211496
0.00997018
0.0257776
0.00939197
0.00345367
0.00221859
0.00220232
0.00240856
0.00238278
0.00225164
0.00208302
0.00188419
0.00164018
0.00134693
0.00102946
0.000729914
0.000492181
0.000337186
0.00025375
0.000209305
0.000177447
0.000149243
0.000125298
0.000107126
9.56416e-05
9.10346e-05
9.12869e-05
9.35933e-05
9.6338e-05
9.84925e-05
9.8589e-05
9.37221e-05
8.36712e-05
7.33344e-05
6.46932e-05
6.19906e-05
6.9638e-05
8.67427e-05
0.000130803
0.000318938
0.000307196
0.0106547
0.0287286
0.0156197
0.00995771
0.00707971
0.00547667
0.00434209
0.00357933
0.00306117
0.00267588
0.00233009
0.00196095
0.00154973
0.00112953
0.000748551
0.000464291
0.00029573
0.000212956
0.000172655
0.000145442
0.000123509
0.000107155
9.68918e-05
9.26359e-05
9.3755e-05
9.89451e-05
0.000107001
0.000117592
0.000130915
0.000147069
0.000165397
0.000180529
0.000191296
0.000212926
0.000256696
0.000375769
0.000648685
0.00118901
0.0040433
0.00108239
0.00990561
0.016866
0.0135341
0.0102248
0.00780496
0.00615618
0.00504263
0.00428236
0.00373432
0.0032693
0.00278834
0.00224536
0.00165256
0.00109639
0.00062048
0.000332397
0.000211886
0.000158231
0.000129842
0.000110837
9.72502e-05
8.88208e-05
8.53467e-05
8.64014e-05
9.14543e-05
0.000100064
0.000112245
0.000128721
0.000150902
0.000180878
0.000221475
0.000276368
0.000352397
0.000462835
0.00062647
0.00085206
0.00112067
0.00137605
0.00157528
0.00086974
0.00493596
0.00663852
0.0066943
0.00620418
0.00553128
0.00488852
0.00424614
0.00353937
0.00275714
0.0019209
0.00105386
0.000560261
0.000300235
0.000179772
0.000126788
0.000100469
8.52416e-05
7.55871e-05
6.9818e-05
6.72669e-05
6.75662e-05
7.04279e-05
7.5677e-05
8.33961e-05
9.40085e-05
0.00010834
0.000127701
0.000154055
0.000190418
0.00024173
0.000313438
0.000413251
0.000548422
0.000716162
0.000893476
0.00103884
0.00098024
0.000443189
0.00340815
0.00672832
0.00665561
0.00536002
0.0045302
0.00385218
0.00299796
0.0020945
0.00133109
0.000779272
0.000430269
0.000242932
0.000148711
0.000104267
8.301e-05
7.18841e-05
6.56744e-05
6.24024e-05
6.12967e-05
6.19712e-05
6.41995e-05
6.78826e-05
7.31393e-05
8.02815e-05
8.9771e-05
0.000102319
0.000119046
0.000141682
0.000172736
0.000215458
0.000274331
0.00035423
0.000457054
0.000575531
0.000690444
0.000839329
0.000463333
0.000473843
0.00216863
0.00253215
0.00282568
0.00312976
0.00233685
0.00181523
0.00159771
0.00139211
0.00112515
0.000845243
0.000588154
0.000391004
0.000258599
0.00017802
0.000131578
0.000104169
8.69165e-05
7.56168e-05
6.84183e-05
6.4408e-05
6.29683e-05
6.36334e-05
6.61154e-05
7.03241e-05
7.63985e-05
8.44212e-05
9.46493e-05
0.000107617
0.00012414
0.000145539
0.00017261
0.000206658
0.000249592
0.000303743
0.000371127
0.000453516
0.000471784
0.000336656
0.000287876
0.000477259
)
;

boundaryField
{
    floor
    {
        Cmu             0.09;
        kappa           0.41;
        E               9.8;
        type            epsilonWallFunction;
        value           nonuniform List<scalar> 
29
(
0.000490214
3.46304e-05
5.85017e-05
8.42545e-05
8.67666e-05
7.93167e-05
6.94816e-05
5.72487e-05
4.63715e-05
3.77764e-05
3.11266e-05
2.59541e-05
2.18862e-05
1.8651e-05
1.60491e-05
1.38903e-05
1.20141e-05
1.02771e-05
9.35088e-06
7.23859e-06
7.23859e-06
1.73297e-05
2.79599e-05
3.89119e-05
0.000490214
3.46304e-05
3.91908e-05
0.000257746
0.000904211
)
;
    }
    ceiling
    {
        Cmu             0.09;
        kappa           0.41;
        E               9.8;
        type            epsilonWallFunction;
        value           nonuniform List<scalar> 
43
(
0.00216863
0.00253215
0.00282568
0.00312976
0.00233685
0.00181523
0.00159771
0.00139211
0.00112515
0.000845243
0.000588154
0.000391004
0.000258599
0.00017802
0.000131578
0.000104169
8.69165e-05
7.56168e-05
6.84183e-05
6.4408e-05
6.29683e-05
6.36334e-05
6.61154e-05
7.03241e-05
7.63985e-05
8.44212e-05
9.46493e-05
0.000107617
0.00012414
0.000145539
0.00017261
0.000206658
0.000249592
0.000303743
0.000371127
0.000453516
0.000471784
0.000336656
0.000287876
0.000477259
0.00990561
0.016866
0.00340815
)
;
    }
    sWall
    {
        Cmu             0.09;
        kappa           0.41;
        E               9.8;
        type            epsilonWallFunction;
        value           uniform 0.00216863;
    }
    nWall
    {
        Cmu             0.09;
        kappa           0.41;
        E               9.8;
        type            epsilonWallFunction;
        value           nonuniform List<scalar> 6(0.000184921 0.000211496 0.000307196 0.000443189 0.000473843 0.000477259);
    }
    sideWalls
    {
        type            empty;
    }
    glass1
    {
        Cmu             0.09;
        kappa           0.41;
        E               9.8;
        type            epsilonWallFunction;
        value           nonuniform List<scalar> 9(0.000427328 0.00107844 0.00196382 0.0031797 0.00485449 0.00718838 0.00997018 0.0106547 0.00990561);
    }
    glass2
    {
        Cmu             0.09;
        kappa           0.41;
        E               9.8;
        type            epsilonWallFunction;
        value           nonuniform List<scalar> 2(0.00108239 0.00086974);
    }
    sun
    {
        Cmu             0.09;
        kappa           0.41;
        E               9.8;
        type            epsilonWallFunction;
        value           nonuniform List<scalar> 
14
(
0.000427328
0.000553579
0.000585726
0.000673613
0.000762539
0.000853318
0.000950428
0.00104968
0.00112325
0.00115225
0.00112048
0.00102218
0.000865587
0.000675176
)
;
    }
    heatsource1
    {
        Cmu             0.09;
        kappa           0.41;
        E               9.8;
        type            epsilonWallFunction;
        value           nonuniform List<scalar> 3(7.47695e-05 0.000130518 0.000184921);
    }
    heatsource2
    {
        Cmu             0.09;
        kappa           0.41;
        E               9.8;
        type            epsilonWallFunction;
        value           nonuniform List<scalar> 4(0.00051695 0.000123931 0.000123931 0.000565689);
    }
    Table_master
    {
        Cmu             0.09;
        kappa           0.41;
        E               9.8;
        type            epsilonWallFunction;
        value           nonuniform List<scalar> 9(0.000165936 0.000114496 8.1571e-05 6.00475e-05 4.55748e-05 3.5561e-05 2.84548e-05 2.33297e-05 1.96396e-05);
    }
    Table_slave
    {
        Cmu             0.09;
        kappa           0.41;
        E               9.8;
        type            epsilonWallFunction;
        value           nonuniform List<scalar> 9(0.000241352 0.000183812 0.000148748 0.000125281 0.000107432 9.24862e-05 7.9502e-05 6.72201e-05 5.46339e-05);
    }
    inlet
    {
        type            turbulentMixingLengthDissipationRateInlet;
        mixingLength    0.01;
        phi             phi;
        k               k;
        value           uniform 0.000101881;
    }
    outlet
    {
        type            zeroGradient;
    }
}


// ************************************************************************* //
