/*--------------------------------*- C++ -*----------------------------------*\
  =========                 |
  \\      /  F ield         | OpenFOAM: The Open Source CFD Toolbox
   \\    /   O peration     | Website:  https://openfoam.org
    \\  /    A nd           | Version:  6
     \\/     M anipulation  |
\*---------------------------------------------------------------------------*/
FoamFile
{
    version     2.0;
    format      ascii;
    class       volScalarField;
    location    "400";
    object      alphat;
}
// * * * * * * * * * * * * * * * * * * * * * * * * * * * * * * * * * * * * * //

dimensions      [1 -1 -1 0 0 0 0];

internalField   nonuniform List<scalar> 
459
(
0.00140983
0.0015569
0.0016065
0.00169322
0.00177863
0.00186792
0.00194551
0.00199518
0.00200638
0.00197277
0.00188516
0.00169444
0.00151366
0.00130843
0.00111703
0.000622994
0.000730939
0.000858404
0.000933855
0.000945584
0.000924156
0.000866826
0.000804946
0.000749133
0.00070051
0.000658255
0.000621422
0.000589
0.000560281
0.000534177
0.000509266
0.000483513
0.000457468
0.000413523
0.0018526
0.00474013
0.00464884
0.00540464
0.00615081
0.00674428
0.00723852
0.00766365
0.00798132
0.00815737
0.00813751
0.00782438
0.00719891
0.00595813
0.00397311
0.00136727
0.00109661
0.000611385
0.00152523
0.00244661
0.0032218
0.00369976
0.00365497
0.0025491
0.00210244
0.00181439
0.00160708
0.00145037
0.00132778
0.00123036
0.00114095
0.00104597
0.000954034
0.000872032
0.000914677
0.000476088
0.0022137
0.00642756
0.00574668
0.0066737
0.00712893
0.00747377
0.00780618
0.00817451
0.00857643
0.00897123
0.0092405
0.00925572
0.00899522
0.00834844
0.00688269
0.00446042
0.00133922
0.000806743
0.00161689
0.00265874
0.00378962
0.00460918
0.00443357
0.00118432
0.00102835
0.000902394
0.000801699
0.000720853
0.00065538
0.000601912
0.000559026
0.000527167
0.000592866
0.000706854
0.00103888
0.000518382
0.00255392
0.00797916
0.00589045
0.00688192
0.00704128
0.00717498
0.0073688
0.00767979
0.00813214
0.00866479
0.00907532
0.00927892
0.00926211
0.00899161
0.0082358
0.00667598
0.00359616
0.00150617
0.00177322
0.00259495
0.00385252
0.00514837
0.00603395
0.00564768
0.00134561
0.00121684
0.00111841
0.00103859
0.000969786
0.000905828
0.000842658
0.000776996
0.000703627
0.000645211
0.000686727
0.00116847
0.000553008
0.00289742
0.00993413
0.00646029
0.00701224
0.00710273
0.00706109
0.00710848
0.00736457
0.00784232
0.00839844
0.00885322
0.00908968
0.00910683
0.00896102
0.00861451
0.00787958
0.00649045
0.00565495
0.00603786
0.00674949
0.00754962
0.00818334
0.00848294
0.00821092
0.00666882
0.00583615
0.00528655
0.00480436
0.00428727
0.0037282
0.00312774
0.00249843
0.00186935
0.00131752
0.00100354
0.00115654
0.000697136
0.000651498
0.00078967
0.000888398
0.00326097
0.0121068
0.00854032
0.00768448
0.00762699
0.00729225
0.00713627
0.00731107
0.00779598
0.00839367
0.00886827
0.00907785
0.00904813
0.00892958
0.00885683
0.00882548
0.00869779
0.00889011
0.0095349
0.0100795
0.0104107
0.0104819
0.0102914
0.00982218
0.00901123
0.00822706
0.00751038
0.00679897
0.00607053
0.00531176
0.00451407
0.00368192
0.00284563
0.00207959
0.00155131
0.00131296
0.000972537
0.000840442
0.00120441
0.000928075
0.00358131
0.0135663
0.0114562
0.00950296
0.00845608
0.00757398
0.0072194
0.00740536
0.00797727
0.00865483
0.00915086
0.00932607
0.0092773
0.00930414
0.00967952
0.0102344
0.0107456
0.0113037
0.0118273
0.0120213
0.0119188
0.0115716
0.0110358
0.0103535
0.00954949
0.00873752
0.00795378
0.00719203
0.00643192
0.00568597
0.00494592
0.00420203
0.00345889
0.00274104
0.00218726
0.00179599
0.00147131
0.0013861
0.00141088
0.00107212
0.00363803
0.0116471
0.0105519
0.00918513
0.0078576
0.00710631
0.00705086
0.00757373
0.00841294
0.00921314
0.00968561
0.00979035
0.00981136
0.0103202
0.0111416
0.0117189
0.0121537
0.0125006
0.0126595
0.0124991
0.0120448
0.0113767
0.0105658
0.00966658
0.00872881
0.00782504
0.00698239
0.00619198
0.00548172
0.00488942
0.00441807
0.0040019
0.00359439
0.00315748
0.00285625
0.00274794
0.00287907
0.00332756
0.00411132
0.00165072
0.00354018
0.00418088
0.00458749
0.00470013
0.00499347
0.00574288
0.00689088
0.00822101
0.00941671
0.0101393
0.0102841
0.0102792
0.0107356
0.0113435
0.0118212
0.012093
0.0122321
0.0122238
0.0119886
0.0114833
0.0107438
0.00983797
0.00882923
0.00778219
0.00676237
0.00580751
0.00493861
0.00418851
0.00358366
0.00313831
0.00283781
0.0026511
0.00253856
0.00248047
0.00246931
0.00248471
0.00246918
0.00237281
0.0022203
0.00155421
0.00173393
0.00354782
0.00674762
0.0090114
0.0104299
0.011162
0.0113166
0.0109727
0.0104452
0.0103088
0.0105779
0.0108184
0.0108953
0.0108537
0.0106926
0.010351
0.00978282
0.00900341
0.00808571
0.00712216
0.00619223
0.00534808
0.0046113
0.0039829
0.00346421
0.00305986
0.00276729
0.00257493
0.00246592
0.00242277
0.00242868
0.00246774
0.00251977
0.00255315
0.00252818
0.00244169
0.0022513
0.00133138
0.00232954
0.00702467
0.00970964
0.0107235
0.0106772
0.0100968
0.00934591
0.00871292
0.00831448
0.0081094
0.00797464
0.00783937
0.00770529
0.00754812
0.00731489
0.00695967
0.00647825
0.00591606
0.00534339
0.00481926
0.00437209
0.00400306
0.00369911
0.00344442
0.00322615
0.00303584
0.00287017
0.00273195
0.00262905
0.00257049
0.00256034
0.00259065
0.00263805
0.00267991
0.00263765
0.0026907
0.00279679
0.00136876
0.00207848
0.00219304
0.00227424
0.00242068
0.00225546
0.00213593
0.00201405
0.00186781
0.00171437
0.00157725
0.00147057
0.00139743
0.00134967
0.00131699
0.00129098
0.00126527
0.00123552
0.0012001
0.00116036
0.00111956
0.00108105
0.00104685
0.00101747
0.000992492
0.000971389
0.000954116
0.000941408
0.000934682
0.000935703
0.000946149
0.000967295
0.000999974
0.0010447
0.0011013
0.00116703
0.00124867
0.00126337
0.00121697
0.00115461
0.00109259
)
;

boundaryField
{
    floor
    {
        type            compressible::alphatWallFunction;
        Prt             0.85;
        value           nonuniform List<scalar> 
29
(
0.000158667
8.78199e-05
0.000103745
0.000122191
0.000132957
0.000134623
0.000131582
0.000123404
0.000114504
0.000106406
9.92923e-05
9.3062e-05
8.75913e-05
8.27429e-05
7.84209e-05
7.44687e-05
7.06745e-05
6.67277e-05
6.27089e-05
5.58613e-05
5.58606e-05
6.55838e-05
7.2064e-05
7.73205e-05
0.000158666
8.78189e-05
8.60866e-05
0.000114742
0.000211807
)
;
    }
    ceiling
    {
        type            compressible::alphatWallFunction;
        Prt             0.85;
        value           nonuniform List<scalar> 
43
(
0.000287245
0.000302059
0.000312512
0.000331414
0.000310302
0.000294903
0.000279097
0.000259989
0.00023976
0.000221514
0.000207199
0.00019732
0.000190837
0.000186387
0.000182837
0.000179317
0.000175235
0.00017036
0.000164868
0.000159209
0.000153844
0.000149061
0.000144937
0.000141419
0.000138439
0.000135994
0.000134191
0.000133234
0.000133376
0.000134855
0.000137846
0.000142455
0.000148736
0.000156639
0.000165762
0.00017701
0.000179028
0.000172653
0.000164043
0.000155433
0.000471485
0.000549387
0.000319388
)
;
    }
    sWall
    {
        type            compressible::alphatWallFunction;
        Prt             0.85;
        value           uniform 0.000286045;
    }
    nWall
    {
        type            compressible::alphatWallFunction;
        Prt             0.85;
        value           nonuniform List<scalar> 6(0.000126306 0.00013195 0.000152225 0.000188015 0.000193101 0.000155122);
    }
    sideWalls
    {
        type            empty;
    }
    glass1
    {
        type            compressible::alphatWallFunction;
        Prt             0.85;
        value           nonuniform List<scalar> 9(0.000194049 0.000252299 0.000298789 0.000341929 0.000384929 0.000429904 0.00046915 0.000476198 0.000464512);
    }
    glass2
    {
        type            compressible::alphatWallFunction;
        Prt             0.85;
        value           nonuniform List<scalar> 2(0.000229703 0.000216958);
    }
    sun
    {
        type            compressible::alphatWallFunction;
        Prt             0.85;
        value           nonuniform List<scalar> 
14
(
0.000198832
0.00021862
0.00022525
0.00023679
0.000248092
0.000259843
0.000270005
0.000276485
0.000277942
0.000273559
0.000262091
0.000236946
0.000212816
0.000185031
)
;
    }
    heatsource1
    {
        type            compressible::alphatWallFunction;
        Prt             0.85;
        value           nonuniform List<scalar> 3(9.21557e-05 0.000112393 0.00012659);
    }
    heatsource2
    {
        type            compressible::alphatWallFunction;
        Prt             0.85;
        value           nonuniform List<scalar> 4(0.000193182 0.00015596 0.000155958 0.000189361);
    }
    Table_master
    {
        type            compressible::alphatWallFunction;
        Prt             0.85;
        value           nonuniform List<scalar> 9(0.000168127 0.000146411 0.000128596 0.000114141 0.00010238 9.27376e-05 8.47763e-05 7.83275e-05 7.34973e-05);
    }
    Table_slave
    {
        type            compressible::alphatWallFunction;
        Prt             0.85;
        value           nonuniform List<scalar> 9(0.000190245 0.000172616 0.000158997 0.000147852 0.000138164 0.000129087 0.000120047 0.000110564 9.9854e-05);
    }
    inlet
    {
        type            fixedValue;
        value           uniform 1.94e-05;
    }
    outlet
    {
        type            zeroGradient;
    }
}


// ************************************************************************* //
