/*--------------------------------*- C++ -*----------------------------------*\
  =========                 |
  \\      /  F ield         | OpenFOAM: The Open Source CFD Toolbox
   \\    /   O peration     | Website:  https://openfoam.org
    \\  /    A nd           | Version:  6
     \\/     M anipulation  |
\*---------------------------------------------------------------------------*/
FoamFile
{
    version     2.0;
    format      ascii;
    class       volVectorField;
    location    "1300";
    object      U;
}
// * * * * * * * * * * * * * * * * * * * * * * * * * * * * * * * * * * * * * //

dimensions      [0 1 -1 0 0 0 0];

internalField   nonuniform List<vector> 
459
(
(0.0341099 0.0859107 0)
(-0.167136 0.0255078 0)
(-0.191942 0.0178498 0)
(-0.222962 0.0121314 0)
(-0.24539 0.00582752 0)
(-0.258125 -0.000879925 0)
(-0.259467 -0.00806016 0)
(-0.248155 -0.0157376 0)
(-0.22479 -0.0232033 0)
(-0.191297 -0.0291192 0)
(-0.151437 -0.0323809 0)
(-0.109633 -0.0324512 0)
(-0.070147 -0.029481 0)
(-0.0381407 -0.0246017 0)
(-0.0275201 -0.019664 0)
(-0.00651688 0.00894705 0)
(-0.0292628 -0.0166579 0)
(-0.00762055 -0.0265994 0)
(0.0161528 -0.0206458 0)
(0.0318099 -0.0142547 0)
(0.0447544 -0.00929891 0)
(0.0529678 -0.00540758 0)
(0.0572526 -0.00335666 0)
(0.0591739 -0.0025384 0)
(0.0601108 -0.00218877 0)
(0.060686 -0.00197142 0)
(0.0610043 -0.00179461 0)
(0.0610066 -0.00157974 0)
(0.0605049 -0.00115991 0)
(0.0589706 -0.000167296 0)
(0.0552674 0.0019075 0)
(0.048155 0.00411113 0)
(0.0416294 0.00588783 0)
(-0.0130037 0.0203931 0)
(0.208636 0.176028 0)
(-0.156305 0.067501 0)
(-0.154831 0.0530821 0)
(-0.187008 0.0412141 0)
(-0.209299 0.0277449 0)
(-0.222347 0.0125479 0)
(-0.224405 -0.00469722 0)
(-0.214054 -0.0233815 0)
(-0.192503 -0.0408778 0)
(-0.162094 -0.0540733 0)
(-0.126715 -0.0608465 0)
(-0.0904548 -0.0605801 0)
(-0.0568759 -0.0538816 0)
(-0.0293803 -0.0423855 0)
(-0.0119371 -0.0286376 0)
(0.00190525 -0.0106564 0)
(0.000528023 0.0156654 0)
(0.0607909 0.0364991 0)
(0.0244918 -0.0181021 0)
(0.0332073 -0.0315222 0)
(0.0444398 -0.0282097 0)
(0.0535196 -0.0204723 0)
(0.0602713 -0.0129629 0)
(0.0632527 -0.0055309 0)
(0.0638398 -0.00124447 0)
(0.0637884 0.000534824 0)
(0.0638964 0.00131278 0)
(0.0641054 0.00178706 0)
(0.0642586 0.00217726 0)
(0.0643109 0.00264933 0)
(0.0642195 0.0035211 0)
(0.0634779 0.00566244 0)
(0.0597622 0.0116187 0)
(0.050342 0.0165886 0)
(0.0457683 0.0198999 0)
(-0.0492336 0.0442672 0)
(0.36883 0.263448 0)
(-0.173178 0.10754 0)
(-0.116279 0.085925 0)
(-0.147679 0.0647568 0)
(-0.167584 0.0425642 0)
(-0.1798 0.0178683 0)
(-0.181561 -0.0101798 0)
(-0.170562 -0.0400988 0)
(-0.149293 -0.0671985 0)
(-0.121008 -0.0864196 0)
(-0.0897922 -0.0950826 0)
(-0.059142 -0.0931367 0)
(-0.0313328 -0.0820118 0)
(-0.00841998 -0.0639827 0)
(0.00860229 -0.040441 0)
(0.0197417 -0.0140289 0)
(0.0239143 0.0231926 0)
(0.110159 -0.0265336 0)
(0.0744144 -0.0376033 0)
(0.0689961 -0.0384462 0)
(0.0705373 -0.0331866 0)
(0.0719613 -0.0253592 0)
(0.073399 -0.0184857 0)
(0.0722882 -0.0147272 0)
(0.0675642 -0.0103595 0)
(0.0641058 -0.00797152 0)
(0.0625587 -0.00660295 0)
(0.0619164 -0.00572167 0)
(0.0615998 -0.00510997 0)
(0.061593 -0.00457193 0)
(0.062338 -0.00373725 0)
(0.0649551 -0.00064769 0)
(0.0629513 0.0162464 0)
(0.049881 0.0279685 0)
(0.0520421 0.0358589 0)
(-0.081194 0.0691116 0)
(0.513475 0.333778 0)
(-0.207957 0.143039 0)
(-0.0753188 0.113918 0)
(-0.105411 0.08486 0)
(-0.119897 0.0564038 0)
(-0.128947 0.0239861 0)
(-0.127749 -0.0147245 0)
(-0.113703 -0.0564687 0)
(-0.0920866 -0.0924046 0)
(-0.0669029 -0.115986 0)
(-0.0416646 -0.125018 0)
(-0.0187146 -0.12083 0)
(0.00172405 -0.10554 0)
(0.0185373 -0.0827101 0)
(0.0328154 -0.0558372 0)
(0.0480855 -0.0267733 0)
(0.0696287 0.00511006 0)
(0.100357 0.0164751 0)
(0.105429 -0.0226054 0)
(0.0917638 -0.0334458 0)
(0.0827709 -0.0328761 0)
(0.0776486 -0.0288743 0)
(0.0737787 -0.0229092 0)
(0.0711166 -0.0152868 0)
(0.0722762 -0.00925617 0)
(0.0773131 -0.00690969 0)
(0.081629 -0.00561656 0)
(0.0845148 -0.00471036 0)
(0.0863203 -0.0037046 0)
(0.0866224 -0.00229563 0)
(0.084254 -0.000213244 0)
(0.0779365 0.0028511 0)
(0.0651361 0.00742846 0)
(0.0528333 0.0268434 0)
(0.0406808 0.0431795 0)
(0.0560898 0.0560734 0)
(-0.114485 0.0913901 0)
(0.638732 0.388254 0)
(-0.250547 0.172018 0)
(-0.0345311 0.130096 0)
(-0.0611498 0.0963914 0)
(-0.0676151 0.0644677 0)
(-0.0706697 0.0269256 0)
(-0.0606652 -0.0215302 0)
(-0.0414359 -0.0741515 0)
(-0.020873 -0.115306 0)
(-0.0016211 -0.139446 0)
(0.0145838 -0.145852 0)
(0.0269742 -0.138012 0)
(0.0366886 -0.120082 0)
(0.0445311 -0.0956276 0)
(0.0517993 -0.0681738 0)
(0.0604665 -0.0415114 0)
(0.0732648 -0.0219307 0)
(0.0839349 -0.0211073 0)
(0.0850243 -0.0288904 0)
(0.0786153 -0.0297806 0)
(0.0703664 -0.026951 0)
(0.0635427 -0.0231492 0)
(0.0583521 -0.0186228 0)
(0.055157 -0.013254 0)
(0.0548872 -0.00741542 0)
(0.0572485 -0.00459535 0)
(0.0600213 -0.00360992 0)
(0.0626858 -0.00286532 0)
(0.0651456 -0.00131051 0)
(0.067057 0.00169118 0)
(0.0671587 0.00625457 0)
(0.0648169 0.0125303 0)
(0.0594279 0.0211391 0)
(0.0525293 0.0364234 0)
(0.0424156 0.0544713 0)
(0.0644153 0.0745687 0)
(-0.0214357 0.103605 0)
(0.0462056 0.0321489 0)
(-0.0621301 -0.0345888 0)
(-0.272232 -0.0572054 0)
(0.729865 0.433672 0)
(-0.292141 0.191519 0)
(-0.0032938 0.126664 0)
(-0.0159726 0.0976491 0)
(-0.01187 0.0669091 0)
(-0.00621617 0.0238684 0)
(0.0225613 -0.0387594 0)
(0.044368 -0.0944932 0)
(0.0598577 -0.132632 0)
(0.0692122 -0.151934 0)
(0.0731049 -0.154363 0)
(0.0729473 -0.143511 0)
(0.0702463 -0.123416 0)
(0.0665124 -0.0980735 0)
(0.0632314 -0.0711558 0)
(0.0618104 -0.0463357 0)
(0.0630991 -0.0278853 0)
(0.0639415 -0.0206212 0)
(0.0606603 -0.0203053 0)
(0.0536475 -0.0204676 0)
(0.0457035 -0.0191021 0)
(0.0390306 -0.016903 0)
(0.0341711 -0.0142219 0)
(0.0314285 -0.0111129 0)
(0.0310887 -0.00818538 0)
(0.0328041 -0.00707419 0)
(0.0355058 -0.00698584 0)
(0.0387232 -0.00666094 0)
(0.0422602 -0.00507133 0)
(0.0458148 -0.00130683 0)
(0.0490922 0.00501166 0)
(0.0507871 0.0134969 0)
(0.0511664 0.0242578 0)
(0.0516237 0.0387833 0)
(0.0504205 0.056561 0)
(0.0728315 0.0792975 0)
(0.0524627 0.0971708 0)
(0.0931563 0.0678778 0)
(0.116071 0.0445785 0)
(-0.129107 -0.00724089 0)
(0.78191 0.474951 0)
(-0.31308 0.176962 0)
(0.0235557 0.0771468 0)
(0.0427103 0.0738254 0)
(0.0578995 0.0522298 0)
(0.0847278 0.000956845 0)
(0.118837 -0.0631503 0)
(0.138066 -0.111909 0)
(0.144407 -0.141334 0)
(0.140551 -0.152871 0)
(0.129251 -0.149492 0)
(0.113429 -0.134952 0)
(0.0956639 -0.113129 0)
(0.0782006 -0.0879285 0)
(0.0627217 -0.0625584 0)
(0.0504693 -0.0401409 0)
(0.0418804 -0.0237849 0)
(0.0354093 -0.0155873 0)
(0.0288806 -0.013312 0)
(0.0217961 -0.013012 0)
(0.0150877 -0.0125291 0)
(0.00968426 -0.0117481 0)
(0.00590635 -0.0108124 0)
(0.00393686 -0.00978988 0)
(0.0038681 -0.00909341 0)
(0.00533861 -0.00936052 0)
(0.00769119 -0.0100826 0)
(0.0106365 -0.0103828 0)
(0.0141965 -0.00936751 0)
(0.0184775 -0.00599956 0)
(0.0243495 0.000782972 0)
(0.0304062 0.0101706 0)
(0.0360011 0.0211319 0)
(0.0430295 0.0341094 0)
(0.0507207 0.0487945 0)
(0.0727625 0.0671646 0)
(0.0859744 0.0747663 0)
(0.118302 0.0520477 0)
(0.158002 0.0439805 0)
(-0.0351875 0.0939883 0)
(0.886582 0.477608 0)
(-0.0705637 0.156589 0)
(0.106124 0.00379836 0)
(0.169344 -0.0167037 0)
(0.182452 -0.035675 0)
(0.218147 -0.0696988 0)
(0.239912 -0.102373 0)
(0.242352 -0.125674 0)
(0.22828 -0.137108 0)
(0.202646 -0.136907 0)
(0.170324 -0.12684 0)
(0.135541 -0.109537 0)
(0.101344 -0.0876972 0)
(0.0702298 -0.0645786 0)
(0.043655 -0.042595 0)
(0.022991 -0.0243575 0)
(0.00868635 -0.0123738 0)
(-0.000626073 -0.00707379 0)
(-0.00720786 -0.0062025 0)
(-0.0127311 -0.00678497 0)
(-0.0174578 -0.00744903 0)
(-0.0212125 -0.00801314 0)
(-0.0239129 -0.00853254 0)
(-0.0255078 -0.00909736 0)
(-0.0260411 -0.00991066 0)
(-0.0258219 -0.0111195 0)
(-0.0252415 -0.0124472 0)
(-0.0244383 -0.0134355 0)
(-0.0232706 -0.0135717 0)
(-0.0213599 -0.0122494 0)
(-0.01776 -0.00869895 0)
(-0.00897591 -0.00214514 0)
(-2.05485e-05 0.00653529 0)
(0.0105442 0.0150704 0)
(0.0222058 0.0222116 0)
(0.0419839 0.0294774 0)
(0.0605636 0.0224028 0)
(0.0801063 -0.00518772 0)
(0.139025 0.0402054 0)
(-0.413419 0.206749 0)
(1.03169 0.429986 0)
(0.496796 0.285093 0)
(0.503098 0.191377 0)
(0.511695 0.119859 0)
(0.487159 0.068341 0)
(0.444274 0.0149288 0)
(0.394225 -0.0332908 0)
(0.340666 -0.0673662 0)
(0.283306 -0.0848519 0)
(0.224573 -0.0878101 0)
(0.167782 -0.0802838 0)
(0.11569 -0.0662729 0)
(0.069328 -0.0485461 0)
(0.030602 -0.030515 0)
(-0.00093408 -0.014384 0)
(-0.0216476 -0.00446922 0)
(-0.0326775 -0.000785634 0)
(-0.038767 -0.000335964 0)
(-0.0427214 -0.00135781 0)
(-0.0461685 -0.00275362 0)
(-0.049325 -0.00412438 0)
(-0.0521985 -0.00541662 0)
(-0.0547729 -0.00666169 0)
(-0.0570763 -0.00790858 0)
(-0.059234 -0.00921743 0)
(-0.0615214 -0.0105637 0)
(-0.0642731 -0.0117227 0)
(-0.0677888 -0.0123115 0)
(-0.0723898 -0.011791 0)
(-0.0785256 -0.00944689 0)
(-0.0867698 -0.00444036 0)
(-0.0971697 0.00385337 0)
(-0.10752 0.0148546 0)
(-0.122582 0.028679 0)
(-0.146523 0.0453681 0)
(-0.181878 0.0637581 0)
(-0.231938 0.0798166 0)
(-0.288983 0.0909731 0)
(-0.35771 0.0972479 0)
(-0.62 0.0993419 0)
(-0.147996 0.0827342 0)
(0.134682 0.061517 0)
(0.217881 0.00568044 0)
(0.201386 -0.0290682 0)
(0.185617 -0.04328 0)
(0.163024 -0.0478107 0)
(0.130464 -0.046057 0)
(0.0918568 -0.0395563 0)
(0.0519752 -0.0297274 0)
(0.0139773 -0.0174074 0)
(-0.0232183 -0.00369461 0)
(-0.0468289 0.00390685 0)
(-0.061191 0.00728 0)
(-0.0681379 0.00766126 0)
(-0.071542 0.00684906 0)
(-0.0737744 0.00582534 0)
(-0.0756982 0.0048175 0)
(-0.0776244 0.0038868 0)
(-0.0798571 0.00296679 0)
(-0.0824539 0.00192426 0)
(-0.0853446 0.000802707 0)
(-0.0885578 -0.000335215 0)
(-0.0921615 -0.00139966 0)
(-0.0962408 -0.00222575 0)
(-0.10086 -0.0025578 0)
(-0.106008 -0.00207734 0)
(-0.111582 -0.000427661 0)
(-0.117356 0.00275498 0)
(-0.122742 0.00790294 0)
(-0.126886 0.0157805 0)
(-0.130271 0.0275344 0)
(-0.133159 0.043504 0)
(-0.136392 0.0627488 0)
(-0.140503 0.0815925 0)
(-0.142311 0.0901443 0)
(-0.124971 0.0675659 0)
(-0.0813161 -0.0257564 0)
(-0.279208 -0.203494 0)
(-0.0231781 0.230853 0)
(0.0635818 0.0992976 0)
(0.0374615 0.0187695 0)
(0.0252841 -0.00458101 0)
(0.0157984 -0.00984788 0)
(-0.00297621 -0.011101 0)
(-0.0279834 -0.00857207 0)
(-0.0536437 -0.00397033 0)
(-0.0753121 0.00055347 0)
(-0.090174 0.00356862 0)
(-0.0972516 0.00382018 0)
(-0.0997342 0.00158906 0)
(-0.100033 -0.00139422 0)
(-0.0993871 -0.0047934 0)
(-0.0988887 -0.00828454 0)
(-0.0989432 -0.0116321 0)
(-0.0995911 -0.0147039 0)
(-0.100735 -0.0172772 0)
(-0.102225 -0.0191714 0)
(-0.103967 -0.0203419 0)
(-0.105995 -0.0208835 0)
(-0.10827 -0.0208067 0)
(-0.110789 -0.0203576 0)
(-0.113532 -0.0196043 0)
(-0.116394 -0.0184407 0)
(-0.119151 -0.016633 0)
(-0.121439 -0.0137981 0)
(-0.122746 -0.00935442 0)
(-0.122514 -0.00303205 0)
(-0.119775 0.00565043 0)
(-0.113069 0.0175595 0)
(-0.101106 0.0334299 0)
(-0.0836113 0.0527923 0)
(-0.061492 0.0715291 0)
(-0.0376153 0.0824862 0)
(0.00246986 0.0667711 0)
(0.143576 -0.004518 0)
(-0.207696 -0.114217 0)
(-0.103421 -0.348675 0)
(-0.439219 -0.120311 0)
(-0.31072 0.095619 0)
(-0.226629 -0.0201613 0)
(-0.180274 -0.0411428 0)
(-0.165915 -0.0289243 0)
(-0.163506 -0.0159732 0)
(-0.164769 -0.00568392 0)
(-0.16523 0.00288828 0)
(-0.16292 0.0103969 0)
(-0.158157 0.0172822 0)
(-0.151071 0.0235338 0)
(-0.142599 0.0288931 0)
(-0.13417 0.0333912 0)
(-0.126632 0.0376071 0)
(-0.120316 0.0417717 0)
(-0.115229 0.0459764 0)
(-0.111202 0.0500303 0)
(-0.108093 0.0535557 0)
(-0.10581 0.0561759 0)
(-0.104277 0.0576434 0)
(-0.103423 0.0579017 0)
(-0.103198 0.0570576 0)
(-0.10355 0.0552242 0)
(-0.104404 0.0528588 0)
(-0.105662 0.0502222 0)
(-0.107164 0.0474479 0)
(-0.108643 0.0446395 0)
(-0.109674 0.0418711 0)
(-0.109574 0.0392083 0)
(-0.107085 0.0374486 0)
(-0.100287 0.0373569 0)
(-0.0866947 0.0397107 0)
(-0.0644422 0.0454104 0)
(-0.034131 0.0549517 0)
(0.0142815 0.0679657 0)
(0.0590357 0.069225 0)
(0.101668 0.0545057 0)
(0.164076 0.0254183 0)
(-0.219876 -0.0294295 0)
)
;

boundaryField
{
    floor
    {
        type            noSlip;
    }
    ceiling
    {
        type            noSlip;
    }
    sWall
    {
        type            noSlip;
    }
    nWall
    {
        type            noSlip;
    }
    sideWalls
    {
        type            empty;
    }
    glass1
    {
        type            noSlip;
    }
    glass2
    {
        type            noSlip;
    }
    sun
    {
        type            noSlip;
    }
    heatsource1
    {
        type            noSlip;
    }
    heatsource2
    {
        type            noSlip;
    }
    Table_master
    {
        type            noSlip;
    }
    Table_slave
    {
        type            noSlip;
    }
    inlet
    {
        type            fixedValue;
        value           uniform (0.3 0 0);
    }
    outlet
    {
        type            zeroGradient;
    }
}


// ************************************************************************* //
