/*--------------------------------*- C++ -*----------------------------------*\
  =========                 |
  \\      /  F ield         | OpenFOAM: The Open Source CFD Toolbox
   \\    /   O peration     | Website:  https://openfoam.org
    \\  /    A nd           | Version:  6
     \\/     M anipulation  |
\*---------------------------------------------------------------------------*/
FoamFile
{
    version     2.0;
    format      ascii;
    class       volScalarField;
    location    "800";
    object      alphat;
}
// * * * * * * * * * * * * * * * * * * * * * * * * * * * * * * * * * * * * * //

dimensions      [1 -1 -1 0 0 0 0];

internalField   nonuniform List<scalar> 
459
(
0.00123215
0.00134383
0.00136884
0.00143388
0.00149409
0.00155079
0.00160699
0.00166104
0.00169919
0.00171423
0.00169917
0.001649
0.00156151
0.00143964
0.00129721
0.00053659
0.000640414
0.000722623
0.000728457
0.000707327
0.000677232
0.000635799
0.0005936
0.000555181
0.000521126
0.000491021
0.000464325
0.000440608
0.000419387
0.000399899
0.000381177
0.000361903
0.000350403
0.000321343
0.00167836
0.00396706
0.00374853
0.00434625
0.00493117
0.00551906
0.00603305
0.00643118
0.00680253
0.00711286
0.00731916
0.00737623
0.00722975
0.00675083
0.00539593
0.0013192
0.000809173
0.000560584
0.001172
0.00163627
0.00198626
0.0021917
0.00220206
0.001748
0.00150386
0.00132999
0.00119697
0.00109164
0.00100616
0.000933309
0.000865612
0.00080034
0.000742621
0.000691567
0.000825803
0.000429497
0.00204956
0.00538184
0.00456548
0.00568862
0.00620253
0.00657737
0.00687179
0.0071301
0.00743092
0.00775723
0.00807086
0.00831226
0.00842862
0.00833603
0.00777686
0.00597886
0.00135284
0.00105607
0.00152927
0.00198275
0.00242096
0.00274586
0.00271374
0.000903735
0.000800356
0.000716281
0.000647945
0.000592022
0.000545845
0.000507439
0.000475514
0.000449499
0.000484516
0.000557012
0.000933702
0.000502816
0.00240635
0.00689409
0.00450427
0.00593811
0.00632602
0.00642041
0.00650001
0.0066482
0.00690164
0.00724036
0.00763062
0.00798723
0.008254
0.00835958
0.00824225
0.00760759
0.00514817
0.00158418
0.00189719
0.00241282
0.00297249
0.00346757
0.00380784
0.00363057
0.00102272
0.00093717
0.000876409
0.0008303
0.000790838
0.0007536
0.000717663
0.000679616
0.0006351
0.000595622
0.000599953
0.00108695
0.000560646
0.00277008
0.00886922
0.00487173
0.00565827
0.00619131
0.00613562
0.0060862
0.0062009
0.00644093
0.00678615
0.0072179
0.00761092
0.00788572
0.00799058
0.00792605
0.00766597
0.00701505
0.00593373
0.00555757
0.00548442
0.00552284
0.00557369
0.00557412
0.00540208
0.0046138
0.00423271
0.00401317
0.00384232
0.00365868
0.00339281
0.00301938
0.00255792
0.00204168
0.00152688
0.00112775
0.0011103
0.000761785
0.0006931
0.000834678
0.000937158
0.00315627
0.0110348
0.00671436
0.00546437
0.00597868
0.00614533
0.00598816
0.00610046
0.00630155
0.00662289
0.00703995
0.00744915
0.00772284
0.00778262
0.00764305
0.00740037
0.00716455
0.00700532
0.00699649
0.00701019
0.00696523
0.00685382
0.00668218
0.00643884
0.00607915
0.00575831
0.00547376
0.00519959
0.00491963
0.00461849
0.00423001
0.00373533
0.00313398
0.00246361
0.00185919
0.0013649
0.00105198
0.000901695
0.00128426
0.000980177
0.00351917
0.0125987
0.00965099
0.00694755
0.00646439
0.00651359
0.00636777
0.00628583
0.00638186
0.00668395
0.00712128
0.00754972
0.00781007
0.00781152
0.0075898
0.00731746
0.00722675
0.00739707
0.00762179
0.00768439
0.00755376
0.00728801
0.00693853
0.0065405
0.00612786
0.00575447
0.00542028
0.00511289
0.00482948
0.00457551
0.0043502
0.00403494
0.0035736
0.0029993
0.00243681
0.00191455
0.00154952
0.00144533
0.00148344
0.00112281
0.00359574
0.0114347
0.00991517
0.00877219
0.00806246
0.00732258
0.006686
0.00641105
0.00652153
0.00692365
0.00744949
0.00789931
0.00809571
0.00797477
0.00763853
0.00736025
0.00741334
0.00771266
0.00782858
0.00765173
0.00727018
0.00677073
0.00622762
0.00570883
0.00526395
0.00490463
0.00461139
0.00436964
0.00417829
0.00404417
0.00397612
0.003949
0.00372668
0.0033623
0.00303486
0.00287181
0.00300641
0.00348825
0.00427103
0.00174136
0.00350596
0.00419159
0.00473983
0.00491819
0.00494028
0.00504566
0.00536368
0.00592514
0.00668206
0.00748614
0.00814687
0.00849733
0.00842245
0.00798659
0.00749355
0.00736269
0.007393
0.00735879
0.00710292
0.00663072
0.00603133
0.00540293
0.00483299
0.00437214
0.00402373
0.00376071
0.00355279
0.00338024
0.00323085
0.00309472
0.00296302
0.00283514
0.00273217
0.00265589
0.0026276
0.00263825
0.00261791
0.00250477
0.00233555
0.00162711
0.00217879
0.00384941
0.00527294
0.00645667
0.00741337
0.00827008
0.00894772
0.009294
0.00925322
0.00884379
0.00811741
0.00726208
0.00670872
0.00648492
0.00625856
0.00587915
0.00535577
0.00476632
0.00418955
0.00369668
0.00332355
0.00305941
0.0028756
0.00274526
0.00265066
0.002582
0.00253431
0.00250577
0.00249952
0.00251874
0.002548
0.00258384
0.00261716
0.00261878
0.00254218
0.00237375
0.00212903
0.00133414
0.00252691
0.0053497
0.00727293
0.00817397
0.00876774
0.00916628
0.00916382
0.00858814
0.00768403
0.00670027
0.00586391
0.0052495
0.00483575
0.00447487
0.0040516
0.00358727
0.00314322
0.00277234
0.00249838
0.00231233
0.00218929
0.00211211
0.0020738
0.00206496
0.00207992
0.00211494
0.00216647
0.00222958
0.0023108
0.00240726
0.0025161
0.00262989
0.00273084
0.00279843
0.00277708
0.00279427
0.00275053
0.00135607
0.00215803
0.00227283
0.0023577
0.00242455
0.00218965
0.00200239
0.00190917
0.00182056
0.00169316
0.00153838
0.00135979
0.00118175
0.00102363
0.000898348
0.000808368
0.00074607
0.0007028
0.000673467
0.00065574
0.000648228
0.000649431
0.000657768
0.000672056
0.000691527
0.000715023
0.000742479
0.000774043
0.000810085
0.000851316
0.000899053
0.000952654
0.00101225
0.00107857
0.0011523
0.00123325
0.00133131
0.00136146
0.00132658
0.00124243
0.00115242
)
;

boundaryField
{
    floor
    {
        type            compressible::alphatWallFunction;
        Prt             0.85;
        value           nonuniform List<scalar> 
29
(
0.000183501
7.48193e-05
9.04014e-05
0.000102519
0.000103373
0.000100278
9.58509e-05
8.97161e-05
8.34174e-05
7.76348e-05
7.24675e-05
6.78644e-05
6.37527e-05
6.00749e-05
5.67626e-05
5.37018e-05
5.07434e-05
4.76779e-05
4.5839e-05
4.11564e-05
4.11558e-05
5.83435e-05
6.96722e-05
7.84609e-05
0.000183499
7.48183e-05
7.84505e-05
0.000150166
0.000222273
)
;
    }
    ceiling
    {
        type            compressible::alphatWallFunction;
        Prt             0.85;
        value           nonuniform List<scalar> 
43
(
0.000297514
0.000312301
0.000323184
0.000331844
0.000301761
0.000277514
0.000265356
0.000253733
0.000236906
0.000216268
0.000192161
0.000167767
0.000145746
0.000128018
0.000115106
0.000106066
9.97343e-05
9.54152e-05
9.27939e-05
9.16805e-05
9.18591e-05
9.30945e-05
9.52075e-05
9.80779e-05
0.000101529
0.000105544
0.000110138
0.000115356
0.000121292
0.000128122
0.00013574
0.000144152
0.000153445
0.000163698
0.000174871
0.000188294
0.000192399
0.00018765
0.000176134
0.000163719
0.0004673
0.000550695
0.000344635
)
;
    }
    sWall
    {
        type            compressible::alphatWallFunction;
        Prt             0.85;
        value           uniform 0.000296294;
    }
    nWall
    {
        type            compressible::alphatWallFunction;
        Prt             0.85;
        value           nonuniform List<scalar> 6(0.000133216 0.000139299 0.000159263 0.00018835 0.000191333 0.000163391);
    }
    sideWalls
    {
        type            empty;
    }
    glass1
    {
        type            compressible::alphatWallFunction;
        Prt             0.85;
        value           nonuniform List<scalar> 9(0.000170288 0.000229708 0.000277931 0.000323485 0.000369253 0.000417208 0.000461762 0.000471232 0.000460505);
    }
    glass2
    {
        type            compressible::alphatWallFunction;
        Prt             0.85;
        value           nonuniform List<scalar> 2(0.000241517 0.000226481);
    }
    sun
    {
        type            compressible::alphatWallFunction;
        Prt             0.85;
        value           nonuniform List<scalar> 
14
(
0.000174604
0.000189866
0.000193265
0.000202079
0.000210197
0.000217808
0.000225323
0.000232521
0.000237587
0.00023958
0.000237583
0.000230917
0.000219241
0.000202853
)
;
    }
    heatsource1
    {
        type            compressible::alphatWallFunction;
        Prt             0.85;
        value           nonuniform List<scalar> 3(9.83028e-05 0.000118894 0.000133536);
    }
    heatsource2
    {
        type            compressible::alphatWallFunction;
        Prt             0.85;
        value           nonuniform List<scalar> 4(0.000186634 0.000115217 0.000115216 0.000191216);
    }
    Table_master
    {
        type            compressible::alphatWallFunction;
        Prt             0.85;
        value           nonuniform List<scalar> 9(0.000128779 0.000113941 0.000101704 9.16302e-05 8.32893e-05 7.63288e-05 7.04836e-05 6.55827e-05 6.1558e-05);
    }
    Table_slave
    {
        type            compressible::alphatWallFunction;
        Prt             0.85;
        value           nonuniform List<scalar> 9(0.000145616 0.000133537 0.00012488 0.000118264 0.000112566 0.000107158 0.000101909 9.63165e-05 8.97246e-05);
    }
    inlet
    {
        type            fixedValue;
        value           uniform 1.94e-05;
    }
    outlet
    {
        type            zeroGradient;
    }
}


// ************************************************************************* //
