/*--------------------------------*- C++ -*----------------------------------*\
  =========                 |
  \\      /  F ield         | OpenFOAM: The Open Source CFD Toolbox
   \\    /   O peration     | Website:  https://openfoam.org
    \\  /    A nd           | Version:  6
     \\/     M anipulation  |
\*---------------------------------------------------------------------------*/
FoamFile
{
    version     2.0;
    format      ascii;
    class       volScalarField;
    location    "800";
    object      nut;
}
// * * * * * * * * * * * * * * * * * * * * * * * * * * * * * * * * * * * * * //

dimensions      [0 2 -1 0 0 0 0];

internalField   nonuniform List<scalar> 
459
(
0.00106139
0.00115658
0.00117805
0.00123401
0.00128581
0.00133459
0.00138294
0.00142943
0.00146222
0.0014751
0.00146208
0.00141886
0.00134356
0.00123869
0.00111615
0.000461826
0.000551148
0.000621882
0.000626907
0.00060873
0.000582838
0.000547186
0.000510875
0.000477816
0.000448512
0.000422607
0.000399634
0.000379227
0.000360966
0.000344196
0.000328086
0.0003115
0.000301607
0.000276611
0.00144664
0.00341484
0.00322649
0.003741
0.00424451
0.00475055
0.00519294
0.0055355
0.00585482
0.00612142
0.00629838
0.00634699
0.00622061
0.00580839
0.00464261
0.00113501
0.000696187
0.000482491
0.00100861
0.00140813
0.00170933
0.00188615
0.00189509
0.00150434
0.00129424
0.00114461
0.00103013
0.000939485
0.000865921
0.000803225
0.000744967
0.000688797
0.000639129
0.000595201
0.000710752
0.000369699
0.00176772
0.00463355
0.00393022
0.00489728
0.00533996
0.00566288
0.00591647
0.00613874
0.00639719
0.00667714
0.00694597
0.00715277
0.00725227
0.00717233
0.00669118
0.0051442
0.00116398
0.000908834
0.00131603
0.0017063
0.00208345
0.00236314
0.00233555
0.000777788
0.000688816
0.000616457
0.000557644
0.000509514
0.000469772
0.000436718
0.000409243
0.000386854
0.000416994
0.000479393
0.000803611
0.000432808
0.00207679
0.00593689
0.00387808
0.00511292
0.00544747
0.00552928
0.00559818
0.00572574
0.00594321
0.00623345
0.00656778
0.00687337
0.00710209
0.00719262
0.00709169
0.00654573
0.00442965
0.00136313
0.00163252
0.00207634
0.0025581
0.00298434
0.00327736
0.00312492
0.000880308
0.000806694
0.000754412
0.000714737
0.00068078
0.000648733
0.000617804
0.000585055
0.000546735
0.000512712
0.000516406
0.000935557
0.000482597
0.0023922
0.00763992
0.0041951
0.00487265
0.00533243
0.00528532
0.00524347
0.00534222
0.00554788
0.0058433
0.00621293
0.00654964
0.0067852
0.00687512
0.00681969
0.00659618
0.00603635
0.00510613
0.00478272
0.0047201
0.00475351
0.00479761
0.00479827
0.0046504
0.00397199
0.00364404
0.00345514
0.00330813
0.00315006
0.00292117
0.00259965
0.0022023
0.0017578
0.0013145
0.000970806
0.000955713
0.000655744
0.000596765
0.000718772
0.000807038
0.00272726
0.0095087
0.00578316
0.00470641
0.00515006
0.00529467
0.00516036
0.00525681
0.00542849
0.00570299
0.00605979
0.00641024
0.00664482
0.00669608
0.0065763
0.00636797
0.00616553
0.00602898
0.00602187
0.00603417
0.00599596
0.00590049
0.00575308
0.00554384
0.00523437
0.00495828
0.00471339
0.00447738
0.00423635
0.00397702
0.00364243
0.00321638
0.00269847
0.00212114
0.00160061
0.00117497
0.000905576
0.000776281
0.0011057
0.000843992
0.00304238
0.0108623
0.0083169
0.00598645
0.00557045
0.00561387
0.00548876
0.00541706
0.00549749
0.0057549
0.0061289
0.00649593
0.0067193
0.00672077
0.00653071
0.0062972
0.00621992
0.00636722
0.00656132
0.00661581
0.00650385
0.00627545
0.00597485
0.00563234
0.00527717
0.00495574
0.00466802
0.00440333
0.00415925
0.00394048
0.00374634
0.0034747
0.00307727
0.00258258
0.00209809
0.00164829
0.00133397
0.0012443
0.00127715
0.000966766
0.00311087
0.00987269
0.00855612
0.00756721
0.00695385
0.00631539
0.0057646
0.00552442
0.00561595
0.00595887
0.00640906
0.00679504
0.00696426
0.00686128
0.00657333
0.00633513
0.00638187
0.00664039
0.00674085
0.00658907
0.00626091
0.00583108
0.00536356
0.00491689
0.00453383
0.0042244
0.00397186
0.00376364
0.00359881
0.00348323
0.00342453
0.00340103
0.00320941
0.00289546
0.00261333
0.00247279
0.00258863
0.00300363
0.0036779
0.00150017
0.00303635
0.0036267
0.00409749
0.00424846
0.00426492
0.00435284
0.0046222
0.00510068
0.00574789
0.00643707
0.00700479
0.00730737
0.00724522
0.00687248
0.00645023
0.00633909
0.00636608
0.00633722
0.00611728
0.00571092
0.00519491
0.00465381
0.004163
0.0037661
0.00346603
0.00323948
0.00306037
0.00291173
0.00278303
0.00266574
0.00255228
0.00244213
0.00235345
0.0022878
0.00226353
0.00227288
0.00225561
0.00215836
0.00201268
0.00140243
0.00183802
0.00327076
0.00449713
0.00551478
0.00634093
0.00708371
0.00767429
0.00798032
0.00795257
0.00760627
0.00698603
0.00625213
0.00577698
0.005585
0.00539049
0.005064
0.00461339
0.00410578
0.00360904
0.00318453
0.00286313
0.00263561
0.00247727
0.002365
0.0022835
0.00222436
0.00218329
0.0021587
0.00215333
0.00216991
0.00219515
0.00222608
0.0022549
0.00225643
0.00219061
0.00204563
0.00183485
0.00114987
0.00213488
0.00454831
0.00620271
0.00698708
0.00750917
0.00786396
0.00787254
0.00738496
0.00661186
0.00576794
0.00504942
0.00452113
0.00416525
0.00385467
0.00349023
0.00309035
0.00270788
0.00238842
0.00215243
0.00199215
0.00188617
0.00181968
0.00178668
0.00177908
0.00179197
0.00182215
0.00186656
0.00192094
0.00199093
0.00207405
0.00216785
0.00226594
0.00235299
0.00241134
0.00239307
0.00240802
0.00237031
0.00116873
0.0018358
0.001933
0.00200515
0.00207416
0.00187854
0.00172042
0.0016417
0.00156642
0.00145742
0.00132458
0.00117105
0.00101787
0.00088176
0.000773889
0.000696403
0.000642751
0.000605485
0.000580222
0.000564955
0.000558488
0.000559529
0.000566715
0.00057903
0.000595808
0.000616056
0.000639716
0.000666914
0.000697971
0.0007335
0.000774635
0.000820823
0.00087218
0.00092933
0.000992865
0.00106264
0.00114717
0.00117319
0.00114315
0.00107064
0.000993202
)
;

boundaryField
{
    floor
    {
        type            nutkWallFunction;
        Cmu             0.09;
        kappa           0.41;
        E               9.8;
        value           nonuniform List<scalar> 
29
(
0.000134303
5.48072e-05
6.62083e-05
7.50745e-05
7.56995e-05
7.34356e-05
7.01966e-05
6.57077e-05
6.10986e-05
5.6867e-05
5.30854e-05
4.97165e-05
4.67071e-05
4.40152e-05
4.15907e-05
3.93502e-05
3.71844e-05
3.49402e-05
3.35941e-05
3.01663e-05
3.01662e-05
4.27515e-05
5.10456e-05
5.74805e-05
0.000134303
5.48071e-05
5.74673e-05
0.000109938
0.00016267
)
;
    }
    ceiling
    {
        type            nutkWallFunction;
        Cmu             0.09;
        kappa           0.41;
        E               9.8;
        value           nonuniform List<scalar> 
43
(
0.000215311
0.000225955
0.00023382
0.000241406
0.000220112
0.000202706
0.000193976
0.000185581
0.000173342
0.000158284
0.000140666
0.000122825
0.000106711
9.37359e-05
8.4284e-05
7.76663e-05
7.30308e-05
6.98688e-05
6.79498e-05
6.7135e-05
6.72662e-05
6.81713e-05
6.9719e-05
7.18215e-05
7.4349e-05
7.72899e-05
8.06545e-05
8.44764e-05
8.88238e-05
9.38263e-05
9.9406e-05
0.000105567
0.000112374
0.000119885
0.00012807
0.000137905
0.000140916
0.00013744
0.000129005
0.000119925
0.000343913
0.000404934
0.000247783
)
;
    }
    sWall
    {
        type            nutkWallFunction;
        Cmu             0.09;
        kappa           0.41;
        E               9.8;
        value           uniform 0.000215371;
    }
    nWall
    {
        type            nutkWallFunction;
        Cmu             0.09;
        kappa           0.41;
        E               9.8;
        value           nonuniform List<scalar> 6(9.77454e-05 0.000102193 0.00011681 0.000138228 0.000140411 0.000119931);
    }
    sideWalls
    {
        type            empty;
    }
    glass1
    {
        type            nutkWallFunction;
        Cmu             0.09;
        kappa           0.41;
        E               9.8;
        value           nonuniform List<scalar> 9(0.000128022 0.000172344 0.000208259 0.000242158 0.000276197 0.00031184 0.000344945 0.000352102 0.000344341);
    }
    glass2
    {
        type            nutkWallFunction;
        Cmu             0.09;
        kappa           0.41;
        E               9.8;
        value           nonuniform List<scalar> 2(0.000178236 0.000167201);
    }
    sun
    {
        type            nutkWallFunction;
        Cmu             0.09;
        kappa           0.41;
        E               9.8;
        value           nonuniform List<scalar> 
14
(
0.000127925
0.000138993
0.000141474
0.000147921
0.000153858
0.000159425
0.00016492
0.000170184
0.000173885
0.000175337
0.000173869
0.000168988
0.000160444
0.000148456
)
;
    }
    heatsource1
    {
        type            nutkWallFunction;
        Cmu             0.09;
        kappa           0.41;
        E               9.8;
        value           nonuniform List<scalar> 3(7.19427e-05 8.70251e-05 9.77445e-05);
    }
    heatsource2
    {
        type            nutkWallFunction;
        Cmu             0.09;
        kappa           0.41;
        E               9.8;
        value           nonuniform List<scalar> 4(0.000136489 8.4259e-05 8.4259e-05 0.000139843);
    }
    Table_master
    {
        type            nutkWallFunction;
        Cmu             0.09;
        kappa           0.41;
        E               9.8;
        value           nonuniform List<scalar> 9(9.42084e-05 8.33532e-05 7.44014e-05 6.70319e-05 6.09301e-05 5.58381e-05 5.1562e-05 4.79767e-05 4.50325e-05);
    }
    Table_slave
    {
        type            nutkWallFunction;
        Cmu             0.09;
        kappa           0.41;
        E               9.8;
        value           nonuniform List<scalar> 9(0.000106537 9.77028e-05 9.13713e-05 8.65319e-05 8.23646e-05 7.84088e-05 7.45687e-05 7.04771e-05 6.56538e-05);
    }
    inlet
    {
        type            calculated;
        value           uniform 0.000100623;
    }
    outlet
    {
        type            calculated;
        value           nonuniform List<scalar> 2(0.0018358 0.001933);
    }
}


// ************************************************************************* //
