/*--------------------------------*- C++ -*----------------------------------*\
  =========                 |
  \\      /  F ield         | OpenFOAM: The Open Source CFD Toolbox
   \\    /   O peration     | Website:  https://openfoam.org
    \\  /    A nd           | Version:  6
     \\/     M anipulation  |
\*---------------------------------------------------------------------------*/
FoamFile
{
    version     2.0;
    format      ascii;
    class       volScalarField;
    location    "700";
    object      alphat;
}
// * * * * * * * * * * * * * * * * * * * * * * * * * * * * * * * * * * * * * //

dimensions      [1 -1 -1 0 0 0 0];

internalField   nonuniform List<scalar> 
459
(
0.000754545
0.000775356
0.00066782
0.000681678
0.000702708
0.000724757
0.00074632
0.000766681
0.000785692
0.000802965
0.000817633
0.000828302
0.000833257
0.000830149
0.000812004
0.000291725
0.00044851
0.00038883
0.000340846
0.000309701
0.000293756
0.00028979
0.000297714
0.000311068
0.000325565
0.00033864
0.000349014
0.000361121
0.000373953
0.000385912
0.000398471
0.000400997
0.000369754
0.000385061
0.00138053
0.00268156
0.00183526
0.00286475
0.0032564
0.00343634
0.00357576
0.00368963
0.00377437
0.00381909
0.00380334
0.00369131
0.00342223
0.00289791
0.00201595
0.000910293
0.000609306
0.000552057
0.00119236
0.00113291
0.000955014
0.000780732
0.000659022
0.000566909
0.000640715
0.000750204
0.000862207
0.00097315
0.00108112
0.00112859
0.00108724
0.000970263
0.000969544
0.000860084
0.000908604
0.000455158
0.00197852
0.00521293
0.00236591
0.00334823
0.00461278
0.00507509
0.00529686
0.00543897
0.00552203
0.00553731
0.00546201
0.00525521
0.00485139
0.00416608
0.00316035
0.0019981
0.00101209
0.000788166
0.00229433
0.00207898
0.0017295
0.00135028
0.000943583
0.000363981
0.000375578
0.000409858
0.000443982
0.000476255
0.000506886
0.000534785
0.000560227
0.00059631
0.00152418
0.0015216
0.00131088
0.00054037
0.00254393
0.00842783
0.00422481
0.0034447
0.0047246
0.00563377
0.00611897
0.00642078
0.00662968
0.00675746
0.00679121
0.00669599
0.00640521
0.00581707
0.00482763
0.00345108
0.00203276
0.00119496
0.00379843
0.00377099
0.0032684
0.00267264
0.00203182
0.00140034
0.000914293
0.000898191
0.000885668
0.000874054
0.000863579
0.000855311
0.000851227
0.000854559
0.000872481
0.00226073
0.00218931
0.00181018
0.000711428
0.00304666
0.0116945
0.00740994
0.00498385
0.0046884
0.00528493
0.00605572
0.00667891
0.00717387
0.00756263
0.00785694
0.00805722
0.00814975
0.00810899
0.00790911
0.00754402
0.00706458
0.00664016
0.00676283
0.00651546
0.0062343
0.00597273
0.00571504
0.0054522
0.00520732
0.00505208
0.00489582
0.00472941
0.00454957
0.0043536
0.00413857
0.00390193
0.00364625
0.00338556
0.00283695
0.0021853
0.00154473
0.000821061
0.000790239
0.000784591
0.00348641
0.0142473
0.0110345
0.00789875
0.00602383
0.00518157
0.00533988
0.0060661
0.00687992
0.00762482
0.00825494
0.00876099
0.00914661
0.00941269
0.00954934
0.00954055
0.00938078
0.00910491
0.00880815
0.00851266
0.00825682
0.00803746
0.0078351
0.00763059
0.00741221
0.00718024
0.00693359
0.00667162
0.00639205
0.00609104
0.00576234
0.00539595
0.00497685
0.00448571
0.00390495
0.003267
0.00263119
0.00206741
0.0016127
0.00101222
0.00384101
0.0149732
0.0126822
0.0103107
0.00818257
0.00645227
0.00542772
0.00525909
0.00588515
0.00679108
0.00776128
0.00862357
0.00931689
0.00984858
0.0102301
0.0104505
0.0104924
0.0103707
0.0101507
0.0098975
0.00964905
0.00941573
0.0091904
0.00895866
0.00870731
0.00843291
0.00813844
0.0078262
0.00749723
0.00715153
0.00678762
0.00640111
0.00598276
0.00551764
0.00498619
0.0043664
0.00364489
0.00287551
0.00217383
0.00121822
0.00381365
0.0121402
0.0112632
0.0111071
0.00960926
0.00777621
0.00634439
0.00550049
0.00528074
0.00569832
0.00659791
0.00763866
0.0085888
0.00938275
0.0100213
0.0104919
0.0107635
0.0108507
0.0107988
0.0106614
0.01048
0.0102797
0.0100681
0.00984167
0.00959195
0.00931514
0.00901294
0.00868832
0.00834433
0.00798398
0.0076099
0.00722353
0.0068243
0.00640941
0.00597098
0.00548842
0.00490654
0.00413784
0.00321541
0.00138807
0.00361008
0.00425064
0.0140457
0.0139436
0.0111755
0.00866792
0.00703568
0.00614019
0.00580832
0.00591612
0.00634466
0.00696256
0.00766448
0.00838804
0.00908865
0.00971372
0.0101914
0.0104985
0.010656
0.0106943
0.0106462
0.0105429
0.0104029
0.0102337
0.0100333
0.00980015
0.0095363
0.00924496
0.00892965
0.00859385
0.00824069
0.00787231
0.00749096
0.00710061
0.0067003
0.00628588
0.00583118
0.00524454
0.00430537
0.0015587
0.0277782
0.0232683
0.013195
0.0097113
0.00829129
0.0075503
0.00724615
0.00725601
0.00745603
0.00774607
0.00807862
0.00843627
0.00881046
0.00918768
0.00954489
0.00985673
0.0101021
0.0102656
0.0103464
0.0103635
0.0103291
0.0102483
0.0101243
0.00996176
0.0097663
0.00954297
0.00929589
0.00902808
0.00874143
0.00843669
0.00811349
0.00777075
0.00740622
0.0070149
0.00657576
0.00601216
0.00501175
0.00177574
0.00893514
0.0174735
0.0125846
0.00967399
0.00816905
0.00748227
0.00734548
0.00756723
0.00796184
0.00836633
0.00871438
0.00899053
0.0092087
0.00939049
0.00955109
0.00969545
0.00982206
0.00992787
0.0100103
0.0100675
0.0100946
0.010068
0.00999554
0.0098886
0.00975666
0.0096064
0.00944165
0.00926372
0.00907177
0.00886306
0.00863313
0.00837584
0.00808277
0.00774107
0.00732795
0.00678778
0.00593672
0.00202045
0.00104437
0.00187214
0.0056075
0.00526714
0.0045635
0.00392741
0.00342799
0.00304709
0.00276307
0.0025604
0.00242741
0.00235221
0.00231588
0.00230129
0.00229639
0.00229448
0.00229257
0.0022895
0.00228483
0.00227848
0.00227047
0.00226063
0.00224895
0.00223749
0.00222469
0.00220982
0.0021928
0.00217386
0.00215328
0.00213127
0.00210787
0.00208289
0.00205593
0.00202635
0.00199312
0.00195453
0.00190764
0.00184732
0.00176726
0.00151665
)
;

boundaryField
{
    floor
    {
        type            compressible::alphatWallFunction;
        Prt             0.85;
        value           nonuniform List<scalar> 
29
(
0.000115608
3.6343e-05
6.1296e-05
5.19143e-05
4.42837e-05
3.92733e-05
3.66848e-05
3.60433e-05
3.73491e-05
3.95324e-05
4.18881e-05
4.40027e-05
4.56768e-05
4.76222e-05
4.9678e-05
5.15895e-05
5.35887e-05
5.39919e-05
4.90263e-05
5.14507e-05
5.145e-05
6.24625e-05
7.55541e-05
0.000101136
0.000115607
3.63425e-05
7.70625e-05
0.000112045
0.000169549
)
;
    }
    ceiling
    {
        type            compressible::alphatWallFunction;
        Prt             0.85;
        value           nonuniform List<scalar> 
43
(
0.000149401
0.000261316
0.000719493
0.000679448
0.000595888
0.00051924
0.000458178
0.000410993
0.000375408
0.000349775
0.000332832
0.000323196
0.000318519
0.000316631
0.000315987
0.000315733
0.000315479
0.000315078
0.000314471
0.000313649
0.000312613
0.00031134
0.000309831
0.000308349
0.000306693
0.00030477
0.000302567
0.000300115
0.00029745
0.000294596
0.000291557
0.00028831
0.000284803
0.000280948
0.000276612
0.000271568
0.000265427
0.000257504
0.000246953
0.000213574
0.000480174
0.00055794
0.00109993
)
;
    }
    sWall
    {
        type            compressible::alphatWallFunction;
        Prt             0.85;
        value           uniform 0.000148794;
    }
    nWall
    {
        type            compressible::alphatWallFunction;
        Prt             0.85;
        value           nonuniform List<scalar> 6(0.0001116 0.000144105 0.000172788 0.000247826 0.000279889 0.000213332);
    }
    sideWalls
    {
        type            empty;
    }
    glass1
    {
        type            compressible::alphatWallFunction;
        Prt             0.85;
        value           nonuniform List<scalar> 9(0.000104593 0.000191053 0.00026972 0.000341892 0.000404749 0.000458925 0.000502157 0.000498996 0.00047447);
    }
    glass2
    {
        type            compressible::alphatWallFunction;
        Prt             0.85;
        value           nonuniform List<scalar> 2(0.000195929 0.000218923);
    }
    sun
    {
        type            compressible::alphatWallFunction;
        Prt             0.85;
        value           nonuniform List<scalar> 
14
(
0.000107279
0.000110286
9.45535e-05
9.66027e-05
9.96982e-05
0.000102932
0.000106084
0.00010905
0.000111811
0.000114312
0.000116431
0.000117969
0.000118681
0.00011823
)
;
    }
    heatsource1
    {
        type            compressible::alphatWallFunction;
        Prt             0.85;
        value           nonuniform List<scalar> 3(0.000117019 0.000112544 0.000111652);
    }
    heatsource2
    {
        type            compressible::alphatWallFunction;
        Prt             0.85;
        value           nonuniform List<scalar> 4(0.000129697 8.58618e-05 8.58608e-05 0.000144081);
    }
    Table_master
    {
        type            compressible::alphatWallFunction;
        Prt             0.85;
        value           nonuniform List<scalar> 9(4.81051e-05 4.99616e-05 5.53788e-05 6.0717e-05 6.57205e-05 7.04305e-05 7.46936e-05 7.85601e-05 8.39985e-05);
    }
    Table_slave
    {
        type            compressible::alphatWallFunction;
        Prt             0.85;
        value           nonuniform List<scalar> 9(0.000130303 0.000128015 0.000126232 0.000124576 0.00012308 0.000121898 0.000121316 0.000121797 0.00012437);
    }
    inlet
    {
        type            fixedValue;
        value           uniform 1.94e-05;
    }
    outlet
    {
        type            zeroGradient;
    }
}


// ************************************************************************* //
