/*--------------------------------*- C++ -*----------------------------------*\
  =========                 |
  \\      /  F ield         | OpenFOAM: The Open Source CFD Toolbox
   \\    /   O peration     | Website:  https://openfoam.org
    \\  /    A nd           | Version:  6
     \\/     M anipulation  |
\*---------------------------------------------------------------------------*/
FoamFile
{
    version     2.0;
    format      ascii;
    class       surfaceScalarField;
    location    "700";
    object      phi;
}
// * * * * * * * * * * * * * * * * * * * * * * * * * * * * * * * * * * * * * //

dimensions      [1 0 -1 0 0 0 0];

internalField   nonuniform List<scalar> 
852
(
-0.00223279
0.00228628
-0.00236217
0.000129339
-0.00236506
2.86815e-06
-0.00237727
1.22112e-05
-0.00237472
-2.52469e-06
-0.00234965
-2.50063e-05
-0.00230034
-4.92192e-05
-0.0022234
-7.68168e-05
-0.0021131
-0.000110147
-0.00196127
-0.000151647
-0.0017579
-0.000203162
-0.0014909
-0.000266739
-0.00113852
-0.000352093
-0.00065112
-0.000487062
-0.000650408
2.98744e-05
-2.74668e-05
0.000370542
-0.000340471
0.000656633
-0.000285911
0.000801032
-0.00014425
0.00085055
-4.94198e-05
0.00089598
-4.5364e-05
0.00101785
-0.000121814
0.00115463
-0.000136743
0.00126842
-0.000113772
0.00135139
-8.29741e-05
0.00139827
-4.69264e-05
0.00140385
-5.67186e-06
0.00135554
4.81687e-05
0.00123891
0.000116461
0.0010251
0.000213591
0.000643153
0.000381689
9.78055e-05
0.000545162
-0.000151027
0.000248928
-0.000149819
-0.00157796
0.00400057
-0.00199892
0.00055033
-0.00211894
0.000122945
-0.00217723
7.05885e-05
-0.00220401
2.43803e-05
-0.00220529
-2.35632e-05
-0.0021849
-6.94152e-05
-0.00214403
-0.000117457
-0.00208042
-0.000173489
-0.00198865
-0.00024311
-0.0018596
-0.000331852
-0.00168003
-0.000445905
-0.00143782
-0.000593841
-0.00114469
-0.000779667
-0.00082247
-0.000972042
0.00015951
-0.000981396
0.000159714
0.000655654
-0.000678385
0.000539837
-0.000224143
0.000372734
-0.00011847
0.000344835
-0.000116064
0.000386069
-9.03974e-05
0.000314516
2.63879e-05
0.000359226
-0.000166377
0.000381543
-0.000158948
0.000389173
-0.000121315
0.000385071
-7.88237e-05
0.000360044
-2.19161e-05
0.000310861
4.34622e-05
0.00025742
0.000101497
0.000218915
0.000154781
0.000196548
0.000235703
0.000159144
0.000418797
0.000186601
0.000517463
8.57473e-05
0.000349718
-6.28124e-05
-0.00112412
0.00532325
-0.00162882
0.00105511
-0.001809
0.000303236
-0.00191006
0.000171778
-0.00196201
7.65002e-05
-0.00198416
-1.21103e-06
-0.00198782
-6.55034e-05
-0.00198047
-0.000124524
-0.00196558
-0.00018806
-0.00194307
-0.00026525
-0.00190958
-0.000364923
-0.00186004
-0.000494959
-0.00179322
-0.000660117
-0.00171927
-0.000852981
-0.0016522
-0.0010384
-0.00146405
-0.00116874
-0.0013035
-0.000668
-5.90238e-06
-0.000848968
-4.23392e-05
-0.000879612
-8.71007e-05
-0.000843631
-0.000151399
-0.00072044
-0.000213007
-0.000376926
-0.000316642
-0.00054291
-0.000701436
-0.000822299
-0.000900708
-0.000922326
-0.000878739
-0.000777242
-0.000622552
-0.000387006
-0.000205626
0.000237087
4.15922e-05
0.000269908
0.000193682
0.000197421
0.000129668
-0.000774257
0.00634532
-0.00127088
0.00155183
-0.00144803
0.000480537
-0.00156913
0.000293048
-0.00164773
0.000155299
-0.00168811
3.94049e-05
-0.00170605
-4.72911e-05
-0.00171775
-0.000112527
-0.00173609
-0.000169374
-0.00176872
-0.000232244
-0.00181977
-0.000313444
-0.00189313
-0.000421106
-0.00199716
-0.000555521
-0.0021455
-0.000703985
-0.00234278
-0.00084037
-0.00258715
-0.000923504
-0.00307624
-0.000813452
-0.00264923
-0.000426587
-0.00242039
-0.000233753
-0.00231217
-0.000149746
-0.0022526
-0.000145933
-0.00223219
-0.000171108
-0.00223601
-0.000208495
-0.00233313
-0.000218854
-0.00218167
-0.00015095
-0.00205019
-0.000130998
-0.00192237
-0.000127384
-0.00179544
-0.000126539
-0.00166762
-0.000127499
-0.00153622
-0.000131152
-0.00139616
-0.000139916
-0.00124389
-0.000152266
-0.00109708
-0.000146958
-0.000761611
-9.85227e-05
-0.000421325
-7.06365e-05
-0.000154193
-7.00779e-05
-3.24954e-05
-0.000490804
0.00712553
-0.000942878
0.00200402
-0.0009836
0.00052143
-0.00104675
0.000356412
-0.00117704
0.000285819
-0.00127244
0.000135055
-0.00131494
-4.51355e-06
-0.00133358
-9.35805e-05
-0.00135932
-0.000143299
-0.00140869
-0.000182509
-0.00149028
-0.000231453
-0.00160853
-0.000302399
-0.00176538
-0.000398162
-0.00195885
-0.000509928
-0.00218263
-0.000615917
-0.00243439
-0.000671001
-0.00264672
-0.000600309
-0.00263908
-0.00043339
-0.00257068
-0.000301311
-0.00249044
-0.000229182
-0.0024276
-0.000207991
-0.00238263
-0.000215329
-0.00235655
-0.000233842
-0.00233629
-0.000238411
-0.00226258
-0.000223979
-0.00217548
-0.000217452
-0.00208515
-0.000217102
-0.00199181
-0.000219301
-0.00189577
-0.000223017
-0.0017975
-0.000228942
-0.00169914
-0.000237859
-0.0016047
-0.000246355
-0.00150809
-0.000243278
-0.00138548
-0.000220888
-0.00125374
-0.000202159
-0.00112718
-0.00019644
-0.000946934
-0.000212545
-0.000676336
-0.000270578
-0.000366517
-0.000309791
-0.000357277
-0.000396947
0.00784847
-0.000691289
0.00229849
-0.00035825
0.000188587
-0.00021051
0.000208907
-0.000393481
0.000469053
-0.000626228
0.000368084
-0.000760068
0.000129619
-0.000816749
-3.65834e-05
-0.00085137
-0.000108346
-0.000900411
-0.000133117
-0.000979695
-0.000151795
-0.0010979
-0.000183789
-0.00125683
-0.000238787
-0.00145194
-0.000314318
-0.00167342
-0.000393869
-0.00190071
-0.000443069
-0.00207549
-0.00042483
-0.00215428
-0.000353854
-0.00216767
-0.000287144
-0.0021508
-0.000245277
-0.00212774
-0.000230287
-0.0021078
-0.000234513
-0.00209356
-0.00024735
-0.002075
-0.000256263
-0.0020394
-0.00025889
-0.00199288
-0.00026331
-0.00193981
-0.000269538
-0.00188188
-0.000276624
-0.0018203
-0.000284034
-0.00175696
-0.000291761
-0.00169507
-0.000299264
-0.0016376
-0.000303384
-0.00158183
-0.000298648
-0.00151781
-0.000284542
-0.00144626
-0.000273368
-0.00136747
-0.000274925
-0.00127454
-0.00030517
-0.00112575
-0.000419071
-0.000729788
-0.000705438
-0.00108096
-0.000664993
0.00887349
-0.000127802
0.00176145
0.000784065
-0.000723025
0.00100506
-1.18007e-05
0.000690859
0.000783527
0.000341414
0.000717819
8.45587e-05
0.000386782
-8.96604e-05
0.000137939
-0.000195544
-2.13803e-06
-0.00026455
-6.37556e-05
-0.000337563
-7.84149e-05
-0.00043636
-8.46117e-05
-0.000569543
-0.000105202
-0.000737018
-0.000146409
-0.000929564
-0.000200844
-0.0011251
-0.000247003
-0.00128808
-0.000261259
-0.00139511
-0.000246173
-0.00145558
-0.000225993
-0.00148711
-0.00021304
-0.00150494
-0.000211738
-0.00151816
-0.000220571
-0.00152998
-0.000234826
-0.00153698
-0.000248562
-0.00153516
-0.000260034
-0.0015259
-0.000271904
-0.00151051
-0.000284294
-0.0014897
-0.000296816
-0.00146405
-0.000309093
-0.00143452
-0.000320741
-0.00140247
-0.000330796
-0.00136844
-0.000336922
-0.00133023
-0.000336419
-0.00128374
-0.000330611
-0.0012292
-0.00032753
-0.00116877
-0.000335004
-0.00110989
-0.000363715
-0.00104757
-0.000481074
-0.00084397
-0.00090871
-0.00192036
0.00197769
0.00730201
0.00311953
0.000619736
0.00331933
-0.000922576
0.00264148
0.000666312
0.00187231
0.00155297
0.00138282
0.00120759
0.0010652
0.000704708
0.000837866
0.000365597
0.000665676
0.000170406
0.000536679
6.56027e-05
0.000438612
2.00297e-05
0.000349159
5.23247e-06
0.000248634
-4.27745e-06
0.000125733
-2.3097e-05
-2.03127e-05
-5.43685e-05
-0.000175265
-9.15894e-05
-0.000315846
-0.000120176
-0.000425883
-0.00013559
-0.000506476
-0.000144816
-0.000565341
-0.000153558
-0.000610992
-0.000165451
-0.000649985
-0.000180931
-0.000685599
-0.00019856
-0.000717939
-0.000215571
-0.000745854
-0.000231472
-0.000769612
-0.00024751
-0.000789283
-0.000263998
-0.000804631
-0.000280858
-0.000815232
-0.000297902
-0.000820574
-0.000314831
-0.00081981
-0.000331017
-0.000810949
-0.00034527
-0.000790297
-0.000356589
-0.000753845
-0.000366613
-0.000700378
-0.000380577
-0.000633033
-0.000401952
-0.000564962
-0.000431406
-0.000522594
-0.000523075
-0.000448413
-0.000982539
-0.00235163
0.00773952
0.0083408
0.00638166
0.00103683
0.0035458
0.00350248
0.00238221
0.00271683
0.00189781
0.00169226
0.0016662
0.000936619
0.00153454
0.000497615
0.00144343
0.000261911
0.00137152
0.000137943
0.00131186
8.0128e-05
0.00125604
6.15038e-05
0.00119467
5.75313e-05
0.00111958
5.24351e-05
0.00102706
3.85835e-05
0.000921355
1.45585e-05
0.00081535
-1.372e-05
0.000719931
-3.97008e-05
0.000637467
-6.18546e-05
0.000566749
-8.23193e-05
0.000505155
-0.000103315
0.000449099
-0.000124316
0.000396016
-0.000144906
0.000343577
-0.000162553
0.000291626
-0.000178938
0.000240405
-0.000195703
0.000190382
-0.000213392
0.000142233
-0.000232131
9.68519e-05
-0.00025195
5.54462e-05
-0.000272867
1.98748e-05
-0.000294901
-6.74603e-06
-0.000318124
-1.97548e-05
-0.000343076
-1.39704e-05
-0.000371916
1.43457e-05
-0.000408434
6.72804e-05
-0.000454446
0.000146832
-0.00051053
0.000241074
-0.000616903
0.000244672
-0.000985739
-0.00209168
-0.0036958
0.0026759
-0.00193349
0.00174054
-5.18881e-05
0.000835563
0.00103863
0.000602109
0.00157459
0.000401071
0.0018511
0.000221587
0.00200613
0.000107389
0.0020994
4.52138e-05
0.00215856
2.15041e-05
0.00219178
2.88014e-05
0.00220404
4.57725e-05
0.00219694
5.99994e-05
0.00217041
6.55666e-05
0.00212365
6.17467e-05
0.00206052
4.98424e-05
0.0019884
3.28437e-05
0.0019138
1.31837e-05
0.00184085
-8.9267e-06
0.00177023
-3.22327e-05
0.00170086
-5.44775e-05
0.00163212
-7.5691e-05
0.00156149
-9.14238e-05
0.00148911
-0.000106062
0.00141531
-0.000121394
0.00134031
-0.000137878
0.00126443
-0.000155729
0.00118816
-0.000175162
0.00111234
-0.000196525
0.00103837
-0.000220412
0.000968545
-0.000247784
0.000906199
-0.000280225
0.000855116
-0.000320339
0.00081865
-0.000371486
0.000800335
-0.000435661
0.000801874
-0.000511612
0.00079323
-0.000607815
0.000611015
-0.000803103
-0.00147809
-0.000505834
0.00315312
0.0010327
0.000202494
0.00173294
0.000135841
0.00229747
3.81387e-05
0.00276977
-7.05554e-05
0.00308363
-9.15565e-05
0.003256
-6.42695e-05
0.00332724
-2.53505e-05
0.00333518
1.41887e-05
0.00331394
5.06102e-05
0.00328414
7.60963e-05
0.00325453
9.00895e-05
0.00322642
9.41134e-05
0.00319773
9.08494e-05
0.00316539
8.25753e-05
0.00312756
7.10543e-05
0.00308373
5.7392e-05
0.0030321
4.30714e-05
0.00297112
2.91336e-05
0.00290223
1.48037e-05
0.00282609
8.38896e-07
0.00274637
-1.1294e-05
0.00266399
-2.32752e-05
0.00257827
-3.52477e-05
0.00248833
-4.75085e-05
0.00239341
-6.03629e-05
0.00229291
-7.42164e-05
0.00218651
-8.96638e-05
0.00207412
-0.000107554
0.00195588
-0.000129072
0.00183201
-0.000155877
0.00170245
-0.000190307
0.001567
-0.000235557
0.00142754
-0.000295721
0.00129304
-0.000376647
0.00117307
-0.000487395
0.000990463
-0.00062006
-0.000485851
0.00264814
0.00197816
0.005075
0.00522199
0.00529828
0.00527142
0.00513028
0.00496307
0.004819
0.00471096
0.00464114
0.004608
0.00460169
0.00461127
0.00462691
0.00464126
0.00464917
0.00464722
0.00463312
0.00460608
0.00456636
0.00451346
0.00444765
0.00437075
0.00428285
0.00418388
0.0040735
0.00395106
0.0038155
0.00366521
0.0034977
0.00330932
0.00309475
0.00284631
0.00255313
0.0022002
0.00176665
0.00122247
0.000545504
)
;

boundaryField
{
    floor
    {
        type            calculated;
        value           nonuniform List<scalar> 
29
(
0
0
0
0
0
0
0
0
0
0
0
0
0
0
0
0
0
0
0
0
-9.93563e-07
-1.1897e-06
1.18505e-06
7.59742e-06
-3.3214e-07
-2.33495e-06
-4.02571e-06
-3.63289e-06
5.88448e-07
)
;
    }
    ceiling
    {
        type            calculated;
        value           nonuniform List<scalar> 
43
(
0.000292111
0.000179215
5.71548e-05
5.63121e-05
6.03827e-05
6.5854e-05
7.13954e-05
7.64091e-05
8.05049e-05
8.33312e-05
8.46032e-05
8.42846e-05
8.28809e-05
8.09436e-05
7.88709e-05
7.68697e-05
7.50183e-05
7.33323e-05
7.18052e-05
7.04184e-05
6.91528e-05
6.79992e-05
6.69448e-05
6.59123e-05
6.49375e-05
6.40342e-05
6.31992e-05
6.24223e-05
6.1692e-05
6.0999e-05
6.03382e-05
5.9709e-05
5.91153e-05
5.85657e-05
5.80737e-05
5.76615e-05
5.73665e-05
5.72494e-05
5.7343e-05
6.20478e-05
2.12218e-05
1.85539e-05
2.91246e-05
)
;
    }
    sWall
    {
        type            calculated;
        value           uniform 7.08191e-05;
    }
    nWall
    {
        type            calculated;
        value           nonuniform List<scalar> 6(-9.04846e-06 -5.73402e-06 -4.23324e-06 -2.19695e-06 -1.37638e-06 -2.01687e-06);
    }
    sideWalls
    {
        type            empty;
        value           nonuniform 0();
    }
    glass1
    {
        type            calculated;
        value           nonuniform List<scalar> 9(-5.35383e-05 -0.000136361 -0.000198566 -0.000247812 -0.000289397 -0.000325963 -0.000359981 -0.00040617 -0.000458695);
    }
    glass2
    {
        type            calculated;
        value           nonuniform List<scalar> 2(-1.67978e-05 -1.49109e-05);
    }
    sun
    {
        type            calculated;
        value           uniform 0;
    }
    heatsource1
    {
        type            calculated;
        value           nonuniform List<scalar> 3(1.99976e-07 2.00106e-07 2.00311e-07);
    }
    heatsource2
    {
        type            calculated;
        value           nonuniform List<scalar> 4(5.05079e-08 5.06897e-08 0 0);
    }
    Table_master
    {
        type            calculated;
        value           nonuniform List<scalar> 9(-1.52223e-07 -1.52076e-07 -1.51898e-07 -1.51733e-07 -1.51604e-07 -1.51514e-07 -1.51471e-07 -1.51461e-07 -1.51465e-07);
    }
    Table_slave
    {
        type            calculated;
        value           nonuniform List<scalar> 9(1.50289e-07 1.50303e-07 1.50302e-07 1.503e-07 1.503e-07 1.50307e-07 1.50328e-07 1.50373e-07 1.50441e-07);
    }
    inlet
    {
        type            calculated;
        value           uniform 0.00205728;
    }
    outlet
    {
        type            calculated;
        value           nonuniform List<scalar> 2(-0.00300983 0.000491825);
    }
}


// ************************************************************************* //
