// -*- C++ -*-
// File generated by PyFoam - sorry for the ugliness

FoamFile
{
 version 2.0;
 format ascii;
 class volScalarField;
 location "700";
 object T;
}

dimensions [ 0 0 0 1 0 0 0 ];

internalField nonuniform List<scalar> 459
(
  305.262
  304.984
  304.961
  304.952
  304.944
  304.938
  304.933
  304.929
  304.925
  304.921
  304.917
  304.912
  304.906
  304.9
  304.89
  304.077
  304.115
  304.131
  304.136
  304.134
  304.134
  304.149
  304.171
  304.199
  304.231
  304.269
  304.309
  304.36
  304.421
  304.497
  304.594
  304.692
  304.624
  304.636
  305.478
  305.096
  305.056
  305.055
  305.059
  305.064
  305.069
  305.075
  305.08
  305.083
  305.084
  305.081
  305.073
  305.058
  305.03
  304.989
  304.779
  304.246
  304.249
  304.287
  304.344
  304.363
  304.307
  304.294
  304.336
  304.4
  304.474
  304.55
  304.628
  304.708
  304.778
  304.83
  304.871
  304.877
  304.861
  304.95
  305.677
  305.233
  305.172
  305.17
  305.185
  305.202
  305.22
  305.237
  305.253
  305.266
  305.275
  305.278
  305.272
  305.253
  305.218
  305.168
  305.114
  304.538
  304.659
  304.763
  304.845
  304.88
  304.843
  304.496
  304.597
  304.732
  304.866
  304.984
  305.069
  305.124
  305.166
  305.197
  305.247
  305.234
  305.257
  305.367
  305.864
  305.401
  305.332
  305.316
  305.332
  305.358
  305.388
  305.419
  305.448
  305.473
  305.494
  305.506
  305.507
  305.493
  305.459
  305.405
  305.337
  305.285
  305.276
  305.333
  305.417
  305.502
  305.583
  305.658
  305.73
  305.778
  305.826
  305.874
  305.919
  305.958
  305.985
  305.988
  305.949
  305.85
  305.876
  305.978
  306.127
  306.047
  305.602
  305.558
  305.533
  305.526
  305.543
  305.575
  305.615
  305.657
  305.695
  305.73
  305.757
  305.775
  305.779
  305.768
  305.743
  305.711
  305.686
  305.68
  305.712
  305.76
  305.812
  305.862
  305.909
  305.951
  305.992
  306.035
  306.078
  306.122
  306.165
  306.205
  306.242
  306.274
  306.304
  306.361
  306.431
  306.5
  306.55
  306.563
  306.539
  306.225
  305.838
  305.872
  305.867
  305.827
  305.803
  305.811
  305.84
  305.885
  305.933
  305.98
  306.022
  306.055
  306.075
  306.079
  306.068
  306.046
  306.026
  306.018
  306.029
  306.051
  306.08
  306.109
  306.138
  306.167
  306.197
  306.229
  306.263
  306.298
  306.335
  306.372
  306.411
  306.451
  306.494
  306.544
  306.597
  306.651
  306.703
  306.75
  306.791
  306.4
  306.12
  306.349
  306.35
  306.281
  306.206
  306.165
  306.155
  306.172
  306.218
  306.271
  306.322
  306.369
  306.405
  306.426
  306.43
  306.419
  306.403
  306.391
  306.387
  306.391
  306.399
  306.411
  306.423
  306.435
  306.45
  306.466
  306.484
  306.505
  306.527
  306.551
  306.577
  306.605
  306.635
  306.669
  306.706
  306.748
  306.797
  306.853
  306.908
  306.611
  306.486
  306.894
  306.99
  306.891
  306.755
  306.667
  306.629
  306.625
  306.641
  306.676
  306.721
  306.767
  306.809
  306.84
  306.855
  306.855
  306.844
  306.83
  306.816
  306.805
  306.797
  306.79
  306.783
  306.777
  306.772
  306.768
  306.767
  306.767
  306.77
  306.774
  306.781
  306.789
  306.8
  306.813
  306.828
  306.846
  306.874
  306.918
  306.967
  306.887
  306.923
  307.976
  308.024
  307.717
  307.441
  307.295
  307.246
  307.251
  307.281
  307.316
  307.347
  307.373
  307.391
  307.402
  307.403
  307.396
  307.381
  307.359
  307.334
  307.308
  307.281
  307.254
  307.227
  307.199
  307.172
  307.146
  307.121
  307.098
  307.077
  307.058
  307.042
  307.028
  307.016
  307.006
  306.998
  306.99
  306.988
  306.996
  307.011
  313.297
  309.555
  308.559
  308.159
  308.079
  308.086
  308.125
  308.169
  308.202
  308.218
  308.215
  308.199
  308.174
  308.141
  308.102
  308.055
  308.004
  307.951
  307.899
  307.847
  307.796
  307.743
  307.691
  307.638
  307.587
  307.537
  307.489
  307.442
  307.398
  307.355
  307.315
  307.277
  307.241
  307.206
  307.171
  307.135
  307.1
  307.061
  312.729
  310.79
  310.175
  309.814
  309.657
  309.587
  309.534
  309.475
  309.409
  309.336
  309.254
  309.165
  309.073
  308.981
  308.89
  308.799
  308.71
  308.622
  308.534
  308.447
  308.362
  308.28
  308.2
  308.121
  308.045
  307.969
  307.896
  307.823
  307.753
  307.684
  307.616
  307.551
  307.486
  307.421
  307.354
  307.283
  307.204
  307.112
  317.82
  317.344
  314.354
  313.584
  313.008
  312.586
  312.253
  311.962
  311.696
  311.445
  311.201
  310.958
  310.724
  310.502
  310.296
  310.105
  309.928
  309.765
  309.612
  309.47
  309.335
  309.207
  309.084
  308.965
  308.849
  308.736
  308.626
  308.517
  308.41
  308.305
  308.2
  308.096
  307.993
  307.888
  307.782
  307.673
  307.559
  307.433
  307.285
  307.107
)
;

boundaryField
{
  floor
  {
    type wallHeatTransfer;
    Tinf uniform 305.2;
    alphaWall uniform 0.24;
    value nonuniform List<scalar> 29
(
  304.935
  304.39
  304.349
  304.384
  304.407
  304.421
  304.43
  304.443
  304.455
  304.468
  304.485
  304.507
  304.534
  304.567
  304.609
  304.663
  304.735
  304.81
  304.764
  304.77
  304.77
  305.003
  305.335
  305.98
  304.935
  304.39
  304.426
  304.635
  305.275
)
;
  }
  ceiling
  {
    type wallHeatTransfer;
    Tinf uniform 303.2;
    alphaWall uniform 0.24;
    value nonuniform List<scalar> 43
(
  316.057
  316.252
  314.005
  313.242
  312.643
  312.19
  311.825
  311.505
  311.216
  310.95
  310.699
  310.459
  310.233
  310.024
  309.83
  309.651
  309.486
  309.333
  309.19
  309.055
  308.928
  308.807
  308.691
  308.579
  308.469
  308.361
  308.256
  308.152
  308.05
  307.949
  307.849
  307.749
  307.648
  307.548
  307.445
  307.339
  307.227
  307.102
  306.954
  306.75
  306.72
  306.775
  312.53
)
;
  }
  sWall
  {
    type wallHeatTransfer;
    Tinf uniform 315.2;
    alphaWall uniform 0.36;
    value uniform 317.371;
  }
  nWall
  {
    type wallHeatTransfer;
    Tinf uniform 307.2;
    alphaWall uniform 0.36;
    value nonuniform List<scalar> 6
(
  306.676
  306.863
  306.953
  307.077
  307.121
  307.119
)
;
  }
  sideWalls
  {
    type empty;
  }
  glass1
  {
    type wallHeatTransfer;
    Tinf uniform 315.2;
    alphaWall uniform 4.3;
    value nonuniform List<scalar> 9
(
  312.889
  311.942
  311.322
  310.897
  310.621
  310.444
  310.351
  310.479
  310.73
)
;
  }
  glass2
  {
    type wallHeatTransfer;
    Tinf uniform 307.2;
    alphaWall uniform 4.3;
    value nonuniform List<scalar> 2
(
  307.121
  307.131
)
;
  }
  sun
  {
    type wallHeatTransfer;
    Tinf uniform 305.2;
    alphaWall uniform 0.24;
    value nonuniform List<scalar> 14
(
  305.253
  305.016
  305.001
  304.993
  304.985
  304.979
  304.974
  304.97
  304.966
  304.962
  304.958
  304.953
  304.948
  304.942
)
;
  }
  heatsource1
  {
    type fixedGradient;
    gradient uniform 0;
  }
  heatsource2
  {
    type fixedGradient;
    gradient uniform 0;
  }
  Table_master
  {
    type zeroGradient;
  }
  Table_slave
  {
    type zeroGradient;
  }
  inlet
  {
    type fixedValue;
    value uniform 293.15;
  }
  outlet
  {
    type zeroGradient;
  }
} 	// ************************************************************************* //

