/*--------------------------------*- C++ -*----------------------------------*\
  =========                 |
  \\      /  F ield         | OpenFOAM: The Open Source CFD Toolbox
   \\    /   O peration     | Website:  https://openfoam.org
    \\  /    A nd           | Version:  6
     \\/     M anipulation  |
\*---------------------------------------------------------------------------*/
FoamFile
{
    version     2.0;
    format      ascii;
    class       volScalarField;
    location    "400";
    object      alphat;
}
// * * * * * * * * * * * * * * * * * * * * * * * * * * * * * * * * * * * * * //

dimensions      [1 -1 -1 0 0 0 0];

internalField   nonuniform List<scalar> 
459
(
0.000824708
0.000858693
0.000847074
0.000873479
0.000895469
0.000913489
0.000928431
0.000941178
0.0009526
0.000963698
0.000971876
0.000976081
0.000976265
0.000974123
0.000970238
0.000788343
0.000741722
0.000705655
0.000680316
0.000660607
0.000641124
0.000618196
0.000595964
0.000574515
0.000553809
0.000533888
0.00051475
0.000496326
0.000478419
0.000460632
0.000442316
0.000422214
0.000406534
0.000372715
0.00125541
0.00188664
0.00157391
0.00181753
0.00192882
0.00205018
0.00217247
0.00228475
0.00237178
0.00241379
0.00242191
0.00236999
0.00222309
0.00193375
0.00146604
0.000993918
0.000938238
0.000912457
0.00150305
0.00190482
0.00217648
0.00230801
0.00226302
0.00192703
0.00171439
0.00154725
0.00140914
0.00129034
0.00118525
0.00108874
0.000994475
0.000897059
0.000810054
0.0007371
0.000864018
0.000471118
0.00165435
0.00283829
0.00168926
0.00251702
0.00268619
0.00281028
0.00290753
0.00298224
0.00303786
0.00307049
0.00308017
0.00304321
0.00292805
0.00269606
0.00231043
0.00177266
0.00108011
0.00102317
0.00271125
0.00316735
0.00329818
0.00326134
0.00280301
0.000756581
0.000670214
0.000606171
0.000557537
0.000519584
0.000489201
0.000464544
0.000444891
0.000431082
0.00049657
0.00059148
0.000984494
0.000546373
0.00207116
0.00434364
0.0016209
0.00283205
0.00310944
0.00321046
0.00326505
0.00329594
0.00331779
0.00333559
0.00334983
0.00334523
0.00329889
0.00317973
0.00293934
0.00250099
0.00180359
0.0011018
0.00292479
0.00334677
0.00352358
0.00353616
0.00344371
0.00294268
0.000767978
0.000725803
0.000708872
0.000699384
0.000687944
0.000668955
0.000645041
0.000618959
0.00058651
0.000565472
0.000594857
0.00115214
0.000606753
0.00249942
0.00638166
0.00193906
0.00272261
0.00329447
0.00339981
0.00342766
0.00342735
0.00342388
0.00343422
0.00345545
0.0034857
0.00349991
0.00346963
0.00336643
0.00318305
0.00298278
0.00286995
0.00298704
0.00337261
0.00344606
0.00342582
0.00337551
0.00326523
0.00291204
0.0028587
0.00285386
0.00283491
0.00277775
0.00266757
0.00244272
0.0021106
0.00171783
0.00130586
0.000983686
0.00109613
0.000762024
0.000772135
0.000916667
0.00101897
0.00293576
0.00857798
0.00326638
0.00231413
0.00318386
0.0034322
0.00350169
0.00350203
0.00346189
0.00343602
0.00345651
0.00351856
0.00357446
0.00358979
0.00351901
0.0033056
0.00294538
0.00261278
0.00271993
0.00330778
0.00335804
0.00329067
0.00324454
0.00324075
0.00324981
0.00329141
0.00332064
0.00331929
0.00328275
0.00321043
0.00308232
0.00282302
0.00243928
0.00195264
0.0014902
0.00115166
0.000952851
0.000885279
0.00133051
0.00106399
0.0033898
0.0103884
0.00621972
0.00290996
0.00236782
0.00274151
0.0031579
0.00343951
0.00359185
0.0034045
0.00343652
0.00351291
0.00358445
0.00362777
0.00359938
0.00341452
0.00298876
0.00244625
0.00246337
0.00329336
0.00335932
0.00325284
0.00318488
0.00318245
0.00321637
0.00325865
0.00328479
0.00328799
0.00327425
0.00325197
0.00322744
0.0030931
0.00278399
0.00234006
0.00190505
0.00150102
0.00126458
0.00123938
0.0013551
0.00118236
0.00351992
0.0107704
0.00836354
0.00602318
0.00413078
0.00313144
0.00291266
0.00310817
0.00340776
0.00344325
0.00346358
0.00350531
0.00355668
0.00359302
0.00357588
0.00343991
0.00305069
0.00237576
0.00223069
0.00331143
0.00343689
0.0033
0.0032014
0.00316389
0.00315181
0.00314074
0.00312325
0.00310497
0.00310048
0.00312707
0.00319781
0.00328204
0.00311896
0.00274281
0.00243643
0.00234352
0.00258112
0.00338447
0.0046076
0.00187917
0.00346512
0.00425781
0.00475429
0.00482754
0.00451918
0.00404589
0.00365868
0.00344415
0.00337386
0.0033557
0.00338627
0.00344095
0.00349313
0.0035164
0.00348293
0.00334827
0.00297876
0.00227423
0.0020233
0.00332274
0.0035703
0.00340407
0.00326759
0.00318101
0.00310322
0.00301644
0.00291987
0.0028202
0.00272595
0.00264278
0.00257096
0.00250717
0.00245246
0.00242727
0.00247195
0.00257105
0.00263497
0.00257375
0.00240861
0.00172692
0.00262665
0.00406411
0.00436501
0.00425107
0.00404959
0.00387597
0.00375864
0.00367466
0.00361467
0.00356126
0.00349584
0.00340343
0.00327259
0.0030786
0.00269461
0.00199701
0.00178818
0.00334223
0.00373991
0.00354184
0.00339306
0.00329039
0.0031783
0.00304881
0.00291013
0.00277311
0.00264974
0.00255311
0.00249681
0.00248843
0.00251141
0.00255719
0.00261623
0.00265031
0.00259763
0.00242594
0.00214355
0.00140362
0.00276008
0.00465725
0.00483777
0.00463782
0.0044239
0.00421154
0.00401246
0.00382544
0.0035964
0.00333412
0.00305961
0.00278664
0.00252362
0.00226685
0.00196445
0.00152227
0.00150326
0.00295597
0.00325316
0.00311071
0.00301027
0.0029333
0.0028472
0.00276207
0.00269418
0.00265268
0.00263763
0.00264035
0.00264785
0.00268964
0.0027602
0.00284914
0.00293963
0.00301718
0.0030343
0.0030781
0.00270959
0.00142069
0.00242944
0.00254292
0.00264298
0.00278564
0.00260861
0.00236517
0.00220025
0.00205076
0.00191271
0.00178425
0.00167161
0.00157017
0.00147428
0.00138093
0.0012887
0.00119724
0.0011063
0.00101204
0.000887157
0.000914545
0.000923171
0.000919567
0.000919626
0.00092399
0.000932598
0.000946266
0.000965576
0.000990871
0.00102269
0.0010623
0.00111196
0.00116895
0.00123414
0.00130744
0.00138882
0.00149691
0.00153547
0.00150442
0.00140615
0.00130019
)
;

boundaryField
{
    floor
    {
        type            compressible::alphatWallFunction;
        Prt             0.85;
        value           nonuniform List<scalar> 
29
(
0.000138054
0.000112042
0.000105266
9.99884e-05
9.62616e-05
9.3351e-05
9.04634e-05
8.70513e-05
8.37279e-05
8.05069e-05
7.73835e-05
7.43646e-05
7.14514e-05
6.86338e-05
6.58827e-05
6.31372e-05
6.02961e-05
5.71607e-05
5.47019e-05
4.93571e-05
4.93564e-05
6.47561e-05
7.62552e-05
8.53386e-05
0.000138052
0.000112041
0.000129856
0.000145509
0.000156506
)
;
    }
    ceiling
    {
        type            compressible::alphatWallFunction;
        Prt             0.85;
        value           nonuniform List<scalar> 
43
(
0.000332366
0.000346807
0.000359485
0.000377563
0.000355259
0.000324298
0.000303122
0.000283777
0.000265774
0.000248894
0.000233984
0.000220461
0.000207588
0.000194965
0.0001824
0.000169839
0.00015724
0.000144054
0.000126373
0.000130275
0.000131505
0.000130993
0.000131001
0.000131621
0.000132844
0.000134783
0.000137517
0.000141088
0.000145566
0.000151118
0.000158044
0.00016595
0.000174939
0.000184983
0.000196059
0.000210658
0.000215838
0.00021167
0.00019841
0.000183997
0.000462251
0.000558639
0.000374189
)
;
    }
    sWall
    {
        type            compressible::alphatWallFunction;
        Prt             0.85;
        value           uniform 0.000331133;
    }
    nWall
    {
        type            compressible::alphatWallFunction;
        Prt             0.85;
        value           nonuniform List<scalar> 6(0.000144685 0.000150989 0.000167431 0.000197706 0.000200016 0.000183637);
    }
    sideWalls
    {
        type            empty;
    }
    glass1
    {
        type            compressible::alphatWallFunction;
        Prt             0.85;
        value           nonuniform List<scalar> 9(0.000113852 0.000173253 0.000226375 0.000280513 0.000335027 0.000389634 0.000445607 0.000461644 0.000455174);
    }
    glass2
    {
        type            compressible::alphatWallFunction;
        Prt             0.85;
        value           nonuniform List<scalar> 2(0.000259145 0.000239268);
    }
    sun
    {
        type            compressible::alphatWallFunction;
        Prt             0.85;
        value           nonuniform List<scalar> 
14
(
0.000117316
0.000122181
0.000120513
0.000124298
0.000127439
0.000130007
0.000132132
0.000133941
0.00013556
0.00013713
0.000138286
0.00013888
0.000138906
0.000138603
)
;
    }
    heatsource1
    {
        type            compressible::alphatWallFunction;
        Prt             0.85;
        value           nonuniform List<scalar> 3(0.000109855 0.000130625 0.000145091);
    }
    heatsource2
    {
        type            compressible::alphatWallFunction;
        Prt             0.85;
        value           nonuniform List<scalar> 4(0.000141563 0.000133689 0.000133687 0.000153652);
    }
    Table_master
    {
        type            compressible::alphatWallFunction;
        Prt             0.85;
        value           nonuniform List<scalar> 9(0.000107593 9.49287e-05 8.54101e-05 7.80991e-05 7.23389e-05 6.76896e-05 6.38896e-05 6.08424e-05 5.86913e-05);
    }
    Table_slave
    {
        type            compressible::alphatWallFunction;
        Prt             0.85;
        value           nonuniform List<scalar> 9(0.000109252 0.000103103 0.000100622 9.92288e-05 9.7546e-05 9.4745e-05 9.12034e-05 8.73225e-05 8.2466e-05);
    }
    inlet
    {
        type            fixedValue;
        value           uniform 1.94e-05;
    }
    outlet
    {
        type            zeroGradient;
    }
}


// ************************************************************************* //
