/*--------------------------------*- C++ -*----------------------------------*\
  =========                 |
  \\      /  F ield         | OpenFOAM: The Open Source CFD Toolbox
   \\    /   O peration     | Website:  https://openfoam.org
    \\  /    A nd           | Version:  6
     \\/     M anipulation  |
\*---------------------------------------------------------------------------*/
FoamFile
{
    version     2.0;
    format      ascii;
    class       volScalarField;
    location    "400";
    object      nut;
}
// * * * * * * * * * * * * * * * * * * * * * * * * * * * * * * * * * * * * * //

dimensions      [0 2 -1 0 0 0 0];

internalField   nonuniform List<scalar> 
459
(
0.000708778
0.000737201
0.000727203
0.00074987
0.000768746
0.000784214
0.000797038
0.000807978
0.00081778
0.000827304
0.000834317
0.000837914
0.000838055
0.000836197
0.00083284
0.000676651
0.000636618
0.000605654
0.000583899
0.000566977
0.00055025
0.000530568
0.000511484
0.000493071
0.000475297
0.000458195
0.000441767
0.000425951
0.000410579
0.00039531
0.000379587
0.000362332
0.000348871
0.000319859
0.0010798
0.00161988
0.00135127
0.00156045
0.00165602
0.00176024
0.00186525
0.00196167
0.0020364
0.00207247
0.00207942
0.00203477
0.00190855
0.00166004
0.00125843
0.000853111
0.000805282
0.000783167
0.00129003
0.00163482
0.00186794
0.00198079
0.00194215
0.00165377
0.00147126
0.0013278
0.00120925
0.00110728
0.00101708
0.00093425
0.000853343
0.000769742
0.00069508
0.000632481
0.000741387
0.00040429
0.00142406
0.00243738
0.00145045
0.00216127
0.00230663
0.00241329
0.0024969
0.00256113
0.00260895
0.00263699
0.00264526
0.00261338
0.00251427
0.00231479
0.00198344
0.00152162
0.000927083
0.000878207
0.00232707
0.00271851
0.00283075
0.00279908
0.00240568
0.000649311
0.000575169
0.000520191
0.000478441
0.000445859
0.000419775
0.000398606
0.000381733
0.000369878
0.000426066
0.000507501
0.000844726
0.000468863
0.0017842
0.0037309
0.0013919
0.00243208
0.0026705
0.00275748
0.00280457
0.00283129
0.00285019
0.00286554
0.00287772
0.00287357
0.00283341
0.00273059
0.00252368
0.00214696
0.0015481
0.00094569
0.00251043
0.00287268
0.00302444
0.0030352
0.00295579
0.00252571
0.000659148
0.000622941
0.000608403
0.000600253
0.000590427
0.00057412
0.000553586
0.000531191
0.00050333
0.000485238
0.000510422
0.000988575
0.000520683
0.00215463
0.00548293
0.00166529
0.00233833
0.00282977
0.00292057
0.00294483
0.00294487
0.00294213
0.00295116
0.00296939
0.00299515
0.0030069
0.00298024
0.00289088
0.00273276
0.00256037
0.00246333
0.00256393
0.00289501
0.00295808
0.00294068
0.00289746
0.00280276
0.00249957
0.00245376
0.00244958
0.00243329
0.00238418
0.00228957
0.00209652
0.00181142
0.00147427
0.00112064
0.000844103
0.000940541
0.000653917
0.000662715
0.00078684
0.000874693
0.00253232
0.00737248
0.00280569
0.00198766
0.00273499
0.00294868
0.00300878
0.00300947
0.00297533
0.00295337
0.00297106
0.00302418
0.00307171
0.00308413
0.00302245
0.00283833
0.00252842
0.00224261
0.00233471
0.00283949
0.00288269
0.00282486
0.00278523
0.00278195
0.00278971
0.0028254
0.00285046
0.00284926
0.00281783
0.00275568
0.00264562
0.00242296
0.00209351
0.00167575
0.0012788
0.000988231
0.000817659
0.000759736
0.00114186
0.000913239
0.00292528
0.00893349
0.00534504
0.00249999
0.0020342
0.00235545
0.00271352
0.00295586
0.00308718
0.00292664
0.00295436
0.00301984
0.00308079
0.00311723
0.00309189
0.00293216
0.0025658
0.00209966
0.00211453
0.00282723
0.00288395
0.00279255
0.0027342
0.0027321
0.00276121
0.00279748
0.0028199
0.0028226
0.00281074
0.00279152
0.00277033
0.00265488
0.00238944
0.00200831
0.00163487
0.00128807
0.00108517
0.00106357
0.00116291
0.00101478
0.00303995
0.00927733
0.00719845
0.00518038
0.0035512
0.00269156
0.00250342
0.00267159
0.00292939
0.00296033
0.00297791
0.00301348
0.00305704
0.00308746
0.00307182
0.00295411
0.00261907
0.00203914
0.00191484
0.00284287
0.00295069
0.0028332
0.00274855
0.00271635
0.00270597
0.00269646
0.00268142
0.0026657
0.00266178
0.00268452
0.00274513
0.00281727
0.00267713
0.00235415
0.00209109
0.00201127
0.00221521
0.00290488
0.00395508
0.00161399
0.00299582
0.00367708
0.00410203
0.00416129
0.00389239
0.00348272
0.00314823
0.00296299
0.00290219
0.00288611
0.00291177
0.00295802
0.00300205
0.00302122
0.00299163
0.00287519
0.00255721
0.00195196
0.00173686
0.00285271
0.00306539
0.00292272
0.00280556
0.00273124
0.00266446
0.00258995
0.00250703
0.00242144
0.0023405
0.00226907
0.0022074
0.00215265
0.00210572
0.00208419
0.00212275
0.00220813
0.0022634
0.00221114
0.00206947
0.00148409
0.00222402
0.00347087
0.00374276
0.00365024
0.00347909
0.00333057
0.00322986
0.00315761
0.00310578
0.00305949
0.00300282
0.00292296
0.0028101
0.00264306
0.00231298
0.00171391
0.0015351
0.00286962
0.00321121
0.00304121
0.00291349
0.00282536
0.00272914
0.00261798
0.00249892
0.00238129
0.00227538
0.00219243
0.00214412
0.00213697
0.00215676
0.0021962
0.00224707
0.00227656
0.00223155
0.00208424
0.0018417
0.00120601
0.00233976
0.0039768
0.00414235
0.00397664
0.00379581
0.00361475
0.00344431
0.00328388
0.00308728
0.00286209
0.00262637
0.00239195
0.00216608
0.00194557
0.00168591
0.00130638
0.00129062
0.0025382
0.00279348
0.00267122
0.00258501
0.00251894
0.00244503
0.00237195
0.00231368
0.00227808
0.00226519
0.00226756
0.00227405
0.00230998
0.00237064
0.00244712
0.00252498
0.00259177
0.00260667
0.00264448
0.00232781
0.00122063
0.00206755
0.00216376
0.00224888
0.0023809
0.00223354
0.00202761
0.00188693
0.00175907
0.00164082
0.00153069
0.00143412
0.00134713
0.0012649
0.00118484
0.00110573
0.00102729
0.000949281
0.00086845
0.000761785
0.000785413
0.000792839
0.000789755
0.000789814
0.00079357
0.00080097
0.000812716
0.000829307
0.000851039
0.000878372
0.000912403
0.000955061
0.00100402
0.00106002
0.00112301
0.00119294
0.00128586
0.00131903
0.00129239
0.00120797
0.00111708
)
;

boundaryField
{
    floor
    {
        type            nutkWallFunction;
        Cmu             0.09;
        kappa           0.41;
        E               9.8;
        value           nonuniform List<scalar> 
29
(
0.00010085
8.18585e-05
7.69107e-05
7.3058e-05
7.0337e-05
6.82119e-05
6.61036e-05
6.36126e-05
6.11862e-05
5.88345e-05
5.6554e-05
5.43498e-05
5.22226e-05
5.01652e-05
4.81563e-05
4.61514e-05
4.40767e-05
4.17869e-05
3.99911e-05
3.60889e-05
3.60888e-05
4.73323e-05
5.57265e-05
6.23575e-05
0.00010085
8.18585e-05
9.48604e-05
0.000106285
0.000114309
)
;
    }
    ceiling
    {
        type            nutkWallFunction;
        Cmu             0.09;
        kappa           0.41;
        E               9.8;
        value           nonuniform List<scalar> 
43
(
0.000240611
0.000251017
0.000260185
0.000274418
0.000258643
0.000236381
0.000221026
0.000206962
0.000193853
0.000181553
0.000170685
0.000160828
0.000151443
0.000142241
0.000133079
0.00012392
0.000114732
0.00010512
9.22736e-05
9.51339e-05
9.60331e-05
9.56605e-05
9.56676e-05
9.61213e-05
9.70148e-05
9.8431e-05
0.000100428
0.000103036
0.000106306
0.00011036
0.000115418
0.000121191
0.000127756
0.000135092
0.000143182
0.00015385
0.000157638
0.000154598
0.000144914
0.000134404
0.000339637
0.000410035
0.000269866
)
;
    }
    sWall
    {
        type            nutkWallFunction;
        Cmu             0.09;
        kappa           0.41;
        E               9.8;
        value           uniform 0.000240676;
    }
    nWall
    {
        type            nutkWallFunction;
        Cmu             0.09;
        kappa           0.41;
        E               9.8;
        value           nonuniform List<scalar> 6(0.000105868 0.000110462 0.000122461 0.0001447 0.000146383 0.000134413);
    }
    sideWalls
    {
        type            empty;
    }
    glass1
    {
        type            nutkWallFunction;
        Cmu             0.09;
        kappa           0.41;
        E               9.8;
        value           nonuniform List<scalar> 9(8.57673e-05 0.000130176 0.000169784 0.000210077 0.000250599 0.00029115 0.000332667 0.000344679 0.000340081);
    }
    glass2
    {
        type            nutkWallFunction;
        Cmu             0.09;
        kappa           0.41;
        E               9.8;
        value           nonuniform List<scalar> 2(0.000190979 0.000176419);
    }
    sun
    {
        type            nutkWallFunction;
        Cmu             0.09;
        kappa           0.41;
        E               9.8;
        value           nonuniform List<scalar> 
14
(
8.58023e-05
8.92761e-05
8.80561e-05
9.08187e-05
9.31118e-05
9.49858e-05
9.65363e-05
9.78566e-05
9.90379e-05
0.000100184
0.000101027
0.000101459
0.000101476
0.000101253
)
;
    }
    heatsource1
    {
        type            nutkWallFunction;
        Cmu             0.09;
        kappa           0.41;
        E               9.8;
        value           nonuniform List<scalar> 3(8.01433e-05 9.53049e-05 0.000105864);
    }
    heatsource2
    {
        type            nutkWallFunction;
        Cmu             0.09;
        kappa           0.41;
        E               9.8;
        value           nonuniform List<scalar> 4(0.000103281 9.75313e-05 9.75313e-05 0.0001121);
    }
    Table_master
    {
        type            nutkWallFunction;
        Cmu             0.09;
        kappa           0.41;
        E               9.8;
        value           nonuniform List<scalar> 9(7.84884e-05 6.92475e-05 6.23019e-05 5.69672e-05 5.27639e-05 4.93713e-05 4.65984e-05 4.43749e-05 4.28051e-05);
    }
    Table_slave
    {
        type            nutkWallFunction;
        Cmu             0.09;
        kappa           0.41;
        E               9.8;
        value           nonuniform List<scalar> 9(7.97038e-05 7.52164e-05 7.34058e-05 7.23886e-05 7.116e-05 6.91156e-05 6.65308e-05 6.36985e-05 6.01543e-05);
    }
    inlet
    {
        type            calculated;
        value           uniform 0.000100623;
    }
    outlet
    {
        type            calculated;
        value           nonuniform List<scalar> 2(0.00206755 0.00216376);
    }
}


// ************************************************************************* //
