/*--------------------------------*- C++ -*----------------------------------*\
  =========                 |
  \\      /  F ield         | OpenFOAM: The Open Source CFD Toolbox
   \\    /   O peration     | Website:  https://openfoam.org
    \\  /    A nd           | Version:  6
     \\/     M anipulation  |
\*---------------------------------------------------------------------------*/
FoamFile
{
    version     2.0;
    format      ascii;
    class       surfaceScalarField;
    location    "400";
    object      phi;
}
// * * * * * * * * * * * * * * * * * * * * * * * * * * * * * * * * * * * * * //

dimensions      [1 0 -1 0 0 0 0];

internalField   nonuniform List<scalar> 
852
(
-0.00275757
0.00282419
-0.00329646
0.000538926
-0.00392056
0.000624129
-0.00451096
0.000590436
-0.00502524
0.000514317
-0.00544367
0.00041846
-0.00574841
0.000304779
-0.00591854
0.000170166
-0.0059291
1.0593e-05
-0.00574863
-0.000180443
-0.00534922
-0.000399374
-0.00471275
-0.000636435
-0.00379472
-0.000917994
-0.00238955
-0.00140514
-0.00238675
0.00106134
-0.00105806
0.00160033
-0.000538938
0.00184996
-0.000249596
0.00200287
-0.000152859
0.00211557
-0.000112661
0.00218402
-6.84041e-05
0.00219067
-6.61028e-06
0.00216304
2.76725e-05
0.00212577
3.73149e-05
0.00208648
3.93349e-05
0.00204598
4.05417e-05
0.00200318
4.28418e-05
0.00195391
4.93143e-05
0.00188692
6.70371e-05
0.00177588
0.000111084
0.00157754
0.00019839
0.00127588
0.000301705
0.000904801
0.000371122
0.000910225
-0.0020112
0.00501295
-0.00278078
0.00130854
-0.00353058
0.00137396
-0.00415508
0.00121497
-0.00468323
0.00104251
-0.00511398
0.000849242
-0.00543549
0.000626325
-0.00563013
0.000364839
-0.00567683
5.73282e-05
-0.00555953
-0.000297703
-0.00526609
-0.000692788
-0.00478631
-0.00111618
-0.00411959
-0.00158468
-0.00340968
-0.00211502
-0.00335839
-0.00243801
-0.00134782
-0.00201058
-0.00134784
0.000734876
-0.0017841
0.00102969
-0.000833714
0.00122343
-0.000443287
0.00138671
-0.000316097
0.00152667
-0.000252581
0.001636
-0.000177683
0.00166191
-3.24829e-05
0.0016709
1.87271e-05
0.00167816
3.01076e-05
0.00168438
3.31506e-05
0.00168941
3.55631e-05
0.00169326
3.90357e-05
0.00169517
4.74501e-05
0.00169108
7.1168e-05
0.00164922
0.000152991
0.00145937
0.000388288
0.00113138
0.000629742
0.00073084
0.000771706
0.00165516
-0.00147852
0.00675904
-0.00229419
0.00212425
-0.00301498
0.00209479
-0.00358336
0.00178338
-0.00406861
0.0015278
-0.00447258
0.00125325
-0.00478427
0.000938054
-0.00498685
0.000567451
-0.00506065
0.000131166
-0.00498746
-0.00037086
-0.00475974
-0.000920472
-0.00438889
-0.00148698
-0.00392557
-0.00204796
-0.00348817
-0.00255239
-0.00307026
-0.00285588
-0.00207339
-0.00300742
-0.0034212
-2.42985e-07
-0.00177032
0.00030736
-0.00114127
0.000608168
-0.000744052
0.000840985
-0.000548869
0.00103295
-0.000444504
0.00122833
-0.000373018
0.00119605
0.00121497
0.00124528
0.00127863
0.00131439
0.00135363
0.00140128
0.00147265
0.00162584
0.00134935
0.000664821
0.00100574
0.000973406
0.000587161
0.00119033
0.0022637
-0.00110072
0.00820025
-0.0018906
0.00291416
-0.00242669
0.00263091
-0.00286443
0.00222116
-0.00325848
0.00192189
-0.0036009
0.0015957
-0.00387946
0.00121666
-0.00407738
0.000765408
-0.00417038
0.000224204
-0.00413102
-0.000410187
-0.00395898
-0.00109247
-0.0036938
-0.00175213
-0.00340469
-0.00233704
-0.00315435
-0.0028027
-0.00289731
-0.00311288
-0.00262352
-0.00328119
-0.00304372
-0.00300096
-0.000841624
-0.0021869
-0.000458405
-0.0021535
-9.5885e-05
-0.00150375
0.000217398
-0.00105729
0.000462261
-0.000793688
0.000655349
-0.000637547
0.000782308
-0.000499932
0.00112066
-0.000338457
0.00141042
-0.000289875
0.00167041
-0.000260097
0.00189011
-0.000219813
0.00204499
-0.000154981
0.00210168
-5.68008e-05
0.00203021
7.13587e-05
0.00180504
0.000225056
0.00137731
0.00042763
0.00119981
0.000842362
0.000845447
0.00132781
0.000323577
0.00171224
0.00261519
-0.000807092
0.00940759
-0.00154155
0.00364865
-0.00178007
0.00286947
-0.00205173
0.00249286
-0.00232057
0.00219076
-0.00256145
0.00183661
-0.00276403
0.00141927
-0.00291726
0.000918684
-0.00299987
0.000306849
-0.00296328
-0.000446739
-0.00281508
-0.00124063
-0.00261684
-0.00195033
-0.00242848
-0.00252536
-0.00227792
-0.00295323
-0.00215038
-0.0032404
-0.00205742
-0.00337411
-0.00181186
-0.00324649
-0.00100616
-0.00299256
-0.000543779
-0.00261584
-0.000255676
-0.00179181
-1.61316e-05
-0.00129679
0.000193399
-0.00100317
0.000378344
-0.000822448
0.00056873
-0.000690274
0.000820776
-0.000590459
0.0010631
-0.000532156
0.00128919
-0.000486144
0.00149175
-0.000422325
0.00165315
-0.000316335
0.00174425
-0.000147856
0.00173381
8.18452e-05
0.00161409
0.000344814
0.0014024
0.000639373
0.00120375
0.00104105
0.000979679
0.00155193
0.000501272
0.0021907
0.000284658
0.00283186
-0.0012662
0.0015507
-0.00171603
0.000449673
-0.00165853
-0.000694986
0.0105528
-0.00132566
0.00427936
-0.00110692
0.00265077
-0.00117494
0.00256092
-0.00131666
0.00233252
-0.00143501
0.001955
-0.00152137
0.00150567
-0.00157917
0.000976524
-0.00160638
0.000334103
-0.00152883
-0.000524257
-0.00139229
-0.00137713
-0.00126324
-0.00207935
-0.00118066
-0.00260791
-0.00115583
-0.00297802
-0.00117837
-0.00321783
-0.00121296
-0.00333949
-0.00110627
-0.00335316
-0.000761929
-0.00333687
-0.000449578
-0.00292815
-0.000290823
-0.00195052
-0.000167827
-0.00141974
-4.30158e-05
-0.00112794
8.64836e-05
-0.000951903
0.00023306
-0.000836806
0.000403324
-0.000760678
0.000582879
-0.000711667
0.000764361
-0.000667581
0.000943932
-0.000601852
0.00111401
-0.000486364
0.00125794
-0.000291745
0.00133669
3.13694e-06
0.00133791
0.000343637
0.00129344
0.000683886
0.00126884
0.0010657
0.00132887
0.00149195
0.00147441
0.00204521
0.00198049
0.00232582
0.00224517
0.00128607
0.00185892
0.000835965
0.000269303
-0.000998482
0.0120437
-0.00107657
0.00435748
-0.000255558
0.00182979
-0.000115854
0.00242125
-0.000195573
0.00241227
-0.000234543
0.001994
-0.000197312
0.00146847
-0.000115798
0.000895048
2.20587e-05
0.000196285
0.000178806
-0.000680966
0.000285555
-0.00148385
0.000309546
-0.0021033
0.000245786
-0.00254412
0.000105088
-0.0028373
-9.15631e-05
-0.00302115
-0.000299923
-0.00313111
-0.000434031
-0.00321903
-0.000394039
-0.00337683
-0.000277946
-0.00304419
-0.000278052
-0.00195037
-0.000288871
-0.00140888
-0.000278643
-0.00113812
-0.000248071
-0.00098243
-0.00019645
-0.000888382
-0.000123766
-0.000833317
-3.36579e-05
-0.000801731
7.16703e-05
-0.000772865
0.000193224
-0.000723362
0.000335049
-0.000628146
0.000499399
-0.000456052
0.00067565
-0.000173071
0.000835228
0.000184103
0.00097351
0.000545648
0.00115158
0.000887675
0.00144503
0.00119855
0.00192877
0.00156151
0.00270666
0.00154798
0.00332745
0.000665318
0.00345687
0.000706593
0.0038019
0.00221754
0.0103723
0.0026417
0.00393334
0.00231431
0.00215722
0.0020359
0.00269969
0.00174075
0.00270745
0.00159873
0.00213606
0.00163611
0.00143113
0.00179852
0.000732674
0.0020659
-7.10519e-05
0.00224154
-0.000856569
0.00223142
-0.00147369
0.00206131
-0.00193317
0.0017749
-0.00225768
0.00141046
-0.00247283
0.00099995
-0.00261061
0.000580193
-0.00271133
0.000208813
-0.00284763
-8.64427e-06
-0.00315935
-8.49451e-05
-0.00296785
-0.000257238
-0.00177803
-0.000420172
-0.0012459
-0.000537208
-0.00102104
-0.000621439
-0.000898154
-0.000683098
-0.000826679
-0.000727252
-0.000789118
-0.00075777
-0.000771168
-0.000774654
-0.000755937
-0.000772826
-0.000725146
-0.000740076
-0.000660852
-0.0006498
-0.000546285
-0.000459152
-0.000363676
-0.000194151
-8.08552e-05
9.06365e-05
0.000260904
0.000408782
0.000569574
0.000782238
0.000825134
0.00128365
0.00106014
0.00182163
0.00101005
0.00193444
0.000552553
0.000987076
0.001654
0.00510327
0.0109726
0.0149018
0.0119001
0.00515893
0.00973773
0.00486207
0.00802485
0.00442036
0.00688598
0.00327497
0.00619468
0.00212246
0.00579251
0.00113488
0.00541593
0.000305568
0.0049461
-0.000386704
0.00441412
-0.000941676
0.00383658
-0.00135559
0.00322235
-0.00164342
0.00258256
-0.00183301
0.00193061
-0.00195864
0.00128692
-0.00206761
0.000702863
-0.00226355
0.000319258
-0.00277573
0.000105841
-0.00275438
-0.000268987
-0.00140316
-0.000590006
-0.000924836
-0.000823637
-0.000787369
-0.00101408
-0.000707661
-0.00118796
-0.000652756
-0.00135638
-0.000620658
-0.00152599
-0.000601514
-0.001701
-0.000580878
-0.00188469
-0.000541414
-0.00208168
-0.000463817
-0.00229899
-0.000328932
-0.00254449
-0.000118135
-0.00280695
0.000181655
-0.00311923
0.000573223
-0.00361353
0.00106392
-0.00442534
0.00163699
-0.00560499
0.00223983
-0.00724964
0.00265474
-0.00920355
0.00250651
-0.0085264
0.000976892
-0.00307266
0.00563661
0.00598652
0.00507551
0.00542319
0.00579943
0.00369646
0.00618363
0.0028908
0.00627707
0.00202904
0.00623935
0.00117263
0.00607688
0.000468069
0.00574953
-5.93344e-05
0.00526248
-0.000454592
0.00465888
-0.000751967
0.00397947
-0.000963987
0.00325476
-0.00110827
0.00250275
-0.00120661
0.00173204
-0.00129688
0.000981285
-0.00151278
0.000474449
-0.00226887
0.000154866
-0.00243474
-0.000434742
-0.000813501
-0.000861636
-0.000497897
-0.00114011
-0.000508854
-0.00137841
-0.000469313
-0.00161195
-0.00041917
-0.00185026
-0.000382305
-0.00209919
-0.000352538
-0.00235989
-0.00032013
-0.00262634
-0.000274921
-0.00288471
-0.000205409
-0.00311266
-0.000100931
-0.00327919
4.84337e-05
-0.00338931
0.000291825
-0.00346619
0.000650144
-0.00353821
0.00113599
-0.00362477
0.00172359
-0.00366809
0.00228319
-0.00356475
0.00255145
-0.00310644
0.00204825
-0.00174204
-0.000387458
-0.00472348
-0.000473604
0.0065028
0.00187796
0.00307165
0.00316797
0.00240647
0.00411922
0.00193958
0.0048504
0.00129789
0.00525903
0.000764021
0.00536924
0.000357878
0.00524172
6.82125e-05
0.00494388
-0.000156725
0.00451236
-0.000320426
0.00398385
-0.00043545
0.00338666
-0.000511064
0.00273673
-0.000556648
0.00203532
-0.000595439
0.00126881
-0.000746252
0.000415515
-0.00141555
-0.000422659
-0.0015965
-0.000982414
-0.0002537
-0.0013311
-0.000149169
-0.00158277
-0.000257134
-0.00179772
-0.000254324
-0.00199305
-0.000223787
-0.00217609
-0.000199225
-0.00235156
-0.00017702
-0.0025206
-0.000151046
-0.0026794
-0.000116078
-0.00281861
-6.61492e-05
-0.00292554
6.04208e-06
-0.00297378
9.67214e-05
-0.00291315
0.000231232
-0.00270734
0.000444382
-0.00232903
0.00075772
-0.00179273
0.00118734
-0.00109685
0.00158735
-1.2271e-05
0.00146691
0.0013477
0.000688313
0.00162263
-0.000662339
-0.00300048
-0.00937378
-0.0118503
-0.00530899
-0.00221383
0.000211746
0.00216763
0.00348133
0.00426125
0.00463546
0.00472067
0.00458164
0.0042796
0.00386328
0.00337218
0.00283641
0.00226288
0.00153971
0.0001484
-0.00142633
-0.00165979
-0.00178902
-0.00202627
-0.00226081
-0.00246496
-0.00264474
-0.00280258
-0.00293478
-0.00303241
-0.00308056
-0.00305706
-0.00294348
-0.00269604
-0.00223615
-0.00146365
-0.000262296
0.00133803
0.00281745
0.00351833
0.00286919
)
;

boundaryField
{
    floor
    {
        type            calculated;
        value           nonuniform List<scalar> 
29
(
0
0
0
0
0
0
0
0
0
0
0
0
0
0
0
0
0
0
0
0
-5.37795e-06
-1.40451e-05
-2.13316e-05
-2.78752e-05
-2.76541e-06
-3.2449e-06
-8.79222e-06
-1.34896e-05
-1.51682e-05
)
;
    }
    ceiling
    {
        type            calculated;
        value           nonuniform List<scalar> 
43
(
-4.08282e-05
-3.97332e-05
-3.85364e-05
-2.34887e-05
-1.90934e-05
-1.62804e-05
-1.57852e-05
-1.5874e-05
-1.63105e-05
-1.69755e-05
-1.76657e-05
-1.83639e-05
-1.91101e-05
-1.99327e-05
-2.08535e-05
-2.18888e-05
-2.30518e-05
-2.42066e-05
-2.16818e-05
-2.01927e-05
-1.98928e-05
-1.98337e-05
-1.97415e-05
-1.95966e-05
-1.93974e-05
-1.91343e-05
-1.88039e-05
-1.84082e-05
-1.79493e-05
-1.74225e-05
-1.68136e-05
-1.6161e-05
-1.54655e-05
-1.4735e-05
-1.39711e-05
-1.29339e-05
-1.24616e-05
-1.25277e-05
-1.31532e-05
-1.32799e-05
7.12507e-06
4.1626e-06
-4.26665e-05
)
;
    }
    sWall
    {
        type            calculated;
        value           uniform -0.000244451;
    }
    nWall
    {
        type            calculated;
        value           nonuniform List<scalar> 6(-5.76498e-05 -6.88683e-05 -7.56799e-05 -9.11799e-05 -0.000100329 -0.000117966);
    }
    sideWalls
    {
        type            empty;
        value           nonuniform 0();
    }
    glass1
    {
        type            calculated;
        value           nonuniform List<scalar> 9(-6.65919e-05 -0.000177529 -0.000267534 -0.000340458 -0.000400221 -0.000450161 -0.000492436 -0.000546078 -0.000607363);
    }
    glass2
    {
        type            calculated;
        value           nonuniform List<scalar> 2(-0.000314245 -0.000350431);
    }
    sun
    {
        type            calculated;
        value           uniform 0;
    }
    heatsource1
    {
        type            calculated;
        value           nonuniform List<scalar> 3(2.05489e-07 2.05354e-07 2.05365e-07);
    }
    heatsource2
    {
        type            calculated;
        value           nonuniform List<scalar> 4(5.11564e-08 5.13961e-08 0 0);
    }
    Table_master
    {
        type            calculated;
        value           nonuniform List<scalar> 9(-1.54195e-07 -1.54254e-07 -1.54263e-07 -1.54268e-07 -1.54271e-07 -1.54272e-07 -1.54268e-07 -1.54256e-07 -1.54213e-07);
    }
    Table_slave
    {
        type            calculated;
        value           nonuniform List<scalar> 9(1.54192e-07 1.5414e-07 1.5406e-07 1.53992e-07 1.53948e-07 1.53937e-07 1.53949e-07 1.53987e-07 1.54078e-07);
    }
    inlet
    {
        type            calculated;
        value           uniform -0.00646419;
    }
    outlet
    {
        type            calculated;
        value           nonuniform List<scalar> 2(0.00965907 0.00251631);
    }
}


// ************************************************************************* //
