// -*- C++ -*-
// File generated by PyFoam - sorry for the ugliness

FoamFile
{
 version 2.0;
 format ascii;
 class volScalarField;
 location "400";
 object T;
}

dimensions [ 0 0 0 1 0 0 0 ];

internalField nonuniform List<scalar> 459
(
  302.681
  302.36
  302.35
  302.349
  302.349
  302.348
  302.347
  302.346
  302.344
  302.343
  302.34
  302.336
  302.33
  302.322
  302.315
  302.291
  302.283
  302.279
  302.276
  302.272
  302.269
  302.267
  302.265
  302.262
  302.26
  302.257
  302.254
  302.251
  302.248
  302.245
  302.242
  302.239
  302.235
  302.245
  302.917
  302.385
  302.363
  302.367
  302.371
  302.375
  302.378
  302.38
  302.381
  302.381
  302.377
  302.367
  302.352
  302.331
  302.307
  302.288
  302.274
  302.279
  302.269
  302.262
  302.256
  302.251
  302.246
  302.241
  302.235
  302.229
  302.223
  302.218
  302.212
  302.206
  302.201
  302.197
  302.195
  302.195
  302.196
  302.224
  303.15
  302.428
  302.386
  302.398
  302.411
  302.424
  302.436
  302.445
  302.451
  302.453
  302.447
  302.432
  302.405
  302.37
  302.331
  302.299
  302.278
  302.276
  302.271
  302.267
  302.262
  302.257
  302.251
  302.242
  302.231
  302.221
  302.211
  302.202
  302.194
  302.186
  302.178
  302.172
  302.171
  302.172
  302.175
  302.213
  303.371
  302.487
  302.412
  302.428
  302.452
  302.476
  302.499
  302.518
  302.532
  302.538
  302.533
  302.512
  302.473
  302.422
  302.365
  302.314
  302.279
  302.269
  302.273
  302.279
  302.279
  302.274
  302.269
  302.265
  302.26
  302.256
  302.253
  302.249
  302.245
  302.24
  302.235
  302.229
  302.221
  302.197
  302.179
  302.171
  302.209
  303.577
  302.563
  302.438
  302.452
  302.484
  302.517
  302.551
  302.583
  302.608
  302.622
  302.621
  302.597
  302.551
  302.486
  302.411
  302.34
  302.287
  302.263
  302.274
  302.288
  302.29
  302.288
  302.284
  302.28
  302.277
  302.274
  302.271
  302.267
  302.262
  302.256
  302.248
  302.238
  302.227
  302.209
  302.187
  302.172
  302.197
  302.253
  302.282
  302.294
  303.755
  302.66
  302.482
  302.47
  302.501
  302.539
  302.579
  302.619
  302.656
  302.684
  302.692
  302.67
  302.619
  302.545
  302.458
  302.37
  302.298
  302.257
  302.275
  302.295
  302.301
  302.3
  302.298
  302.295
  302.293
  302.29
  302.287
  302.283
  302.277
  302.268
  302.257
  302.245
  302.232
  302.215
  302.194
  302.176
  302.186
  302.21
  302.219
  302.257
  303.886
  302.823
  302.619
  302.531
  302.526
  302.553
  302.588
  302.625
  302.664
  302.714
  302.734
  302.714
  302.661
  302.585
  302.492
  302.395
  302.308
  302.25
  302.274
  302.301
  302.31
  302.312
  302.311
  302.309
  302.308
  302.306
  302.303
  302.298
  302.291
  302.281
  302.267
  302.251
  302.235
  302.219
  302.2
  302.183
  302.182
  302.19
  302.198
  302.23
  304.116
  303.318
  303.079
  302.86
  302.726
  302.668
  302.658
  302.672
  302.702
  302.746
  302.756
  302.726
  302.665
  302.586
  302.496
  302.404
  302.313
  302.241
  302.273
  302.308
  302.319
  302.322
  302.323
  302.323
  302.323
  302.322
  302.319
  302.315
  302.309
  302.299
  302.286
  302.268
  302.25
  302.235
  302.222
  302.211
  302.213
  302.234
  302.265
  302.442
  304.434
  304.099
  303.816
  303.529
  303.287
  303.112
  302.998
  302.932
  302.898
  302.85
  302.784
  302.706
  302.623
  302.539
  302.455
  302.374
  302.294
  302.228
  302.274
  302.315
  302.329
  302.334
  302.336
  302.338
  302.339
  302.339
  302.339
  302.338
  302.335
  302.332
  302.331
  302.333
  302.34
  302.355
  302.382
  302.42
  302.47
  302.516
  302.545
  302.612
  298.144
  300.719
  301.922
  302.35
  302.512
  302.57
  302.581
  302.572
  302.545
  302.505
  302.459
  302.408
  302.356
  302.303
  302.248
  302.202
  302.282
  302.326
  302.34
  302.347
  302.35
  302.353
  302.356
  302.36
  302.363
  302.366
  302.37
  302.374
  302.379
  302.385
  302.394
  302.409
  302.432
  302.462
  302.494
  302.521
  302.533
  302.545
  298.489
  300.664
  301.495
  301.912
  302.118
  302.214
  302.252
  302.262
  302.264
  302.26
  302.25
  302.238
  302.223
  302.206
  302.185
  302.172
  302.303
  302.346
  302.356
  302.363
  302.367
  302.37
  302.374
  302.377
  302.381
  302.386
  302.39
  302.396
  302.401
  302.407
  302.415
  302.427
  302.443
  302.464
  302.486
  302.507
  302.497
  302.525
  299.653
  299.602
  299.598
  300.943
  301.477
  301.848
  301.961
  302.019
  302.05
  302.065
  302.077
  302.087
  302.096
  302.104
  302.112
  302.12
  302.127
  302.146
  302.343
  302.386
  302.392
  302.397
  302.4
  302.403
  302.406
  302.408
  302.411
  302.413
  302.415
  302.417
  302.42
  302.423
  302.427
  302.433
  302.441
  302.458
  302.47
  302.477
  302.477
  302.513
)
;

boundaryField
{
  floor
  {
    type wallHeatTransfer;
    Tinf uniform 305.2;
    alphaWall uniform 0.24;
    value nonuniform List<scalar> 29
(
  302.684
  302.723
  302.735
  302.747
  302.756
  302.763
  302.771
  302.782
  302.793
  302.804
  302.815
  302.826
  302.838
  302.849
  302.861
  302.874
  302.887
  302.904
  302.916
  302.961
  302.961
  302.848
  302.782
  302.741
  302.684
  302.723
  302.67
  302.636
  302.61
)
;
  }
  ceiling
  {
    type wallHeatTransfer;
    Tinf uniform 303.2;
    alphaWall uniform 0.24;
    value nonuniform List<scalar> 43
(
  299.875
  299.819
  299.81
  301.07
  301.579
  301.935
  302.045
  302.104
  302.138
  302.157
  302.172
  302.185
  302.199
  302.212
  302.225
  302.238
  302.252
  302.276
  302.46
  302.494
  302.499
  302.503
  302.506
  302.508
  302.51
  302.511
  302.512
  302.512
  302.512
  302.511
  302.51
  302.509
  302.51
  302.511
  302.515
  302.527
  302.536
  302.543
  302.547
  302.584
  304.376
  304.063
  298.756
)
;
  }
  sWall
  {
    type wallHeatTransfer;
    Tinf uniform 315.2;
    alphaWall uniform 0.36;
    value uniform 301.077;
  }
  nWall
  {
    type wallHeatTransfer;
    Tinf uniform 307.2;
    alphaWall uniform 0.36;
    value nonuniform List<scalar> 6
(
  303.15
  303.093
  303.011
  303.191
  303.168
  303.201
)
;
  }
  sideWalls
  {
    type empty;
  }
  glass1
  {
    type wallHeatTransfer;
    Tinf uniform 315.2;
    alphaWall uniform 4.3;
    value nonuniform List<scalar> 9
(
  312.132
  311.314
  310.746
  310.28
  309.898
  309.577
  309.283
  309.311
  309.516
)
;
  }
  glass2
  {
    type wallHeatTransfer;
    Tinf uniform 307.2;
    alphaWall uniform 4.3;
    value nonuniform List<scalar> 2
(
  305.304
  305.451
)
;
  }
  sun
  {
    type wallHeatTransfer;
    Tinf uniform 305.2;
    alphaWall uniform 0.24;
    value nonuniform List<scalar> 14
(
  303.043
  302.756
  302.752
  302.743
  302.735
  302.729
  302.723
  302.719
  302.714
  302.71
  302.705
  302.7
  302.695
  302.689
)
;
  }
  heatsource1
  {
    type fixedGradient;
    gradient uniform 0;
  }
  heatsource2
  {
    type fixedGradient;
    gradient uniform 0;
  }
  Table_master
  {
    type zeroGradient;
  }
  Table_slave
  {
    type zeroGradient;
  }
  inlet
  {
    type fixedValue;
    value uniform 293.15;
  }
  outlet
  {
    type zeroGradient;
  }
} 	// ************************************************************************* //

