/*--------------------------------*- C++ -*----------------------------------*\
  =========                 |
  \\      /  F ield         | OpenFOAM: The Open Source CFD Toolbox
   \\    /   O peration     | Website:  https://openfoam.org
    \\  /    A nd           | Version:  6
     \\/     M anipulation  |
\*---------------------------------------------------------------------------*/
FoamFile
{
    version     2.0;
    format      ascii;
    class       surfaceScalarField;
    location    "1000";
    object      phi;
}
// * * * * * * * * * * * * * * * * * * * * * * * * * * * * * * * * * * * * * //

dimensions      [1 0 -1 0 0 0 0];

internalField   nonuniform List<scalar> 
852
(
-0.00294767
0.00300519
-0.00396941
0.00102174
-0.00476703
0.000797622
-0.0053983
0.000631282
-0.00583065
0.000432346
-0.00603734
0.000206694
-0.00599082
-4.65168e-05
-0.00566593
-0.00032489
-0.00506901
-0.000596914
-0.00425373
-0.000815283
-0.00331034
-0.000943391
-0.00234528
-0.000965049
-0.00145496
-0.000890325
-0.000690098
-0.000764857
-0.000688451
-0.000756706
0.000759734
-0.000478655
-0.000278048
0.000121022
-0.000599674
0.000609142
-0.000488117
0.000940007
-0.000330861
0.00115073
-0.000210724
0.00126666
-0.000115924
0.00132317
-5.65062e-05
0.00135454
-3.13605e-05
0.00137362
-1.90807e-05
0.00138416
-1.05404e-05
0.00138756
-3.38952e-06
0.00138238
5.18419e-06
0.00136111
2.12747e-05
0.00130281
5.83e-05
0.00117255
0.000130269
0.000959141
0.000213411
0.00070473
0.000254415
0.000708803
-0.00211114
0.00527129
-0.00311972
0.00203032
-0.00394777
0.00162568
-0.00457432
0.00125783
-0.00500304
0.000861063
-0.0052171
0.000420758
-0.00518561
-7.80008e-05
-0.00488592
-0.00062458
-0.00433536
-0.00114747
-0.00359944
-0.0015512
-0.00276941
-0.00177343
-0.00193983
-0.00179462
-0.00119246
-0.00163769
-0.000615298
-0.00134202
-0.000356295
-0.000947452
4.51561e-05
-0.000401499
4.51078e-05
0.000306363
0.000462131
0.000710855
-0.000682537
0.000963864
-0.00085268
0.00117817
-0.000702419
0.0013455
-0.000498188
0.00144993
-0.00031515
0.00146704
-0.000133036
0.00147159
-6.10509e-05
0.00147715
-3.69119e-05
0.00148184
-2.37666e-05
0.00148499
-1.36905e-05
0.00148668
-5.07581e-06
0.00148623
5.64323e-06
0.0014804
2.7103e-05
0.00144152
9.7186e-05
0.00127504
0.000296753
0.000985095
0.000503364
0.000621983
0.000617531
0.00134107
-0.00148483
0.00699306
-0.00236107
0.00290657
-0.00310142
0.00236603
-0.00364266
0.00179907
-0.00402299
0.00124139
-0.00422203
0.000619807
-0.00418831
-0.000111725
-0.00388552
-0.000927369
-0.00335273
-0.00168026
-0.0026764
-0.00222753
-0.00194765
-0.00250218
-0.00124505
-0.00249722
-0.000623422
-0.00225932
-0.000132767
-0.00183267
0.000194807
-0.00127502
0.000375916
-0.000582605
0.000421026
0.00149868
-0.00102709
0.00171799
-0.000901849
0.00167787
-0.000812553
0.00166776
-0.000692307
0.00169082
-0.000521239
0.00172016
-0.000344496
0.00158728
0.00152639
0.00148964
0.00146603
0.00145249
0.00144758
0.00145338
0.00148064
0.00157798
0.00130618
0.000568559
0.000970925
0.000838623
0.000543689
0.00104477
0.00190029
-0.00104188
0.00834156
-0.00174328
0.00360796
-0.00224117
0.00286392
-0.00260459
0.0021625
-0.00286944
0.00150625
-0.00300767
0.00075804
-0.00292623
-0.000193166
-0.0025833
-0.00127029
-0.00206437
-0.00219919
-0.00147375
-0.00281815
-0.000887517
-0.00308842
-0.000356035
-0.0030287
0.000101646
-0.002717
0.000481204
-0.00221223
0.00081136
-0.00160518
0.00118838
-0.000959618
0.00201233
-0.000402927
0.00244882
-0.000428045
0.00207731
-0.00065558
0.00195462
-0.000779156
0.00184287
-0.000700797
0.00174308
-0.000592519
0.00168527
-0.000463419
0.00165036
-0.000309584
0.00178712
-0.000136907
0.00187635
-8.93829e-05
0.00195008
-7.38742e-05
0.00200859
-5.86589e-05
0.00203722
-2.87785e-05
0.00201384
2.32265e-05
0.00191299
0.000100702
0.00170151
0.00021134
0.00132471
0.000376646
0.00116407
0.000729207
0.000848277
0.00115442
0.000370274
0.00152278
0.0022908
-0.000729804
0.00943705
-0.00126779
0.00414595
-0.00139156
0.0029877
-0.00149148
0.00226242
-0.00156529
0.00158007
-0.00157091
0.000763665
-0.00135648
-0.00040759
-0.000949531
-0.00167725
-0.000481305
-0.00266741
-3.77924e-05
-0.00326166
0.000336103
-0.00346232
0.000628983
-0.00332158
0.00085259
-0.0029406
0.00104052
-0.00240016
0.00122376
-0.00178842
0.00145425
-0.0011901
0.00177468
-0.000723354
0.00190038
-0.000553746
0.00182414
-0.00057934
0.0016563
-0.000611312
0.00151166
-0.000556156
0.00139173
-0.00047258
0.00130915
-0.000380836
0.00127943
-0.000279855
0.0013325
-0.000189974
0.00139435
-0.000151233
0.00145987
-0.000139387
0.00152506
-0.000123843
0.00157894
-8.2656e-05
0.00160084
1.33057e-06
0.00156926
0.00013229
0.00147288
0.000307725
0.00131279
0.00053674
0.00116313
0.000878876
0.00099405
0.00132351
0.000630784
0.00188605
0.000515825
0.00240576
-0.00100103
0.00151666
-0.00146555
0.00046432
-0.00141679
-0.00063347
0.0104859
-0.00100852
0.00452101
-0.000620107
0.00259928
-0.000344487
0.0019868
-0.00015061
0.00138619
0.000111042
0.000502019
0.00054095
-0.000837495
0.0009769
-0.00211319
0.00131148
-0.003002
0.00151653
-0.00346672
0.00160385
-0.00354964
0.0016081
-0.00332584
0.00155625
-0.00288875
0.00148527
-0.00232918
0.00142864
-0.00173178
0.00141342
-0.00117488
0.00143668
-0.00074661
0.00140393
-0.000520997
0.00128115
-0.000456558
0.00110613
-0.000436289
0.000950192
-0.000400215
0.000831406
-0.00035379
0.000756563
-0.000305988
0.000734723
-0.00025801
0.000765896
-0.000221142
0.000824922
-0.000210253
0.000898537
-0.000212996
0.000981095
-0.000206395
0.00106649
-0.000168046
0.00114329
-7.54592e-05
0.00119298
8.26036e-05
0.00121045
0.000290268
0.00120511
0.000542086
0.00122232
0.000861672
0.00130863
0.00123721
0.00147985
0.00171484
0.00191367
0.00197195
0.00216835
0.00126198
0.00177526
0.000857413
0.000417081
-0.000732382
0.011678
-0.000628698
0.00441733
0.000429904
0.00154069
0.00105975
0.00135696
0.00153939
0.00090656
0.00213705
-9.56405e-05
0.00272395
-0.00142439
0.00307236
-0.0024616
0.0031719
-0.00310154
0.00306299
-0.00335781
0.00280229
-0.00328895
0.00245217
-0.00297572
0.00206553
-0.00250212
0.00168982
-0.00195346
0.00136066
-0.00140262
0.0010973
-0.00091151
0.000902604
-0.000551914
0.000737463
-0.000355852
0.000568779
-0.00028787
0.000404472
-0.000271977
0.000268413
-0.000264151
0.000170813
-0.000256186
0.000113982
-0.000249152
0.000100033
-0.000244055
0.000124855
-0.000245958
0.000174435
-0.000259826
0.000238807
-0.000277362
0.000316618
-0.000284199
0.000412129
-0.00026355
0.00053031
-0.000193632
0.000658876
-4.59554e-05
0.00078639
0.00016276
0.000923107
0.000405375
0.00110834
0.000676448
0.00138893
0.000956623
0.00183107
0.0012727
0.00249858
0.00130444
0.00303976
0.000720803
0.0030616
0.000835589
0.00354209
0.00257841
0.00961295
0.00323948
0.00375626
0.00337122
0.00140895
0.0037662
0.000961991
0.00438349
0.000289277
0.00507328
-0.000785427
0.00540111
-0.00175222
0.00534401
-0.0024045
0.00496932
-0.00272686
0.00437096
-0.00275945
0.00364581
-0.00256381
0.00288008
-0.00220999
0.00213473
-0.00175676
0.00146124
-0.00127996
0.000894656
-0.000836038
0.000449345
-0.000466195
0.000138435
-0.000241
-7.30169e-05
-0.000144396
-0.000230841
-0.000130041
-0.000357172
-0.000145641
-0.00045586
-0.000165457
-0.00052747
-0.00018457
-0.000573356
-0.00020326
-0.000594806
-0.000222598
-0.000596089
-0.000244668
-0.000585776
-0.000270133
-0.00056922
-0.00029391
-0.000545439
-0.000307973
-0.000506044
-0.000302938
-0.000431961
-0.000267708
-0.000292146
-0.000185764
-0.000103539
-2.5839e-05
0.000115611
0.000186233
0.000388257
0.000403808
0.000726339
0.000618548
0.00117222
0.00082683
0.00165659
0.000820077
0.00185475
0.000522647
0.00109478
0.00159557
0.00489729
0.0101762
0.0139251
0.0121873
0.00314673
0.0111997
0.00194963
0.0104613
0.00102771
0.00964414
3.16965e-05
0.00857203
-0.000680123
0.00734258
-0.00117506
0.00604994
-0.00143423
0.0047566
-0.00146612
0.00352115
-0.00132836
0.00239661
-0.00108546
0.001399
-0.000759143
0.000557213
-0.000438172
-9.33607e-05
-0.000185458
-0.000524419
-3.51318e-05
-0.000769157
3.74395e-06
-0.000912703
-8.45408e-07
-0.00101597
-2.67663e-05
-0.00110267
-5.89379e-05
-0.00117796
-9.016e-05
-0.00124396
-0.000118559
-0.00130257
-0.000144646
-0.00135595
-0.000169215
-0.00140849
-0.000192113
-0.00146718
-0.000211443
-0.001539
-0.000222082
-0.00163108
-0.000215885
-0.0017524
-0.000181608
-0.00191466
-0.000105439
-0.00212566
2.52377e-05
-0.0023707
0.000219208
-0.00267567
0.000491215
-0.00312998
0.000858125
-0.00382871
0.00131729
-0.0048372
0.00183532
-0.00627014
0.00225302
-0.00799693
0.00224945
-0.00749515
0.0010938
-0.0023092
0.0051288
0.00463099
0.00420167
0.00287672
0.00468017
0.000549151
0.00476145
-4.96363e-05
0.00438999
-0.000308701
0.00374996
-0.000535059
0.00293516
-0.00061944
0.00202842
-0.000559376
0.00110938
-0.00040931
0.000233919
-0.000209983
-0.000524662
-5.50714e-07
-0.001073
0.00011017
-0.00139576
0.00013731
-0.00155689
0.000126004
-0.00164483
9.16943e-05
-0.0017021
5.6427e-05
-0.00175357
2.47107e-05
-0.00181019
-2.30917e-06
-0.0018737
-2.66451e-05
-0.00194331
-4.89355e-05
-0.00201965
-6.8302e-05
-0.00210329
-8.55632e-05
-0.00219597
-9.94289e-05
-0.00229976
-0.000107642
-0.00241559
-0.00010625
-0.00254205
-8.94179e-05
-0.00267424
-4.94111e-05
-0.00280296
2.32889e-05
-0.002916
0.000138281
-0.0030114
0.000314618
-0.0030983
0.000578118
-0.00318436
0.000944191
-0.00326822
0.00140116
-0.00330471
0.00187183
-0.00323642
0.00218473
-0.0028887
0.00190173
-0.00161137
-0.000183528
-0.00384482
-0.000465722
0.00515169
0.000885504
0.00152546
0.000953854
0.000480771
0.000784162
0.000120034
0.000510248
-3.47939e-05
5.15015e-05
-7.63051e-05
-0.000532099
-3.58189e-05
-0.00112589
3.44303e-05
-0.00163651
0.000101323
-0.00199772
0.000151231
-0.00217807
0.000179816
-0.00224434
0.000176446
-0.00226232
0.000155297
-0.00226267
0.000126362
-0.00226763
9.66533e-05
-0.00228214
7.09523e-05
-0.00230634
4.89168e-05
-0.00233839
2.97451e-05
-0.00237869
1.36602e-05
-0.00242687
-7.44356e-07
-0.0024823
-1.28695e-05
-0.00254464
-2.32166e-05
-0.00261275
-3.13075e-05
-0.00268434
-3.60432e-05
-0.00275516
-3.54243e-05
-0.0028182
-2.63667e-05
-0.00286284
-4.76909e-06
-0.00287682
3.72738e-05
-0.00284729
0.000108762
-0.00275109
0.000218423
-0.00255521
0.000382245
-0.00223211
0.000621096
-0.00176711
0.000936162
-0.0011379
0.00124262
-0.000163364
0.00121021
0.00115786
0.000580508
0.00158076
-0.000606418
-0.00218089
-0.00799383
-0.0108189
-0.00562333
-0.00407446
-0.00357858
-0.00344823
-0.00347596
-0.00354754
-0.00358047
-0.00354452
-0.00344275
-0.00329197
-0.00311339
-0.00293884
-0.00278597
-0.00266244
-0.00256893
-0.00250133
-0.00245591
-0.00242977
-0.00241976
-0.00242417
-0.00244069
-0.00246755
-0.00250245
-0.00254203
-0.00258093
-0.0026107
-0.00261879
-0.00258472
-0.00247907
-0.00226365
-0.00188432
-0.00126605
-0.000332656
0.000907192
0.00211452
0.00269199
0.0020823
)
;

boundaryField
{
    floor
    {
        type            calculated;
        value           nonuniform List<scalar> 
29
(
0
0
0
0
0
0
0
0
0
0
0
0
0
0
0
0
0
0
0
0
-4.06767e-06
-1.02789e-05
-1.55264e-05
-2.02278e-05
-1.64499e-06
-3.0245e-06
-8.75646e-06
-9.45142e-06
-8.44507e-06
)
;
    }
    ceiling
    {
        type            calculated;
        value           nonuniform List<scalar> 
43
(
-4.64146e-05
-4.5134e-05
-4.38558e-05
-2.34005e-05
-1.50927e-05
-1.03016e-05
-7.05947e-06
-4.71631e-06
-2.8697e-06
-1.5122e-06
-4.46646e-07
4.63017e-07
1.24718e-06
1.90299e-06
2.43285e-06
2.84002e-06
3.14323e-06
3.3616e-06
3.51088e-06
3.60472e-06
3.6556e-06
3.67404e-06
3.66633e-06
3.64148e-06
3.60191e-06
3.54918e-06
3.48439e-06
3.4082e-06
3.32064e-06
3.22044e-06
3.11559e-06
3.01236e-06
2.91575e-06
2.83277e-06
2.77623e-06
2.77915e-06
2.88392e-06
3.05243e-06
3.27109e-06
4.27181e-06
1.03904e-05
7.31012e-06
-5.5008e-05
)
;
    }
    sWall
    {
        type            calculated;
        value           uniform -0.000270004;
    }
    nWall
    {
        type            calculated;
        value           nonuniform List<scalar> 6(-4.89586e-05 -5.8603e-05 -6.34123e-05 -7.57459e-05 -8.31641e-05 -0.000102848);
    }
    sideWalls
    {
        type            empty;
        value           nonuniform 0();
    }
    glass1
    {
        type            calculated;
        value           nonuniform List<scalar> 9(-5.7524e-05 -0.000154949 -0.000236945 -0.000306626 -0.000365679 -0.000415387 -0.000459663 -0.000513405 -0.000573608);
    }
    glass2
    {
        type            calculated;
        value           nonuniform List<scalar> 2(-0.000260411 -0.000288654);
    }
    sun
    {
        type            calculated;
        value           uniform 0;
    }
    heatsource1
    {
        type            calculated;
        value           nonuniform List<scalar> 3(2.04221e-07 2.04165e-07 2.04181e-07);
    }
    heatsource2
    {
        type            calculated;
        value           nonuniform List<scalar> 4(5.11814e-08 5.12853e-08 0 0);
    }
    Table_master
    {
        type            calculated;
        value           nonuniform List<scalar> 9(-1.53161e-07 -1.53243e-07 -1.53273e-07 -1.53294e-07 -1.53309e-07 -1.53319e-07 -1.53324e-07 -1.53319e-07 -1.5329e-07);
    }
    Table_slave
    {
        type            calculated;
        value           nonuniform List<scalar> 9(1.53042e-07 1.53056e-07 1.53034e-07 1.53016e-07 1.53008e-07 1.53012e-07 1.53027e-07 1.53069e-07 1.5315e-07);
    }
    inlet
    {
        type            calculated;
        value           uniform -0.00661308;
    }
    outlet
    {
        type            calculated;
        value           nonuniform List<scalar> 2(0.00831025 0.00287018);
    }
}


// ************************************************************************* //
