// -*- C++ -*-
// File generated by PyFoam - sorry for the ugliness

FoamFile
{
 version 2.0;
 format ascii;
 class volScalarField;
 location "900";
 object T;
}

dimensions [ 0 0 0 1 0 0 0 ];

internalField nonuniform List<scalar> 459
(
  303.246
  302.985
  302.973
  302.97
  302.967
  302.964
  302.96
  302.954
  302.944
  302.933
  302.923
  302.917
  302.916
  302.922
  302.946
  303.048
  303.028
  303.022
  303.029
  303.037
  303.044
  303.05
  303.055
  303.06
  303.065
  303.071
  303.076
  303.081
  303.087
  303.092
  303.098
  303.105
  303.113
  303.137
  303.42
  303.025
  303.003
  303.007
  303.01
  303.01
  303.007
  302.995
  302.974
  302.948
  302.926
  302.912
  302.908
  302.91
  302.915
  302.911
  302.904
  303.05
  303.008
  303.007
  303.015
  303.027
  303.037
  303.041
  303.043
  303.046
  303.048
  303.051
  303.053
  303.056
  303.059
  303.063
  303.068
  303.076
  303.089
  303.123
  303.603
  303.075
  303.039
  303.052
  303.067
  303.077
  303.078
  303.059
  303.019
  302.972
  302.934
  302.911
  302.904
  302.908
  302.912
  302.912
  302.909
  303.007
  302.996
  303.001
  303.017
  303.037
  303.053
  303.053
  303.053
  303.053
  303.054
  303.055
  303.056
  303.058
  303.059
  303.061
  303.067
  303.073
  303.084
  303.119
  303.789
  303.137
  303.078
  303.099
  303.132
  303.159
  303.169
  303.139
  303.072
  302.997
  302.939
  302.907
  302.901
  302.907
  302.916
  302.921
  302.921
  302.931
  302.948
  302.975
  303.006
  303.038
  303.068
  303.093
  303.114
  303.132
  303.147
  303.161
  303.173
  303.184
  303.193
  303.2
  303.205
  303.162
  303.124
  303.104
  303.124
  303.973
  303.215
  303.12
  303.141
  303.191
  303.244
  303.263
  303.212
  303.112
  303.009
  302.937
  302.9
  302.895
  302.908
  302.926
  302.941
  302.951
  302.968
  302.993
  303.024
  303.06
  303.096
  303.129
  303.158
  303.184
  303.206
  303.225
  303.24
  303.251
  303.257
  303.259
  303.256
  303.247
  303.216
  303.17
  303.131
  303.128
  303.238
  303.291
  303.294
  304.139
  303.317
  303.188
  303.19
  303.245
  303.328
  303.33
  303.246
  303.121
  303.002
  302.92
  302.884
  302.887
  302.913
  302.946
  302.975
  303
  303.026
  303.059
  303.095
  303.133
  303.17
  303.202
  303.231
  303.255
  303.276
  303.293
  303.305
  303.313
  303.314
  303.309
  303.3
  303.284
  303.256
  303.212
  303.166
  303.145
  303.187
  303.211
  303.25
  304.293
  303.479
  303.345
  303.328
  303.365
  303.42
  303.367
  303.233
  303.077
  302.947
  302.872
  302.854
  302.879
  302.929
  302.984
  303.032
  303.072
  303.108
  303.145
  303.182
  303.217
  303.25
  303.279
  303.303
  303.323
  303.339
  303.352
  303.359
  303.362
  303.36
  303.35
  303.335
  303.316
  303.289
  303.251
  303.209
  303.182
  303.19
  303.203
  303.233
  304.514
  303.904
  303.75
  303.671
  303.652
  303.542
  303.344
  303.12
  302.934
  302.821
  302.789
  302.82
  302.888
  302.976
  303.058
  303.122
  303.172
  303.21
  303.242
  303.273
  303.302
  303.328
  303.35
  303.367
  303.38
  303.389
  303.395
  303.396
  303.394
  303.388
  303.378
  303.363
  303.345
  303.321
  303.293
  303.263
  303.248
  303.261
  303.279
  303.396
  304.83
  304.541
  304.283
  304.056
  303.791
  303.365
  302.977
  302.718
  302.606
  302.614
  302.705
  302.83
  302.959
  303.091
  303.185
  303.238
  303.274
  303.304
  303.331
  303.355
  303.375
  303.392
  303.406
  303.415
  303.421
  303.423
  303.422
  303.418
  303.412
  303.406
  303.4
  303.395
  303.393
  303.394
  303.403
  303.422
  303.451
  303.482
  303.502
  303.555
  296.674
  298.307
  299.21
  300.141
  300.941
  301.601
  302.119
  302.512
  302.834
  303.05
  303.17
  303.247
  303.298
  303.332
  303.359
  303.382
  303.402
  303.418
  303.431
  303.44
  303.445
  303.447
  303.447
  303.445
  303.442
  303.438
  303.435
  303.432
  303.43
  303.428
  303.43
  303.434
  303.445
  303.462
  303.485
  303.509
  303.534
  303.565
  297.089
  298.752
  299.951
  301.092
  301.907
  302.422
  302.766
  302.997
  303.15
  303.248
  303.312
  303.354
  303.384
  303.407
  303.426
  303.441
  303.453
  303.462
  303.467
  303.47
  303.47
  303.469
  303.467
  303.464
  303.461
  303.458
  303.456
  303.453
  303.451
  303.45
  303.45
  303.454
  303.46
  303.472
  303.487
  303.508
  303.513
  303.547
  299.569
  299.496
  299.49
  301.439
  302.363
  302.774
  302.99
  303.133
  303.236
  303.309
  303.36
  303.397
  303.422
  303.441
  303.454
  303.464
  303.472
  303.477
  303.48
  303.482
  303.482
  303.481
  303.479
  303.477
  303.475
  303.473
  303.471
  303.469
  303.467
  303.465
  303.464
  303.463
  303.462
  303.463
  303.466
  303.474
  303.483
  303.49
  303.495
  303.538
)
;

boundaryField
{
  floor
  {
    type wallHeatTransfer;
    Tinf uniform 305.2;
    alphaWall uniform 0.24;
    value nonuniform List<scalar> 29
(
  303.216
  303.445
  303.386
  303.348
  303.344
  303.354
  303.368
  303.388
  303.41
  303.432
  303.453
  303.474
  303.494
  303.513
  303.532
  303.55
  303.569
  303.59
  303.609
  303.655
  303.655
  303.574
  303.532
  303.51
  303.216
  303.445
  303.445
  303.285
  303.13
)
;
  }
  ceiling
  {
    type wallHeatTransfer;
    Tinf uniform 303.2;
    alphaWall uniform 0.24;
    value nonuniform List<scalar> 43
(
  299.824
  299.745
  299.733
  301.551
  302.42
  302.805
  303.006
  303.138
  303.233
  303.299
  303.345
  303.376
  303.397
  303.412
  303.422
  303.43
  303.435
  303.438
  303.44
  303.44
  303.439
  303.437
  303.435
  303.434
  303.432
  303.431
  303.43
  303.43
  303.43
  303.429
  303.43
  303.43
  303.431
  303.434
  303.437
  303.447
  303.455
  303.461
  303.464
  303.5
  304.755
  304.488
  297.47
)
;
  }
  sWall
  {
    type wallHeatTransfer;
    Tinf uniform 315.2;
    alphaWall uniform 0.36;
    value uniform 301.167;
  }
  nWall
  {
    type wallHeatTransfer;
    Tinf uniform 307.2;
    alphaWall uniform 0.36;
    value nonuniform List<scalar> 6
(
  304.012
  303.952
  303.863
  304.083
  304.06
  304.122
)
;
  }
  sideWalls
  {
    type empty;
  }
  glass1
  {
    type wallHeatTransfer;
    Tinf uniform 315.2;
    alphaWall uniform 4.3;
    value nonuniform List<scalar> 9
(
  311.336
  310.708
  310.316
  310.02
  309.775
  309.551
  309.382
  309.454
  309.683
)
;
  }
  glass2
  {
    type wallHeatTransfer;
    Tinf uniform 307.2;
    alphaWall uniform 4.3;
    value nonuniform List<scalar> 2
(
  305.731
  305.847
)
;
  }
  sun
  {
    type wallHeatTransfer;
    Tinf uniform 305.2;
    alphaWall uniform 0.24;
    value nonuniform List<scalar> 14
(
  303.446
  303.197
  303.182
  303.172
  303.163
  303.154
  303.144
  303.134
  303.122
  303.112
  303.106
  303.107
  303.118
  303.148
)
;
  }
  heatsource1
  {
    type fixedGradient;
    gradient uniform 0;
  }
  heatsource2
  {
    type fixedGradient;
    gradient uniform 0;
  }
  Table_master
  {
    type zeroGradient;
  }
  Table_slave
  {
    type zeroGradient;
  }
  inlet
  {
    type fixedValue;
    value uniform 293.15;
  }
  outlet
  {
    type zeroGradient;
  }
} 	// ************************************************************************* //

