/*--------------------------------*- C++ -*----------------------------------*\
  =========                 |
  \\      /  F ield         | OpenFOAM: The Open Source CFD Toolbox
   \\    /   O peration     | Website:  https://openfoam.org
    \\  /    A nd           | Version:  6
     \\/     M anipulation  |
\*---------------------------------------------------------------------------*/
FoamFile
{
    version     2.0;
    format      ascii;
    class       volScalarField;
    location    "1400";
    object      alphat;
}
// * * * * * * * * * * * * * * * * * * * * * * * * * * * * * * * * * * * * * //

dimensions      [1 -1 -1 0 0 0 0];

internalField   nonuniform List<scalar> 
459
(
0.00123204
0.00134392
0.00136897
0.00143409
0.00149438
0.00155118
0.0016075
0.0016617
0.00170005
0.00171535
0.00170059
0.00165073
0.00156356
0.00144191
0.00129946
0.000536948
0.000641516
0.000724162
0.000729868
0.000708707
0.000678522
0.000636944
0.000594614
0.000556086
0.000521941
0.000491758
0.000464994
0.000441214
0.000419935
0.000400391
0.000381619
0.000362288
0.000350533
0.000321115
0.00167841
0.00397418
0.00375878
0.00435972
0.00494724
0.00553746
0.0060531
0.00645174
0.0068233
0.00713376
0.00734018
0.00739725
0.00725013
0.00676922
0.00540873
0.00132197
0.000810657
0.000561217
0.00117628
0.00164474
0.00199892
0.00220777
0.00221962
0.00176039
0.00151486
0.00134046
0.0012072
0.00110175
0.00101618
0.000943168
0.000875071
0.000809076
0.00075056
0.000698624
0.000829878
0.000428789
0.00204957
0.00539079
0.00458062
0.00571457
0.00623245
0.00660813
0.00690133
0.00715701
0.00745538
0.00778035
0.008094
0.00833648
0.00845401
0.00836216
0.00780007
0.00599506
0.001355
0.00105937
0.00153619
0.00199524
0.00243997
0.0027711
0.00273941
0.000905684
0.00080168
0.000717166
0.000648529
0.000592398
0.00054608
0.00050758
0.000475603
0.000449583
0.000485558
0.000559955
0.000936292
0.00050142
0.0024062
0.00690259
0.00451796
0.00596919
0.00636332
0.00645538
0.0065292
0.00667062
0.00691923
0.00725583
0.00764653
0.00800563
0.00827573
0.00838472
0.00826931
0.00763351
0.00516332
0.00158726
0.00190305
0.00242516
0.0029944
0.00350102
0.00385197
0.00367263
0.00102488
0.000938553
0.000877266
0.000830796
0.00079109
0.000753665
0.000717571
0.000679383
0.000634746
0.000595899
0.000601355
0.00108764
0.000558765
0.0027697
0.00887648
0.00488341
0.00568554
0.00623137
0.00617294
0.00611284
0.00621689
0.00645136
0.0067945
0.0072271
0.00762339
0.00790265
0.00801198
0.00795093
0.00769316
0.00704275
0.00595928
0.00558927
0.00552708
0.00557959
0.00564507
0.00565713
0.00548688
0.00467571
0.0042853
0.00406033
0.00388519
0.00369763
0.00342783
0.00304976
0.00258281
0.00206038
0.00153916
0.00113531
0.00111443
0.000759637
0.000690727
0.000832356
0.000934497
0.00315564
0.0110404
0.00672461
0.00548187
0.00600803
0.00617794
0.0060071
0.00611054
0.00630746
0.00662734
0.00704562
0.0074584
0.00773716
0.00780204
0.0076665
0.00742747
0.00719713
0.00704792
0.00705563
0.00708954
0.00706445
0.00696852
0.00680432
0.00655761
0.00618302
0.00584647
0.00554806
0.00526218
0.00497264
0.00466413
0.00427016
0.00377051
0.00316373
0.00248656
0.001875
0.00137479
0.00105309
0.000899466
0.00128001
0.000977244
0.00351816
0.0126021
0.00965785
0.00695799
0.00647765
0.00652872
0.00637725
0.00629117
0.00638471
0.00668632
0.0071257
0.00755853
0.00782485
0.00783228
0.00761529
0.00734832
0.00726818
0.00745982
0.0077141
0.00780476
0.00769362
0.00743497
0.00707921
0.00666412
0.00622938
0.00583549
0.00548447
0.00516369
0.00486978
0.00460781
0.00437684
0.00405903
0.00359534
0.00301779
0.0024511
0.00192407
0.001552
0.00144224
0.00147629
0.0011177
0.00359458
0.0114343
0.00991638
0.00877526
0.00806649
0.00732586
0.00668812
0.00641175
0.00652154
0.00692498
0.00745471
0.00791044
0.00811414
0.00800031
0.00766964
0.00740068
0.00747413
0.00781003
0.00796335
0.0078084
0.00743088
0.00691949
0.00635367
0.00580855
0.00533975
0.0049614
0.00465359
0.00440063
0.00420064
0.00405987
0.00398688
0.00395686
0.00373438
0.00336734
0.00303593
0.00286692
0.00299195
0.00346382
0.00424423
0.00173558
0.0035047
0.00418997
0.00473844
0.00491678
0.00493881
0.00504401
0.00536132
0.00592225
0.00668045
0.00748885
0.00815648
0.00851438
0.00844819
0.00802077
0.00753484
0.00742727
0.00749445
0.00749772
0.00726459
0.00679457
0.00617954
0.00552467
0.00492556
0.004439
0.00407064
0.00379285
0.00357399
0.00339323
0.00323759
0.00309651
0.00296067
0.00282928
0.00272378
0.00264541
0.00261558
0.00262566
0.00260613
0.00249511
0.00232781
0.0016228
0.00217627
0.00384625
0.0052668
0.00644937
0.0074062
0.00826517
0.0089496
0.0093058
0.00927487
0.00887062
0.0081559
0.00731953
0.00679143
0.00660192
0.00640527
0.0060414
0.00551523
0.00490677
0.00430185
0.00378013
0.00338198
0.00309821
0.00289966
0.00275833
0.0026555
0.00258069
0.00252843
0.00249652
0.0024879
0.00250541
0.00253336
0.0025683
0.00260136
0.0026036
0.00252866
0.00236249
0.00212064
0.00133173
0.00252066
0.005354
0.00726461
0.00816513
0.00876001
0.00916256
0.00917331
0.00861277
0.00772509
0.00675753
0.00594058
0.00534703
0.00495432
0.00461141
0.00419685
0.00372946
0.00327176
0.00288082
0.00258544
0.0023795
0.00223999
0.00214867
0.00209911
0.00208125
0.0020888
0.00211764
0.00216402
0.00222289
0.00230069
0.00239429
0.00250078
0.00261277
0.00271263
0.00277959
0.00275877
0.00277743
0.00274163
0.00135381
0.00230406
0.00231417
0.00235775
0.00242863
0.00219118
0.00200305
0.00191087
0.00182402
0.00169878
0.00154624
0.00136959
0.00119317
0.00103644
0.000912329
0.000823111
0.000760981
0.000717197
0.0006867
0.000667331
0.00065796
0.000657318
0.000663933
0.000676666
0.000694891
0.000717291
0.000743783
0.000774496
0.000809786
0.000850341
0.000897452
0.000950433
0.00100943
0.00107518
0.00114833
0.00122872
0.00132578
0.00135624
0.00132178
0.00123818
0.00114903
)
;

boundaryField
{
    floor
    {
        type            compressible::alphatWallFunction;
        Prt             0.85;
        value           nonuniform List<scalar> 
29
(
0.00018381
7.48743e-05
9.05658e-05
0.000102745
0.00010358
0.000100481
9.60418e-05
8.9887e-05
8.357e-05
7.77723e-05
7.25923e-05
6.79783e-05
6.38568e-05
6.01698e-05
5.6849e-05
5.37802e-05
5.08142e-05
4.77401e-05
4.58605e-05
4.11201e-05
4.11196e-05
5.82336e-05
6.94594e-05
7.81776e-05
0.000183808
7.48734e-05
7.85467e-05
0.000150629
0.000222685
)
;
    }
    ceiling
    {
        type            compressible::alphatWallFunction;
        Prt             0.85;
        value           nonuniform List<scalar> 
43
(
0.00031643
0.000317613
0.000323192
0.000332364
0.000301958
0.000277601
0.000265579
0.00025419
0.000237653
0.000217323
0.000193494
0.000169345
0.000147545
0.000130011
0.000117233
0.000108239
0.000101847
9.73672e-05
9.45095e-05
9.31234e-05
9.30284e-05
9.40076e-05
9.58887e-05
9.85735e-05
0.000101862
0.000105735
0.000110204
0.000115314
0.000121153
0.000127894
0.000135426
0.000143756
0.000152971
0.00016315
0.000174249
0.000187541
0.00019169
0.000186996
0.000175551
0.000163251
0.000467146
0.0005505
0.000343841
)
;
    }
    sWall
    {
        type            compressible::alphatWallFunction;
        Prt             0.85;
        value           uniform 0.000315258;
    }
    nWall
    {
        type            compressible::alphatWallFunction;
        Prt             0.85;
        value           nonuniform List<scalar> 6(0.00013284 0.000138886 0.000158554 0.000188023 0.000191027 0.000162924);
    }
    sideWalls
    {
        type            empty;
    }
    glass1
    {
        type            compressible::alphatWallFunction;
        Prt             0.85;
        value           nonuniform List<scalar> 9(0.000170276 0.00022972 0.000277938 0.000323471 0.000369212 0.000417137 0.000461645 0.000471098 0.000460358);
    }
    glass2
    {
        type            compressible::alphatWallFunction;
        Prt             0.85;
        value           nonuniform List<scalar> 2(0.000240762 0.000225915);
    }
    sun
    {
        type            compressible::alphatWallFunction;
        Prt             0.85;
        value           nonuniform List<scalar> 
14
(
0.000174589
0.000189879
0.000193285
0.000202108
0.000210237
0.000217862
0.000225392
0.00023261
0.000237702
0.000239729
0.000237772
0.000231149
0.000219516
0.00020316
)
;
    }
    heatsource1
    {
        type            compressible::alphatWallFunction;
        Prt             0.85;
        value           nonuniform List<scalar> 3(9.79536e-05 0.00011856 0.000133158);
    }
    heatsource2
    {
        type            compressible::alphatWallFunction;
        Prt             0.85;
        value           nonuniform List<scalar> 4(0.000187013 0.000115432 0.00011543 0.00019151);
    }
    Table_master
    {
        type            compressible::alphatWallFunction;
        Prt             0.85;
        value           nonuniform List<scalar> 9(0.000129057 0.000114132 0.000101834 9.17167e-05 8.33458e-05 7.63644e-05 7.05052e-05 6.55963e-05 6.15711e-05);
    }
    Table_slave
    {
        type            compressible::alphatWallFunction;
        Prt             0.85;
        value           nonuniform List<scalar> 9(0.00014592 0.000133734 0.000125003 0.000118335 0.000112602 0.000107168 0.000101895 9.62822e-05 8.96719e-05);
    }
    inlet
    {
        type            fixedValue;
        value           uniform 1.94e-05;
    }
    outlet
    {
        type            zeroGradient;
    }
}


// ************************************************************************* //
