// -*- C++ -*-
// File generated by PyFoam - sorry for the ugliness

FoamFile
{
 version 2.0;
 format ascii;
 class volVectorField;
 location "1400";
 object U;
}

dimensions [ 0 1 -1 0 0 0 0 ];

internalField nonuniform List<vector> 459
(
  (0.0344719 0.0858265 0)
  (-0.166943 0.0254199 0)
  (-0.191585 0.0178663 0)
  (-0.222616 0.0122168 0)
  (-0.245161 0.00597971 0)
  (-0.25814 -0.000656238 0)
  (-0.259888 -0.00776346 0)
  (-0.249077 -0.0153716 0)
  (-0.226263 -0.0228226 0)
  (-0.193258 -0.0287981 0)
  (-0.15372 -0.0321963 0)
  (-0.112004 -0.0324691 0)
  (-0.0723295 -0.0297946 0)
  (-0.0399053 -0.0253549 0)
  (-0.028655 -0.0210005 0)
  (-0.00603183 0.00883403 0)
  (-0.0288808 -0.0167597 0)
  (-0.00710162 -0.0265695 0)
  (0.0163919 -0.0204604 0)
  (0.0319722 -0.0140528 0)
  (0.0447141 -0.00912733 0)
  (0.0527433 -0.00531964 0)
  (0.0569159 -0.0033196 0)
  (0.0587948 -0.002517 0)
  (0.0597234 -0.00217041 0)
  (0.0602988 -0.0019546 0)
  (0.0606196 -0.00177942 0)
  (0.0606272 -0.00156674 0)
  (0.0601355 -0.00115049 0)
  (0.0586188 -0.000164445 0)
  (0.0549474 0.00189934 0)
  (0.0478868 0.00408425 0)
  (0.0415306 0.00581827 0)
  (-0.0134392 0.0203318 0)
  (0.209229 0.175866 0)
  (-0.156269 0.0672461 0)
  (-0.154566 0.0530182 0)
  (-0.186755 0.0412982 0)
  (-0.209144 0.027993 0)
  (-0.222416 0.012989 0)
  (-0.224868 -0.00404821 0)
  (-0.214991 -0.0225816 0)
  (-0.193936 -0.0400682 0)
  (-0.163935 -0.0534161 0)
  (-0.128792 -0.0604784 0)
  (-0.0925762 -0.0605626 0)
  (-0.0588675 -0.0542705 0)
  (-0.0311701 -0.0432216 0)
  (-0.0134917 -0.0297904 0)
  (0.000472736 -0.0116911 0)
  (-0.000533703 0.0156059 0)
  (0.0615884 0.036206 0)
  (0.025059 -0.018042 0)
  (0.0335093 -0.0313131 0)
  (0.0446632 -0.027885 0)
  (0.0536255 -0.0200996 0)
  (0.0602108 -0.0126066 0)
  (0.0630777 -0.00536375 0)
  (0.0636305 -0.00120589 0)
  (0.0635796 0.000527622 0)
  (0.063687 0.00129284 0)
  (0.0638913 0.00176192 0)
  (0.0640407 0.00214947 0)
  (0.0640922 0.00262057 0)
  (0.064002 0.00348958 0)
  (0.0632646 0.00562179 0)
  (0.0595672 0.0115511 0)
  (0.0501852 0.0164908 0)
  (0.0457838 0.0197478 0)
  (-0.0497048 0.0441515 0)
  (0.369599 0.263224 0)
  (-0.17336 0.107197 0)
  (-0.116101 0.0858486 0)
  (-0.147536 0.0649029 0)
  (-0.16751 0.0429744 0)
  (-0.179931 0.0185933 0)
  (-0.182117 -0.00912957 0)
  (-0.171599 -0.0388306 0)
  (-0.150771 -0.0659757 0)
  (-0.122792 -0.085495 0)
  (-0.0916818 -0.0946441 0)
  (-0.0609926 -0.0932124 0)
  (-0.033039 -0.0826263 0)
  (-0.00998849 -0.0651111 0)
  (0.00728381 -0.0417961 0)
  (0.0186437 -0.0152801 0)
  (0.0231136 0.0219763 0)
  (0.110389 -0.0274873 0)
  (0.0744053 -0.0379349 0)
  (0.0689676 -0.0383652 0)
  (0.070531 -0.03287 0)
  (0.0719348 -0.024913 0)
  (0.0732803 -0.0179495 0)
  (0.07206 -0.0143493 0)
  (0.0674409 -0.0101356 0)
  (0.0640805 -0.00783242 0)
  (0.0625668 -0.0065119 0)
  (0.0619265 -0.00566223 0)
  (0.0616057 -0.00507221 0)
  (0.0615931 -0.00455004 0)
  (0.0623275 -0.00372974 0)
  (0.0649219 -0.00066561 0)
  (0.0629142 0.0161518 0)
  (0.0498622 0.0278359 0)
  (0.0521801 0.0356738 0)
  (-0.0816324 0.0689576 0)
  (0.514333 0.333519 0)
  (-0.208335 0.142664 0)
  (-0.0752156 0.113832 0)
  (-0.1054 0.0850458 0)
  (-0.119925 0.0569504 0)
  (-0.129183 0.0249983 0)
  (-0.128533 -0.0132265 0)
  (-0.114969 -0.0547061 0)
  (-0.0936655 -0.0908189 0)
  (-0.0686394 -0.114878 0)
  (-0.0433303 -0.124591 0)
  (-0.0202586 -0.121022 0)
  (0.000295883 -0.106393 0)
  (0.017309 -0.0839387 0)
  (0.0316622 -0.0572971 0)
  (0.0469653 -0.0282737 0)
  (0.0686799 0.0034056 0)
  (0.0994183 0.0153888 0)
  (0.104768 -0.0233447 0)
  (0.0911501 -0.033726 0)
  (0.0822671 -0.0328047 0)
  (0.0773155 -0.0285969 0)
  (0.0736327 -0.022513 0)
  (0.07119 -0.0148171 0)
  (0.0725012 -0.00899518 0)
  (0.0774868 -0.00677012 0)
  (0.0817492 -0.0055383 0)
  (0.0846153 -0.00466026 0)
  (0.0864036 -0.00366738 0)
  (0.0866681 -0.00226693 0)
  (0.0842634 -0.000199652 0)
  (0.0779296 0.00283808 0)
  (0.0651576 0.00737449 0)
  (0.0528864 0.0267122 0)
  (0.0407238 0.0430339 0)
  (0.0562858 0.0559198 0)
  (-0.115029 0.0912306 0)
  (0.639612 0.387992 0)
  (-0.251051 0.17167 0)
  (-0.0344677 0.130019 0)
  (-0.0612744 0.0966139 0)
  (-0.0677488 0.0651168 0)
  (-0.0710595 0.0282179 0)
  (-0.0619143 -0.0194861 0)
  (-0.0430079 -0.0719488 0)
  (-0.0225168 -0.113536 0)
  (-0.00324553 -0.138346 0)
  (0.0132424 -0.145622 0)
  (0.0258106 -0.138415 0)
  (0.0356949 -0.121025 0)
  (0.043643 -0.0969532 0)
  (0.0509554 -0.0696958 0)
  (0.0596171 -0.0430304 0)
  (0.0723733 -0.0232154 0)
  (0.0831102 -0.0218853 0)
  (0.0843254 -0.0294421 0)
  (0.0779979 -0.0300911 0)
  (0.0698588 -0.027032 0)
  (0.0632006 -0.0230659 0)
  (0.0582059 -0.0184468 0)
  (0.0552176 -0.0130683 0)
  (0.055094 -0.00736854 0)
  (0.0575128 -0.00461663 0)
  (0.0603089 -0.0036302 0)
  (0.0629818 -0.00285554 0)
  (0.0654298 -0.00126627 0)
  (0.0673061 0.00175028 0)
  (0.067363 0.00629845 0)
  (0.0649872 0.0125309 0)
  (0.0595845 0.0210798 0)
  (0.0526812 0.0363039 0)
  (0.0425172 0.0543526 0)
  (0.0646317 0.0744901 0)
  (-0.0216205 0.103518 0)
  (0.0461873 0.0320759 0)
  (-0.0623303 -0.0346581 0)
  (-0.272663 -0.0573133 0)
  (0.7307 0.433443 0)
  (-0.2927 0.191247 0)
  (-0.00324896 0.126636 0)
  (-0.0162566 0.097936 0)
  (-0.0121883 0.0675938 0)
  (-0.00708196 0.0256991 0)
  (0.0206947 -0.0360614 0)
  (0.0426125 -0.0921893 0)
  (0.0583 -0.131036 0)
  (0.0679383 -0.151132 0)
  (0.0721346 -0.154337 0)
  (0.0722347 -0.144126 0)
  (0.0697415 -0.124515 0)
  (0.0661261 -0.0994766 0)
  (0.0628796 -0.0726973 0)
  (0.0614242 -0.047836 0)
  (0.0626412 -0.0291752 0)
  (0.0634616 -0.0215639 0)
  (0.0602063 -0.0209724 0)
  (0.053237 -0.0208982 0)
  (0.0453722 -0.0193302 0)
  (0.0388283 -0.0169891 0)
  (0.0341299 -0.0142296 0)
  (0.0315534 -0.0111027 0)
  (0.0313371 -0.00821779 0)
  (0.0331096 -0.00712064 0)
  (0.0358233 -0.00700495 0)
  (0.0390253 -0.00663308 0)
  (0.0425287 -0.00499659 0)
  (0.0460546 -0.0012052 0)
  (0.0492822 0.00508905 0)
  (0.0509586 0.0135121 0)
  (0.0513549 0.0242028 0)
  (0.0518432 0.0386789 0)
  (0.0506178 0.056469 0)
  (0.0730963 0.079281 0)
  (0.0525563 0.0971903 0)
  (0.0932632 0.0679513 0)
  (0.116238 0.0446287 0)
  (-0.129414 -0.00732203 0)
  (0.782423 0.474757 0)
  (-0.31368 0.176779 0)
  (0.0234396 0.0773 0)
  (0.0421199 0.074577 0)
  (0.0569433 0.0536594 0)
  (0.0818645 0.00375167 0)
  (0.116561 -0.0604897 0)
  (0.136269 -0.109867 0)
  (0.143077 -0.140095 0)
  (0.139702 -0.152446 0)
  (0.128835 -0.149801 0)
  (0.113365 -0.135853 0)
  (0.0958477 -0.114416 0)
  (0.0785032 -0.0894118 0)
  (0.0630331 -0.0641014 0)
  (0.0506984 -0.0415794 0)
  (0.0419697 -0.0249874 0)
  (0.0353683 -0.0164894 0)
  (0.0287543 -0.0139591 0)
  (0.0216419 -0.0134648 0)
  (0.0149623 -0.0128343 0)
  (0.0096374 -0.0119501 0)
  (0.00596202 -0.0109494 0)
  (0.00408949 -0.00989233 0)
  (0.00407954 -0.00918328 0)
  (0.00555781 -0.00942038 0)
  (0.00788282 -0.0100871 0)
  (0.0107833 -0.0103225 0)
  (0.0142937 -0.00925214 0)
  (0.0185366 -0.00586039 0)
  (0.0244218 0.000885092 0)
  (0.0304585 0.0101595 0)
  (0.0360989 0.0210182 0)
  (0.0432086 0.0339499 0)
  (0.0509406 0.0486647 0)
  (0.0730168 0.0671431 0)
  (0.0861672 0.074848 0)
  (0.118466 0.0521793 0)
  (0.158211 0.0440119 0)
  (-0.0353769 0.0940396 0)
  (0.887006 0.477599 0)
  (-0.0712682 0.156469 0)
  (0.105731 0.00424424 0)
  (0.168455 -0.0150909 0)
  (0.180837 -0.0327722 0)
  (0.215634 -0.0670811 0)
  (0.237925 -0.100279 0)
  (0.241058 -0.124287 0)
  (0.227659 -0.136494 0)
  (0.202645 -0.137021 0)
  (0.170819 -0.127567 0)
  (0.13641 -0.110752 0)
  (0.10244 -0.0891706 0)
  (0.071383 -0.0661209 0)
  (0.044741 -0.0441041 0)
  (0.0238675 -0.0256541 0)
  (0.00927079 -0.0133648 0)
  (-0.000313079 -0.0077941 0)
  (-0.00707861 -0.00673771 0)
  (-0.012682 -0.00719674 0)
  (-0.017434 -0.00776887 0)
  (-0.0211792 -0.00825936 0)
  (-0.0238602 -0.0087183 0)
  (-0.0254443 -0.00923188 0)
  (-0.0259887 -0.00999699 0)
  (-0.0258008 -0.0111459 0)
  (-0.0252572 -0.0124036 0)
  (-0.0244825 -0.013325 0)
  (-0.0233285 -0.0134142 0)
  (-0.0214109 -0.0120846 0)
  (-0.0177737 -0.00858395 0)
  (-0.00900278 -0.00214679 0)
  (-9.06927e-05 0.00635979 0)
  (0.0105486 0.0148121 0)
  (0.0222751 0.0219957 0)
  (0.0421188 0.0293887 0)
  (0.0607479 0.0224274 0)
  (0.0802939 -0.00518661 0)
  (0.139491 0.0402646 0)
  (-0.414404 0.207018 0)
  (1.03191 0.43014 0)
  (0.496963 0.285241 0)
  (0.50306 0.19204 0)
  (0.510854 0.121157 0)
  (0.485111 0.0699661 0)
  (0.44327 0.0170214 0)
  (0.393935 -0.0314387 0)
  (0.341017 -0.0662395 0)
  (0.28428 -0.084571 0)
  (0.226081 -0.0882666 0)
  (0.169632 -0.0812869 0)
  (0.117775 -0.0677003 0)
  (0.0714516 -0.0501164 0)
  (0.032591 -0.0320471 0)
  (0.000857002 -0.0157713 0)
  (-0.0204531 -0.00536545 0)
  (-0.0318953 -0.00139548 0)
  (-0.0382701 -0.000796192 0)
  (-0.042438 -0.00172453 0)
  (-0.0460172 -0.00305869 0)
  (-0.0492602 -0.00437474 0)
  (-0.052191 -0.00561068 0)
  (-0.0548061 -0.00680019 0)
  (-0.0571378 -0.00799204 0)
  (-0.0593112 -0.00924588 0)
  (-0.0615956 -0.0105331 0)
  (-0.0643202 -0.0116339 0)
  (-0.0677838 -0.0121737 0)
  (-0.0723138 -0.0116253 0)
  (-0.0783734 -0.00928969 0)
  (-0.0865677 -0.0043408 0)
  (-0.0969788 0.0038495 0)
  (-0.107531 0.0147732 0)
  (-0.122817 0.0285899 0)
  (-0.146942 0.0453453 0)
  (-0.182428 0.0638326 0)
  (-0.232578 0.0799692 0)
  (-0.289688 0.0911388 0)
  (-0.358409 0.0973407 0)
  (-0.620826 0.0992394 0)
  (-0.149572 0.0839024 0)
  (0.135676 0.0641472 0)
  (0.219596 0.00912955 0)
  (0.20317 -0.0266213 0)
  (0.187749 -0.0419419 0)
  (0.165643 -0.0475355 0)
  (0.133529 -0.0465662 0)
  (0.0951616 -0.0406048 0)
  (0.055233 -0.031152 0)
  (0.0174422 -0.0192308 0)
  (-0.0205166 -0.00506378 0)
  (-0.0449066 0.00299328 0)
  (-0.0599877 0.0066619 0)
  (-0.0674932 0.007244 0)
  (-0.0710701 0.00646512 0)
  (-0.0734178 0.00543885 0)
  (-0.0753999 0.00439889 0)
  (-0.077399 0.00341351 0)
  (-0.0797166 0.00242294 0)
  (-0.0823577 0.00134435 0)
  (-0.0852659 0.000218909 0)
  (-0.0884712 -0.000891093 0)
  (-0.0920452 -0.00190407 0)
  (-0.0960782 -0.00266176 0)
  (-0.100648 -0.00291976 0)
  (-0.105757 -0.00236411 0)
  (-0.111309 -0.000637274 0)
  (-0.117084 0.00262496 0)
  (-0.122484 0.00784995 0)
  (-0.126685 0.0157728 0)
  (-0.130156 0.0275258 0)
  (-0.133149 0.0434901 0)
  (-0.136484 0.0627641 0)
  (-0.140677 0.081662 0)
  (-0.142539 0.0902493 0)
  (-0.125228 0.0676412 0)
  (-0.081517 -0.0258148 0)
  (-0.279143 -0.203883 0)
  (-0.0225667 0.233454 0)
  (0.0640378 0.101846 0)
  (0.0392437 0.0210982 0)
  (0.0269689 -0.00307943 0)
  (0.0187431 -0.00925434 0)
  (0.00107618 -0.0115086 0)
  (-0.0236939 -0.00929375 0)
  (-0.0497528 -0.00461091 0)
  (-0.0721889 3.73761e-05 0)
  (-0.087967 0.00326414 0)
  (-0.0959768 0.00380465 0)
  (-0.0988288 0.00167422 0)
  (-0.099428 -0.00124674 0)
  (-0.0989765 -0.00456612 0)
  (-0.0986036 -0.00796721 0)
  (-0.0987559 -0.0111611 0)
  (-0.0994572 -0.0140183 0)
  (-0.100612 -0.016342 0)
  (-0.102079 -0.0179919 0)
  (-0.10381 -0.0189836 0)
  (-0.105825 -0.0193994 0)
  (-0.108097 -0.0192683 0)
  (-0.11063 -0.0188666 0)
  (-0.113395 -0.0181822 0)
  (-0.116278 -0.017098 0)
  (-0.11905 -0.0153796 0)
  (-0.121344 -0.0126502 0)
  (-0.122649 -0.00834078 0)
  (-0.122415 -0.00220002 0)
  (-0.11967 0.00630091 0)
  (-0.112964 0.0180359 0)
  (-0.101009 0.0337627 0)
  (-0.0835269 0.0530442 0)
  (-0.0614213 0.0717703 0)
  (-0.0375574 0.0827613 0)
  (0.00250989 0.0670884 0)
  (0.143513 -0.00426485 0)
  (-0.207507 -0.114622 0)
  (0.940624 -0.00140074 0)
  (-0.531271 -0.460201 0)
  (-0.316952 0.0904235 0)
  (-0.226479 -0.0196683 0)
  (-0.178233 -0.0425229 0)
  (-0.162939 -0.0309775 0)
  (-0.160325 -0.0180282 0)
  (-0.161818 -0.00755846 0)
  (-0.162893 0.00130512 0)
  (-0.160917 0.0089102 0)
  (-0.156545 0.015826 0)
  (-0.149787 0.0221112 0)
  (-0.141542 0.0275066 0)
  (-0.133256 0.0319547 0)
  (-0.125847 0.0360547 0)
  (-0.119652 0.0400186 0)
  (-0.114706 0.0439311 0)
  (-0.110845 0.0476096 0)
  (-0.107918 0.0506941 0)
  (-0.105826 0.0528559 0)
  (-0.10448 0.0539133 0)
  (-0.103805 0.0538744 0)
  (-0.103742 0.052857 0)
  (-0.104225 0.0510003 0)
  (-0.105172 0.0487956 0)
  (-0.106486 0.0463833 0)
  (-0.108003 0.0438769 0)
  (-0.109455 0.041369 0)
  (-0.110415 0.0389305 0)
  (-0.110208 0.0366298 0)
  (-0.107586 0.0352635 0)
  (-0.100659 0.0355288 0)
  (-0.0869499 0.0381861 0)
  (-0.0645867 0.0441331 0)
  (-0.0341653 0.0538783 0)
  (0.0143741 0.0671157 0)
  (0.0592734 0.0684251 0)
  (0.102012 0.053574 0)
  (0.164069 0.0242754 0)
  (-0.218493 -0.0309074 0)
)
;

boundaryField
{
  floor
  {
    type noSlip;
  }
  ceiling
  {
    type noSlip;
  }
  sWall
  {
    type noSlip;
  }
  nWall
  {
    type noSlip;
  }
  sideWalls
  {
    type empty;
  }
  glass1
  {
    type noSlip;
  }
  glass2
  {
    type noSlip;
  }
  sun
  {
    type noSlip;
  }
  heatsource1
  {
    type noSlip;
  }
  heatsource2
  {
    type noSlip;
  }
  Table_master
  {
    type noSlip;
  }
  Table_slave
  {
    type noSlip;
  }
  inlet
  {
    type fixedValue;
    value uniform (0.3 0 0);
  }
  outlet
  {
    type zeroGradient;
  }
} 	// ************************************************************************* //

