/*--------------------------------*- C++ -*----------------------------------*\
  =========                 |
  \\      /  F ield         | OpenFOAM: The Open Source CFD Toolbox
   \\    /   O peration     | Website:  https://openfoam.org
    \\  /    A nd           | Version:  6
     \\/     M anipulation  |
\*---------------------------------------------------------------------------*/
FoamFile
{
    version     2.0;
    format      ascii;
    class       volScalarField;
    location    "500";
    object      nut;
}
// * * * * * * * * * * * * * * * * * * * * * * * * * * * * * * * * * * * * * //

dimensions      [0 2 -1 0 0 0 0];

internalField   nonuniform List<scalar> 
459
(
0.000826462
0.000850746
0.000639046
0.0005447
0.000518445
0.000508402
0.000502464
0.000498435
0.000496786
0.000498518
0.000504136
0.000513274
0.000524531
0.000534773
0.00053757
0.000259733
0.000266897
0.000265244
0.000243077
0.000219827
0.000202205
0.000189355
0.0001854
0.000197973
0.000216675
0.000238455
0.000261781
0.00028414
0.000286268
0.000275082
0.000264028
0.000250512
0.000238492
0.000221983
0.00145346
0.00356256
0.00207048
0.00208217
0.00239377
0.00258358
0.00264792
0.00261123
0.00251253
0.00239027
0.00226244
0.00212241
0.00194175
0.0016702
0.00124317
0.000649806
0.00042826
0.000417432
0.000768722
0.000975737
0.00104505
0.000915656
0.000471768
0.000270317
0.000257733
0.000337612
0.000471397
0.000633626
0.000792044
0.00090115
0.00088223
0.000790726
0.000774871
0.000613655
0.000479198
0.000289569
0.00197207
0.00618618
0.0036962
0.00293327
0.00296562
0.00325782
0.00359028
0.00376239
0.0037297
0.00357191
0.00336422
0.00312962
0.00284819
0.00247427
0.0019664
0.001355
0.000753424
0.000604134
0.00188657
0.00187799
0.0016763
0.00137134
0.000949585
0.000325463
0.000253085
0.000279195
0.000306592
0.000334038
0.000362714
0.00039451
0.000434039
0.000492279
0.00125696
0.00123121
0.00129535
0.000467973
0.00240234
0.00866615
0.00610108
0.00459177
0.00375318
0.00350883
0.00381646
0.00432801
0.00461913
0.00462607
0.00448878
0.00429151
0.00403792
0.00367887
0.00314143
0.0023731
0.00147053
0.000844455
0.00247919
0.00260434
0.002154
0.00165028
0.00120364
0.000855016
0.000618319
0.000623781
0.000631524
0.000638731
0.000646814
0.000658109
0.000675496
0.000703634
0.000751867
0.00194488
0.00195853
0.00204102
0.000702968
0.00263322
0.0104186
0.00838578
0.0068322
0.00531973
0.00418889
0.00385789
0.004353
0.00508612
0.00544699
0.00553523
0.00553243
0.00550951
0.00546821
0.00537991
0.00520487
0.00492759
0.00463597
0.00465475
0.00440734
0.00409347
0.00382228
0.00363274
0.00352717
0.00348274
0.00349009
0.00344351
0.00336459
0.00326904
0.00316108
0.00304308
0.00291559
0.00277541
0.00261379
0.00226229
0.00184551
0.00143132
0.00087376
0.000896191
0.000841849
0.00275171
0.00783842
0.00820236
0.00797804
0.00705613
0.0057254
0.00437985
0.00412
0.00501327
0.00576831
0.00610425
0.00627759
0.00641263
0.00653427
0.00662707
0.00666122
0.0066047
0.00645479
0.00626406
0.00605599
0.00585671
0.00567288
0.00552969
0.0054254
0.00534041
0.00524982
0.00513127
0.00499354
0.0048394
0.00467094
0.00449024
0.00429891
0.00409747
0.00388378
0.00365314
0.00341687
0.00319308
0.00301641
0.00291423
0.00106096
0.00367269
0.0045801
0.00525073
0.00581961
0.00613895
0.00587696
0.00503763
0.00409566
0.00452925
0.00558243
0.00611188
0.00642186
0.0066944
0.00696295
0.00720949
0.00739665
0.00749341
0.00749166
0.0074138
0.00729586
0.00715984
0.00701428
0.0068699
0.00673488
0.00660391
0.00646431
0.00631301
0.0061474
0.00596601
0.00576947
0.00556006
0.00534141
0.00511839
0.00489596
0.00467731
0.00446389
0.0042615
0.00412791
0.00428275
0.00124244
0.00470801
0.00538367
0.00747279
0.00651492
0.00623308
0.00590547
0.00515129
0.00437865
0.00436002
0.00512136
0.00573829
0.00613637
0.00650264
0.00687728
0.00725146
0.00759379
0.00786118
0.00802566
0.00809196
0.00808531
0.00802892
0.00793483
0.00781573
0.00768157
0.0075386
0.00738818
0.00722806
0.00705376
0.00686221
0.00665266
0.00642617
0.00618524
0.00593357
0.00567544
0.0054152
0.00516042
0.00493423
0.00480717
0.00500277
0.00140469
0.00584677
0.0077671
0.0180291
0.010412
0.00735188
0.00658509
0.00582824
0.00530521
0.00525972
0.0054873
0.00578792
0.00612066
0.0064697
0.00682685
0.00718871
0.00754222
0.00786106
0.00811776
0.00829837
0.0084045
0.00844604
0.00843028
0.00837128
0.00827865
0.00816375
0.00803361
0.00788876
0.00772645
0.00754464
0.00734256
0.00712043
0.00687917
0.00662028
0.00634535
0.0060552
0.00575056
0.0054404
0.00516789
0.00497673
0.00145815
0.025618
0.0174764
0.00822399
0.00725696
0.00690693
0.0064592
0.00634369
0.00651116
0.0068211
0.00715089
0.0074418
0.00768525
0.00789528
0.00808734
0.00826747
0.00843142
0.00857046
0.00867765
0.00874984
0.00878656
0.00878889
0.00875304
0.0086886
0.00859874
0.00848382
0.00834519
0.00818478
0.00800397
0.00780325
0.00758235
0.00734057
0.00707689
0.0067892
0.0064713
0.00610576
0.00564533
0.00488157
0.00155001
0.00792859
0.0126687
0.00934332
0.00749484
0.00656055
0.00626136
0.00643837
0.00692127
0.00748106
0.00796126
0.00830142
0.00851131
0.00863176
0.00870424
0.00875691
0.00880295
0.00884527
0.00888191
0.0089098
0.00892693
0.00893365
0.00893044
0.00891596
0.00887796
0.00880836
0.00871347
0.00859939
0.00847
0.00832674
0.00816884
0.00799365
0.00779645
0.00756961
0.00730095
0.00696828
0.00650771
0.00556598
0.00184883
0.00118494
0.00152821
0.00437826
0.00413457
0.00365537
0.00320698
0.00284833
0.0025738
0.0023732
0.0022395
0.00216912
0.00214544
0.00214486
0.00214923
0.00214976
0.00214457
0.00213496
0.00212286
0.00210981
0.00209661
0.00208355
0.00207053
0.00205739
0.0020441
0.00203034
0.00201667
0.00200321
0.00198888
0.00197336
0.00195668
0.00193894
0.00192022
0.00190041
0.0018792
0.00185583
0.00182892
0.00179595
0.00175062
0.00165999
0.00143422
)
;

boundaryField
{
    floor
    {
        type            nutkWallFunction;
        Cmu             0.09;
        kappa           0.41;
        E               9.8;
        value           nonuniform List<scalar> 
29
(
6.44704e-05
2.78204e-05
2.8816e-05
2.8587e-05
2.54931e-05
2.22075e-05
1.96834e-05
1.78232e-05
1.72492e-05
1.90743e-05
2.17587e-05
2.48444e-05
2.8106e-05
3.11948e-05
3.14859e-05
2.99459e-05
2.84156e-05
2.65338e-05
2.4849e-05
2.25159e-05
2.25158e-05
3.19242e-05
5.55462e-05
8.505e-05
6.44703e-05
2.78203e-05
4.90253e-05
7.28521e-05
0.000102258
)
;
    }
    ceiling
    {
        type            nutkWallFunction;
        Cmu             0.09;
        kappa           0.41;
        E               9.8;
        value           nonuniform List<scalar> 
43
(
0.000142445
0.000181684
0.000482631
0.000458013
0.00040905
0.000362642
0.000325036
0.000295909
0.000274408
0.000259959
0.000252294
0.000249693
0.000249608
0.000250066
0.000250112
0.000249539
0.000248486
0.000247165
0.00024574
0.000244298
0.00024287
0.000241447
0.00024001
0.000238557
0.00023705
0.000235554
0.000234078
0.000232508
0.000230806
0.000228975
0.000227027
0.00022497
0.000222792
0.000220457
0.000217883
0.000214914
0.000211271
0.000206253
0.000196184
0.000170836
0.000628173
0.000813886
0.000829908
)
;
    }
    sWall
    {
        type            nutkWallFunction;
        Cmu             0.09;
        kappa           0.41;
        E               9.8;
        value           uniform 0.000142466;
    }
    nWall
    {
        type            nutkWallFunction;
        Cmu             0.09;
        kappa           0.41;
        E               9.8;
        value           nonuniform List<scalar> 6(0.000101901 0.000127865 0.000148907 0.00018391 0.000217106 0.000170845);
    }
    sideWalls
    {
        type            empty;
    }
    glass1
    {
        type            nutkWallFunction;
        Cmu             0.09;
        kappa           0.41;
        E               9.8;
        value           nonuniform List<scalar> 9(0.000100125 0.000173202 0.000230872 0.000277467 0.000302376 0.000314974 0.000409549 0.000515487 0.000628399);
    }
    glass2
    {
        type            nutkWallFunction;
        Cmu             0.09;
        kappa           0.41;
        E               9.8;
        value           nonuniform List<scalar> 2(0.000167423 0.000173507);
    }
    sun
    {
        type            nutkWallFunction;
        Cmu             0.09;
        kappa           0.41;
        E               9.8;
        value           nonuniform List<scalar> 
14
(
0.000100115
0.000103061
7.72357e-05
6.53744e-05
6.20293e-05
6.07446e-05
5.99849e-05
5.94704e-05
5.92617e-05
5.94864e-05
6.02079e-05
6.13771e-05
6.28127e-05
6.41152e-05
)
;
    }
    heatsource1
    {
        type            nutkWallFunction;
        Cmu             0.09;
        kappa           0.41;
        E               9.8;
        value           nonuniform List<scalar> 3(0.000105725 0.000108401 0.000101901);
    }
    heatsource2
    {
        type            nutkWallFunction;
        Cmu             0.09;
        kappa           0.41;
        E               9.8;
        value           nonuniform List<scalar> 4(7.85293e-05 5.04235e-05 5.04234e-05 9.12488e-05);
    }
    Table_master
    {
        type            nutkWallFunction;
        Cmu             0.09;
        kappa           0.41;
        E               9.8;
        value           nonuniform List<scalar> 9(3.67991e-05 2.68898e-05 3.05071e-05 3.4255e-05 3.7966e-05 4.18013e-05 4.60088e-05 5.11806e-05 5.86952e-05);
    }
    Table_slave
    {
        type            nutkWallFunction;
        Cmu             0.09;
        kappa           0.41;
        E               9.8;
        value           nonuniform List<scalar> 9(7.46056e-05 7.52856e-05 7.62487e-05 7.7143e-05 7.81445e-05 7.95417e-05 8.16874e-05 8.51469e-05 9.10402e-05);
    }
    inlet
    {
        type            calculated;
        value           uniform 0.025618;
    }
    outlet
    {
        type            calculated;
        value           nonuniform List<scalar> 2(0.00118494 0.00152821);
    }
}


// ************************************************************************* //
