/*--------------------------------*- C++ -*----------------------------------*\
  =========                 |
  \\      /  F ield         | OpenFOAM: The Open Source CFD Toolbox
   \\    /   O peration     | Website:  https://openfoam.org
    \\  /    A nd           | Version:  6
     \\/     M anipulation  |
\*---------------------------------------------------------------------------*/
FoamFile
{
    version     2.0;
    format      ascii;
    class       surfaceScalarField;
    location    "500";
    object      phi;
}
// * * * * * * * * * * * * * * * * * * * * * * * * * * * * * * * * * * * * * //

dimensions      [1 0 -1 0 0 0 0];

internalField   nonuniform List<scalar> 
852
(
-0.00206951
0.00211664
-0.00219866
0.000129372
-0.00205518
-0.000143266
-0.00192024
-0.000134699
-0.00177812
-0.000141854
-0.00162495
-0.000152895
-0.00146923
-0.000155442
-0.00132162
-0.000147332
-0.00118831
-0.000133041
-0.00106823
-0.000119823
-0.000952168
-0.00011581
-0.000821859
-0.000130067
-0.00064698
-0.000174642
-0.000383935
-0.000262808
-0.000384713
-0.000264831
0.000267986
-0.000296189
3.15005e-05
-0.000283069
-1.29806e-05
-0.000295992
1.30733e-05
-0.0003018
5.96299e-06
-0.000212668
-8.89653e-05
-6.12441e-05
-0.000151253
0.000163012
-0.000224044
0.000318288
-0.000155076
0.000425971
-0.000107497
0.000504827
-7.86803e-05
0.000573021
-6.80267e-05
0.000655034
-8.18485e-05
0.000699075
-4.38776e-05
0.000689016
1.02197e-05
0.000634329
5.48466e-05
0.00061826
1.62194e-05
0.000495995
0.000122406
0.000499674
-0.00148153
0.00371616
-0.00192186
0.000569875
-0.00199721
-6.77148e-05
-0.00197704
-0.000154601
-0.00189884
-0.000219752
-0.00178202
-0.000269404
-0.00164938
-0.000287755
-0.00152147
-0.000274914
-0.00140945
-0.000244746
-0.00131423
-0.000214741
-0.00122796
-0.0002018
-0.00113628
-0.000221476
-0.00102163
-0.000289019
-0.000867464
-0.000416705
-0.000656935
-0.000594968
2.68226e-05
-0.000683525
2.69866e-05
0.000538518
-0.000266087
0.000472697
9.75452e-05
0.000275493
0.000184436
0.00011954
0.000169224
-2.19862e-05
0.000147693
-0.000272958
0.000162205
-8.61333e-05
-0.000337867
4.09599e-05
-0.000350939
8.65664e-05
-0.000200479
0.000106846
-0.000127579
0.00011009
-8.17353e-05
8.82637e-05
-4.60222e-05
1.95741e-05
-1.29865e-05
-8.004e-05
5.58879e-05
-0.00019548
0.000125811
-0.000387028
0.000246559
-0.000602841
0.000232211
-0.000650384
0.00017014
-0.000144002
-0.00107136
0.00495981
-0.00157493
0.00107357
-0.00176195
0.000119501
-0.00184987
-6.64161e-05
-0.00185265
-0.00021663
-0.00177982
-0.000341859
-0.00166747
-0.000399717
-0.00155582
-0.000386188
-0.00146703
-0.000333176
-0.00140675
-0.000274688
-0.00136961
-0.000238621
-0.00134533
-0.000245456
-0.00132352
-0.000310535
-0.00130092
-0.000439006
-0.00128019
-0.000615389
-0.00114125
-0.000822147
-0.00111393
-0.000431641
0.000166797
-0.000396
6.21862e-05
-0.000264499
5.31987e-05
-0.000137929
4.29004e-05
-1.38353e-05
2.38199e-05
0.000177945
-2.93806e-05
-0.000159479
-0.000510105
-0.000710253
-0.000837491
-0.000918887
-0.000964578
-0.000977244
-0.000921044
-0.000794938
-0.000404709
-0.000143539
-9.04534e-05
-8.19227e-05
8.50331e-05
-5.2769e-06
-6.17475e-05
-0.000803639
0.00598065
-0.00121967
0.00148957
-0.00126839
0.000168241
-0.00141877
8.4164e-05
-0.0015764
-5.86521e-05
-0.00160817
-0.000309643
-0.0015377
-0.000469714
-0.00144662
-0.000476822
-0.00138059
-0.000398795
-0.00135513
-0.000299775
-0.00136851
-0.000224893
-0.00141594
-0.000197698
-0.00149618
-0.000229981
-0.00161334
-0.000321531
-0.00176764
-0.000460767
-0.00197017
-0.00061928
-0.00241556
-0.000668192
-0.00208722
-0.000333507
-0.00178257
-0.000137506
-0.00168359
-3.64644e-05
-0.00165978
2.97043e-05
-0.00169808
8.15094e-05
-0.00177698
0.000103033
-0.00189402
8.79861e-05
-0.00195293
5.90938e-05
-0.00196317
1.04384e-05
-0.00193914
-2.38372e-05
-0.00188934
-4.96072e-05
-0.00181669
-7.24589e-05
-0.00172002
-9.64748e-05
-0.00159443
-0.000125406
-0.00142938
-0.000164878
-0.00120184
-0.000227383
-0.00100511
-0.000339985
-0.000657877
-0.000428886
-0.000142442
-0.000520462
-0.000216951
-5.48141e-05
0.00629659
-0.000267719
0.00170215
-0.000111385
1.13795e-05
-0.000369339
0.000341814
-0.000831771
0.000403998
-0.00115153
1.06099e-05
-0.00120314
-0.000417506
-0.00117232
-0.000507102
-0.00113869
-0.000431958
-0.00114423
-0.000293829
-0.00118835
-0.000180401
-0.00126657
-0.000119146
-0.00137717
-0.000119057
-0.00152049
-0.0001779
-0.00169979
-0.000281144
-0.00193055
-0.000388191
-0.00219158
-0.000406826
-0.00223027
-0.000294474
-0.00219848
-0.000168955
-0.00215753
-7.70755e-05
-0.0021221
-5.37921e-06
-0.0020883
4.80496e-05
-0.00205843
7.35072e-05
-0.00203641
6.63134e-05
-0.00201139
3.44329e-05
-0.00199131
-9.28339e-06
-0.00196561
-4.91763e-05
-0.00193185
-8.29983e-05
-0.00189022
-0.000113714
-0.00184162
-0.000144707
-0.00178715
-0.000179504
-0.00172865
-0.000223008
-0.00167448
-0.000281189
-0.00166622
-0.000347883
-0.00169243
-0.000402314
-0.0018041
-0.000408429
-0.00168531
-0.000335366
-0.00140797
-0.000277156
-0.0010625
-0.000345283
-0.00106675
0.004833
0.00176555
0.00470371
0.00183235
0.0032467
0.00146783
0.00193088
0.00165649
0.000845857
0.00148852
9.24431e-06
0.00084769
-0.000513029
0.000105457
-0.000683769
-0.000335664
-0.000736385
-0.000378829
-0.000799762
-0.000230027
-0.000876938
-0.000102855
-0.000971672
-2.40791e-05
-0.00108933
-1.0842e-06
-0.00123435
-3.25623e-05
-0.00141013
-0.000105039
-0.00161517
-0.000182823
-0.00180824
-0.000213412
-0.00192102
-0.000181359
-0.00196479
-0.000124835
-0.00197039
-7.11187e-05
-0.00195109
-2.43253e-05
-0.00191311
1.04284e-05
-0.00186618
2.6943e-05
-0.00182056
2.10541e-05
-0.00178129
-4.47106e-06
-0.00174985
-4.03469e-05
-0.00172158
-7.70648e-05
-0.00169227
-0.000111917
-0.00166016
-0.000145438
-0.00162504
-0.000179434
-0.00158769
-0.000216456
-0.00155031
-0.000259992
-0.00151827
-0.000312827
-0.00149511
-0.000370644
-0.00147547
-0.000421545
-0.00143289
-0.000450603
-0.00128627
-0.000481583
-0.00098581
-0.000577208
-0.000580989
-0.000749702
-0.00165322
0.00722597
-0.00522628
0.0092896
-0.000217401
0.0081341
0.00263189
0.00598007
0.0038148
0.00396023
0.00350945
0.00233847
0.00246963
0.00107783
0.00136706
0.000264426
0.00047878
-0.000145929
3.20267e-05
-0.000333365
-4.22127e-05
-0.000445758
9.87027e-06
-0.000539036
6.95306e-05
-0.000638486
9.87007e-05
-0.00075899
8.82652e-05
-0.000905384
4.16832e-05
-0.00106795
-1.99269e-05
-0.0012177
-6.33144e-05
-0.00132596
-7.27509e-05
-0.00138821
-6.22298e-05
-0.0014145
-4.44661e-05
-0.00141268
-2.577e-05
-0.00139026
-1.1624e-05
-0.00135524
-7.69897e-06
-0.00131674
-1.7068e-05
-0.00128233
-3.84958e-05
-0.00125431
-6.798e-05
-0.00123034
-0.00010064
-0.00120767
-0.000134184
-0.00118427
-0.00016843
-0.00115889
-0.000204408
-0.00113092
-0.000244008
-0.00110062
-0.000289871
-0.00106873
-0.000344304
-0.00103246
-0.000406493
-0.00098253
-0.000471047
-0.000898823
-0.000533885
-0.000763437
-0.000616544
-0.0005394
-0.00080082
-0.000132799
-0.00115589
-0.00179284
0.000347998
-0.00542899
0.0031565
-0.00302042
0.00418608
0.00160464
0.00323433
0.00476663
0.00241827
0.00432416
0.00173083
0.00315618
0.00120621
0.00189195
0.00077528
0.000910307
0.000436288
0.000371491
0.000216505
0.00017792
8.63839e-05
0.00014035
7.47005e-06
0.000148797
-5.11762e-05
0.000157693
-0.00011307
0.0001505
-0.000195104
0.00012406
-0.000298906
8.42252e-05
-0.000405635
4.37731e-05
-0.00049252
1.44991e-05
-0.00055109
-3.29159e-06
-0.000582983
-1.21966e-05
-0.000592581
-1.57907e-05
-0.000585455
-1.83643e-05
-0.000568054
-2.47101e-05
-0.000546534
-3.81932e-05
-0.000525938
-5.86903e-05
-0.00050923
-8.42816e-05
-0.000496706
-0.000112752
-0.000487137
-0.000143335
-0.000478874
-0.000176271
-0.00047038
-0.000212475
-0.000460418
-0.00025354
-0.000448103
-0.000301752
-0.000432276
-0.000359696
-0.000409134
-0.000429198
-0.000368933
-0.000510808
-0.0002942
-0.000608178
-0.000164996
-0.000745306
2.6365e-05
-0.00099174
0.000302033
-0.00143113
-0.00153341
-0.00533376
-0.00837767
-0.00411436
-0.00266002
-0.00159609
0.0022465
-0.000339152
0.00306546
0.000328289
0.00248817
0.00069998
0.00152043
0.000816625
0.000793878
0.000792228
0.000396056
0.000745852
0.000224497
0.000718597
0.000167859
0.00071026
0.000157428
0.000710036
0.000158238
0.000706348
0.000154527
0.000689884
0.000140873
0.000656674
0.000117796
0.000610808
9.00076e-05
0.00056224
6.3445e-05
0.000518759
4.05773e-05
0.000485333
2.16245e-05
0.00046428
5.66342e-06
0.000454589
-8.27089e-06
0.000452285
-2.20001e-05
0.000454114
-3.9612e-05
0.000456392
-6.05531e-05
0.000455682
-8.31485e-05
0.000450085
-0.000106725
0.00043982
-0.000132635
0.000425947
-0.000161958
0.000409676
-0.000195761
0.000392115
-0.000235532
0.000374185
-0.000283373
0.000356874
-0.000341934
0.000342114
-0.000413986
0.000333821
-0.000502062
0.000336265
-0.000610169
0.000346412
-0.000755001
0.0003457
-0.00099058
0.000301828
-0.00138682
-0.00128452
-0.00685594
0.00175376
-0.00506279
0.000451448
-0.00228569
0.00028714
-0.00040705
0.000609106
0.000609226
0.00050397
0.00109721
0.000305666
0.00133623
0.000156843
0.00148027
8.03851e-05
0.00158036
6.78121e-05
0.00165221
8.57206e-05
0.00170301
0.000107656
0.00173712
0.000120707
0.00175666
0.000121666
0.00176245
0.000112365
0.00175606
9.67787e-05
0.00174094
7.89528e-05
0.00172063
6.12854e-05
0.00169788
4.47842e-05
0.00167416
2.97894e-05
0.00165121
1.50972e-05
0.00163028
-6.46474e-07
0.00161048
-1.9393e-05
0.00158956
-3.92009e-05
0.00156497
-5.81225e-05
0.00153483
-7.61393e-05
0.00149905
-9.64033e-05
0.00145779
-0.000120244
0.00141119
-0.000148702
0.00135923
-0.000183115
0.00130161
-0.000225286
0.00123762
-0.000277486
0.00116626
-0.000342157
0.00108588
-0.000421216
0.000991136
-0.000514967
0.000858109
-0.000621516
0.000607364
-0.000739384
0.000103046
-0.000882064
-0.0011932
-0.000558965
0.00227614
0.000361476
-0.000469185
0.00086463
-0.000215512
0.00153572
-6.19983e-05
0.00213989
-0.000100738
0.00254169
-9.69004e-05
0.00275316
-5.53543e-05
0.00283818
-5.18098e-06
0.00285744
4.82464e-05
0.00285428
8.87922e-05
0.00285137
0.00011064
0.00285545
0.00011683
0.00286485
0.000112544
0.0028749
0.00010266
0.00288131
9.07408e-05
0.00288177
7.88843e-05
0.00287562
6.78403e-05
0.00286321
5.76136e-05
0.00284547
4.79431e-05
0.00282283
3.81625e-05
0.00279494
2.76773e-05
0.00275837
1.76065e-05
0.0027132
6.4166e-06
0.00266059
-5.07155e-06
0.00260204
-1.71314e-05
0.0025369
-3.08076e-05
0.00246368
-4.65646e-05
0.00238057
-6.51192e-05
0.00228535
-8.74277e-05
0.00217532
-0.000114779
0.00204717
-0.00014886
0.00189728
-0.00019179
0.00172263
-0.000246095
0.00152299
-0.000314862
0.00130582
-0.000403881
0.00109066
-0.000523766
0.00082263
-0.000613599
-0.000382852
0.0045055
0.00378399
0.00599867
0.00546598
0.00518148
0.00504423
0.00486218
0.00467858
0.00453234
0.0044338
0.00438836
0.00438495
0.00440574
0.0044352
0.00446258
0.00448197
0.00449108
0.00448976
0.00447871
0.00445864
0.00443005
0.00439276
0.004346
0.00429014
0.004224
0.00414725
0.00405931
0.00395851
0.00384273
0.00370909
0.00355382
0.00337181
0.0031563
0.00289839
0.00258666
0.00220657
0.00173778
0.00114922
0.000469937
)
;

boundaryField
{
    floor
    {
        type            calculated;
        value           nonuniform List<scalar> 
29
(
0
0
0
0
0
0
0
0
0
0
0
0
0
0
0
0
0
0
0
0
-3.54405e-06
-6.52393e-06
2.9007e-06
1.29669e-05
1.01903e-06
-3.00886e-06
-4.19664e-06
-9.62656e-07
5.51271e-06
)
;
    }
    ceiling
    {
        type            calculated;
        value           nonuniform List<scalar> 
43
(
0.000167078
0.0001361
6.07796e-05
6.29077e-05
6.85464e-05
7.48701e-05
8.09612e-05
8.63784e-05
9.06241e-05
9.31919e-05
9.35673e-05
9.21715e-05
8.99251e-05
8.75632e-05
8.54294e-05
8.35936e-05
8.20075e-05
8.05981e-05
7.93074e-05
7.81006e-05
7.69608e-05
7.58836e-05
7.48675e-05
7.39045e-05
7.29992e-05
7.21226e-05
7.12628e-05
7.04506e-05
6.96938e-05
6.89894e-05
6.83313e-05
6.77148e-05
6.71381e-05
6.66037e-05
6.61203e-05
6.57054e-05
6.53874e-05
6.52575e-05
6.6127e-05
7.12436e-05
2.99929e-05
2.32028e-05
3.51819e-05
)
;
    }
    sWall
    {
        type            calculated;
        value           uniform -5.12161e-05;
    }
    nWall
    {
        type            calculated;
        value           nonuniform List<scalar> 6(4.4311e-06 5.88319e-06 7.21928e-06 1.21264e-05 1.26972e-05 1.62673e-05);
    }
    sideWalls
    {
        type            empty;
        value           nonuniform 0();
    }
    glass1
    {
        type            calculated;
        value           nonuniform List<scalar> 9(-4.69193e-05 -0.000117788 -0.000172137 -0.000217108 -0.000261 -0.000300826 -0.000213981 -0.000139681 -0.00012353);
    }
    glass2
    {
        type            calculated;
        value           nonuniform List<scalar> 2(4.3006e-05 5.33432e-05);
    }
    sun
    {
        type            calculated;
        value           uniform 0;
    }
    heatsource1
    {
        type            calculated;
        value           nonuniform List<scalar> 3(1.98394e-07 1.98476e-07 1.98643e-07);
    }
    heatsource2
    {
        type            calculated;
        value           nonuniform List<scalar> 4(5.0175e-08 5.03865e-08 0 0);
    }
    Table_master
    {
        type            calculated;
        value           nonuniform List<scalar> 9(-1.5244e-07 -1.52469e-07 -1.52306e-07 -1.52167e-07 -1.52044e-07 -1.5193e-07 -1.5182e-07 -1.51707e-07 -1.51544e-07);
    }
    Table_slave
    {
        type            calculated;
        value           nonuniform List<scalar> 9(1.49458e-07 1.49431e-07 1.49408e-07 1.49397e-07 1.49397e-07 1.49409e-07 1.49434e-07 1.49477e-07 1.49528e-07);
    }
    inlet
    {
        type            calculated;
        value           uniform 0.00243937;
    }
    outlet
    {
        type            calculated;
        value           nonuniform List<scalar> 2(-0.00462089 0.000585785);
    }
}


// ************************************************************************* //
