// -*- C++ -*-
// File generated by PyFoam - sorry for the ugliness

FoamFile
{
 version 2.0;
 format ascii;
 class volScalarField;
 location "1100";
 object T;
}

dimensions [ 0 0 0 1 0 0 0 ];

internalField nonuniform List<scalar> 459
(
  303.388
  303.125
  303.112
  303.108
  303.105
  303.1
  303.096
  303.09
  303.081
  303.07
  303.057
  303.047
  303.04
  303.039
  303.046
  303.134
  303.114
  303.106
  303.108
  303.112
  303.116
  303.12
  303.124
  303.128
  303.132
  303.136
  303.139
  303.143
  303.147
  303.151
  303.155
  303.159
  303.165
  303.184
  303.567
  303.167
  303.144
  303.147
  303.15
  303.151
  303.148
  303.141
  303.124
  303.099
  303.072
  303.048
  303.032
  303.026
  303.024
  303.022
  303.019
  303.136
  303.098
  303.092
  303.094
  303.098
  303.103
  303.105
  303.106
  303.108
  303.109
  303.11
  303.111
  303.113
  303.114
  303.117
  303.12
  303.126
  303.135
  303.168
  303.753
  303.217
  303.18
  303.192
  303.207
  303.218
  303.222
  303.215
  303.188
  303.144
  303.095
  303.055
  303.03
  303.02
  303.019
  303.021
  303.021
  303.087
  303.08
  303.083
  303.092
  303.102
  303.11
  303.11
  303.109
  303.109
  303.11
  303.11
  303.11
  303.11
  303.11
  303.111
  303.114
  303.118
  303.126
  303.16
  303.942
  303.279
  303.217
  303.236
  303.266
  303.295
  303.314
  303.308
  303.266
  303.194
  303.118
  303.06
  303.025
  303.014
  303.015
  303.021
  303.026
  303.036
  303.048
  303.066
  303.085
  303.103
  303.12
  303.133
  303.144
  303.153
  303.161
  303.168
  303.174
  303.178
  303.182
  303.185
  303.186
  303.163
  303.143
  303.134
  303.16
  304.125
  303.357
  303.256
  303.272
  303.315
  303.363
  303.404
  303.398
  303.334
  303.232
  303.129
  303.057
  303.017
  303.006
  303.012
  303.024
  303.038
  303.053
  303.072
  303.093
  303.116
  303.138
  303.157
  303.173
  303.187
  303.199
  303.208
  303.216
  303.221
  303.223
  303.222
  303.218
  303.211
  303.194
  303.168
  303.148
  303.157
  303.231
  303.277
  303.284
  304.291
  303.458
  303.322
  303.314
  303.354
  303.415
  303.478
  303.455
  303.362
  303.238
  303.122
  303.04
  303
  302.994
  303.01
  303.034
  303.058
  303.083
  303.109
  303.135
  303.161
  303.184
  303.203
  303.219
  303.232
  303.242
  303.25
  303.256
  303.259
  303.258
  303.253
  303.245
  303.234
  303.216
  303.191
  303.166
  303.161
  303.191
  303.209
  303.244
  304.439
  303.618
  303.475
  303.439
  303.458
  303.514
  303.54
  303.475
  303.343
  303.194
  303.07
  302.994
  302.968
  302.981
  303.015
  303.057
  303.096
  303.13
  303.161
  303.189
  303.214
  303.234
  303.251
  303.264
  303.275
  303.283
  303.288
  303.291
  303.292
  303.288
  303.28
  303.269
  303.254
  303.236
  303.213
  303.189
  303.176
  303.184
  303.194
  303.224
  304.657
  304.041
  303.878
  303.775
  303.727
  303.708
  303.608
  303.432
  303.232
  303.063
  302.954
  302.913
  302.929
  302.978
  303.042
  303.105
  303.155
  303.194
  303.224
  303.248
  303.267
  303.283
  303.295
  303.304
  303.311
  303.316
  303.319
  303.319
  303.317
  303.312
  303.305
  303.293
  303.278
  303.262
  303.245
  303.227
  303.221
  303.233
  303.253
  303.38
  304.967
  304.68
  304.414
  304.184
  303.995
  303.769
  303.435
  303.116
  302.89
  302.779
  302.767
  302.824
  302.921
  303.021
  303.117
  303.19
  303.232
  303.261
  303.282
  303.299
  303.312
  303.323
  303.331
  303.337
  303.341
  303.342
  303.343
  303.341
  303.339
  303.337
  303.335
  303.335
  303.337
  303.343
  303.358
  303.381
  303.414
  303.446
  303.468
  303.523
  297.022
  299.139
  300.25
  300.711
  301.159
  301.602
  302.013
  302.361
  302.641
  302.867
  303.06
  303.167
  303.233
  303.273
  303.298
  303.316
  303.329
  303.34
  303.348
  303.355
  303.359
  303.362
  303.364
  303.365
  303.366
  303.366
  303.367
  303.368
  303.37
  303.372
  303.377
  303.385
  303.399
  303.418
  303.442
  303.465
  303.484
  303.505
  297.458
  299.329
  300.271
  300.976
  301.577
  302.112
  302.518
  302.802
  303
  303.134
  303.221
  303.274
  303.307
  303.328
  303.343
  303.354
  303.363
  303.369
  303.374
  303.377
  303.379
  303.381
  303.383
  303.384
  303.385
  303.386
  303.387
  303.389
  303.39
  303.392
  303.396
  303.402
  303.412
  303.425
  303.441
  303.459
  303.457
  303.487
  299.532
  299.461
  299.457
  301.237
  302.101
  302.544
  302.794
  302.971
  303.099
  303.188
  303.251
  303.294
  303.322
  303.341
  303.353
  303.362
  303.368
  303.372
  303.376
  303.379
  303.381
  303.383
  303.385
  303.387
  303.388
  303.39
  303.391
  303.393
  303.395
  303.396
  303.398
  303.4
  303.403
  303.406
  303.412
  303.422
  303.431
  303.437
  303.439
  303.478
)
;

boundaryField
{
  floor
  {
    type wallHeatTransfer;
    Tinf uniform 305.2;
    alphaWall uniform 0.24;
    value nonuniform List<scalar> 29
(
  303.268
  303.531
  303.47
  303.435
  303.434
  303.444
  303.457
  303.475
  303.496
  303.516
  303.536
  303.555
  303.573
  303.59
  303.607
  303.624
  303.641
  303.66
  303.674
  303.715
  303.715
  303.619
  303.571
  303.542
  303.268
  303.531
  303.522
  303.34
  303.226
)
;
  }
  ceiling
  {
    type wallHeatTransfer;
    Tinf uniform 303.2;
    alphaWall uniform 0.24;
    value nonuniform List<scalar> 43
(
  299.786
  299.71
  299.698
  301.361
  302.176
  302.592
  302.825
  302.989
  303.107
  303.189
  303.246
  303.284
  303.308
  303.322
  303.332
  303.338
  303.342
  303.345
  303.347
  303.349
  303.351
  303.353
  303.354
  303.356
  303.359
  303.361
  303.363
  303.365
  303.367
  303.37
  303.372
  303.375
  303.379
  303.383
  303.389
  303.399
  303.408
  303.413
  303.414
  303.447
  304.885
  304.621
  297.809
)
;
  }
  sWall
  {
    type wallHeatTransfer;
    Tinf uniform 315.2;
    alphaWall uniform 0.36;
    value uniform 301.111;
  }
  nWall
  {
    type wallHeatTransfer;
    Tinf uniform 307.2;
    alphaWall uniform 0.36;
    value nonuniform List<scalar> 6
(
  304.008
  303.953
  303.874
  304.038
  304.016
  304.075
)
;
  }
  sideWalls
  {
    type empty;
  }
  glass1
  {
    type wallHeatTransfer;
    Tinf uniform 315.2;
    alphaWall uniform 4.3;
    value nonuniform List<scalar> 9
(
  311.494
  310.859
  310.457
  310.151
  309.895
  309.663
  309.482
  309.547
  309.77
)
;
  }
  glass2
  {
    type wallHeatTransfer;
    Tinf uniform 307.2;
    alphaWall uniform 4.3;
    value nonuniform List<scalar> 2
(
  305.739
  305.843
)
;
  }
  sun
  {
    type wallHeatTransfer;
    Tinf uniform 305.2;
    alphaWall uniform 0.24;
    value nonuniform List<scalar> 14
(
  303.581
  303.332
  303.317
  303.307
  303.297
  303.288
  303.279
  303.269
  303.257
  303.246
  303.236
  303.23
  303.233
  303.244
)
;
  }
  heatsource1
  {
    type fixedGradient;
    gradient uniform 0;
  }
  heatsource2
  {
    type fixedGradient;
    gradient uniform 0;
  }
  Table_master
  {
    type zeroGradient;
  }
  Table_slave
  {
    type zeroGradient;
  }
  inlet
  {
    type fixedValue;
    value uniform 293.15;
  }
  outlet
  {
    type zeroGradient;
  }
} 	// ************************************************************************* //

