/*--------------------------------*- C++ -*----------------------------------*\
  =========                 |
  \\      /  F ield         | OpenFOAM: The Open Source CFD Toolbox
   \\    /   O peration     | Website:  https://openfoam.org
    \\  /    A nd           | Version:  6
     \\/     M anipulation  |
\*---------------------------------------------------------------------------*/
FoamFile
{
    version     2.0;
    format      ascii;
    class       volScalarField;
    location    "900";
    object      alphat;
}
// * * * * * * * * * * * * * * * * * * * * * * * * * * * * * * * * * * * * * //

dimensions      [1 -1 -1 0 0 0 0];

internalField   nonuniform List<scalar> 
459
(
0.00123355
0.00134576
0.00137106
0.0014364
0.00149692
0.00155397
0.00161057
0.00166488
0.00170319
0.00171826
0.0017031
0.00165269
0.00156479
0.00144212
0.00129814
0.000537759
0.000642069
0.000725031
0.000731305
0.00071016
0.000679886
0.000638086
0.000595534
0.000556828
0.000522549
0.000492272
0.00046544
0.000441601
0.00042028
0.000400706
0.000381909
0.000362562
0.000350824
0.000321416
0.00167986
0.00398175
0.00376675
0.00436956
0.0049597
0.00555223
0.00606891
0.00646943
0.00684218
0.00715299
0.00735897
0.00741532
0.00726818
0.00679002
0.00544157
0.00132105
0.00081446
0.00056144
0.00117861
0.00164946
0.00200563
0.00221578
0.00222712
0.0017645
0.00151704
0.00134119
0.00120687
0.00110067
0.00101456
0.000941348
0.000873116
0.000806999
0.000748216
0.000696265
0.000830171
0.000428897
0.00205087
0.00540053
0.00459137
0.0057249
0.00624484
0.00662298
0.00691847
0.00717707
0.00747783
0.00780455
0.00811891
0.00836122
0.00847806
0.00838408
0.00781967
0.00600611
0.0013571
0.00105746
0.00153623
0.00199765
0.00244481
0.00277718
0.00274475
0.000907559
0.00080317
0.000718351
0.000649471
0.000593149
0.00054668
0.000508059
0.000475983
0.000449873
0.000485263
0.00055906
0.000939537
0.000501768
0.0024073
0.00691208
0.00452954
0.00597892
0.00637412
0.00646939
0.00654688
0.0066916
0.00694305
0.00728243
0.00767462
0.00803413
0.0083034
0.00840907
0.00829074
0.0076486
0.00515606
0.00158882
0.00190431
0.00242705
0.00299763
0.00350474
0.00385433
0.00367365
0.00102716
0.000940466
0.000878667
0.000831591
0.000791278
0.00075351
0.000717142
0.000678783
0.00063408
0.000594329
0.000599926
0.00109294
0.000559284
0.0027706
0.00888509
0.00489481
0.00569647
0.00624186
0.00618698
0.00613057
0.00623819
0.00647488
0.00682163
0.00725616
0.00765309
0.00793089
0.00803752
0.00797399
0.00771405
0.00706013
0.00597641
0.00560564
0.00554189
0.00559086
0.00565006
0.0056537
0.00547559
0.00466204
0.00426474
0.0040319
0.00384974
0.00365694
0.00338303
0.00300574
0.00254402
0.00202996
0.00151807
0.0011234
0.00111487
0.000761689
0.000690818
0.00083242
0.000934851
0.0031564
0.0110484
0.00673643
0.00549548
0.00602186
0.00619399
0.00602599
0.00613114
0.00632965
0.00665287
0.00707455
0.00748868
0.00776593
0.00782757
0.00768944
0.00745028
0.00722189
0.00707421
0.00707978
0.00710723
0.00707167
0.00696225
0.00678349
0.00652372
0.00613946
0.00579453
0.00548989
0.00520071
0.00491053
0.00460176
0.00420908
0.00371397
0.00311546
0.0024501
0.00185225
0.00136833
0.00105392
0.000901263
0.00128432
0.00097804
0.00351873
0.0126089
0.00966908
0.00697546
0.00650234
0.00654855
0.00639495
0.00630842
0.00640483
0.00671131
0.00715518
0.0075898
0.00785426
0.00785783
0.00763832
0.00737289
0.00729774
0.00749057
0.00773663
0.00781245
0.00768336
0.00740635
0.00703447
0.00660755
0.00616587
0.00576953
0.00542066
0.00510596
0.00482039
0.00456695
0.0043434
0.0040287
0.00357082
0.00300147
0.00244314
0.00192309
0.00155445
0.00144528
0.00148027
0.0011202
0.00359499
0.0114367
0.00992105
0.00878461
0.0080834
0.00733417
0.00669598
0.00642425
0.00654126
0.00695212
0.00748705
0.00794386
0.00814415
0.00802541
0.00769337
0.00742872
0.00750763
0.00783569
0.00796894
0.00779205
0.00739387
0.00686575
0.00628948
0.00574128
0.00527636
0.00490754
0.00461299
0.00437451
0.00418778
0.00405767
0.00399282
0.00396887
0.0037467
0.00338643
0.00305996
0.00289123
0.00301299
0.00347947
0.00425274
0.00173729
0.00350502
0.00419012
0.00473784
0.00491476
0.0049352
0.00504521
0.00537008
0.0059412
0.00670965
0.00752515
0.00819488
0.00854952
0.00847533
0.00804189
0.00756151
0.00745693
0.00751541
0.00749803
0.00724052
0.00674855
0.00611785
0.00545634
0.00486075
0.00438629
0.00403525
0.00377625
0.00357435
0.00340638
0.00325828
0.00311977
0.00298279
0.00284865
0.00273943
0.00265824
0.00262593
0.00263313
0.00261044
0.00249719
0.00232942
0.00162437
0.0021735
0.00384327
0.00527855
0.00647483
0.0074444
0.00831472
0.00900067
0.00935093
0.00931078
0.00889746
0.00817136
0.00733462
0.00680939
0.00660931
0.0063923
0.00600486
0.00545909
0.004841
0.00423883
0.00372997
0.00335138
0.00308896
0.00290955
0.00278272
0.0026888
0.00261748
0.00256437
0.00252875
0.00251529
0.00252749
0.00255082
0.00258198
0.00261168
0.00261072
0.002533
0.00236522
0.00212273
0.00133332
0.0025229
0.00535414
0.00729389
0.00820204
0.00880616
0.00921731
0.00920503
0.0086302
0.00773443
0.00676464
0.00594579
0.00535013
0.00494949
0.00459039
0.00415841
0.00367841
0.00321727
0.00283308
0.00255173
0.00236361
0.00224136
0.00216441
0.00212529
0.00211388
0.00212436
0.00215331
0.00219765
0.00225291
0.00232674
0.00241632
0.00251904
0.0026276
0.0027242
0.00278814
0.00276431
0.00278033
0.00274289
0.00135536
0.00215445
0.00226927
0.00235405
0.00242122
0.00218855
0.00200492
0.00191537
0.00182816
0.00170204
0.00154765
0.00137017
0.00119348
0.00103675
0.000912523
0.000822851
0.000759985
0.000715415
0.00068434
0.000664774
0.000655605
0.000655448
0.000662702
0.000676106
0.000694952
0.000717897
0.000744844
0.000775926
0.000811512
0.000852317
0.000899661
0.000952764
0.00101184
0.00107762
0.00115079
0.00123118
0.00132827
0.00135838
0.00132359
0.00123993
0.00115057
)
;

boundaryField
{
    floor
    {
        type            compressible::alphatWallFunction;
        Prt             0.85;
        value           nonuniform List<scalar> 
29
(
0.000183629
7.49972e-05
9.06477e-05
0.000102872
0.00010379
0.000100694
9.62426e-05
9.00563e-05
8.37076e-05
7.78841e-05
7.26847e-05
6.80568e-05
6.39255e-05
6.02299e-05
5.6903e-05
5.38295e-05
5.08599e-05
4.77837e-05
4.5907e-05
4.11688e-05
4.11682e-05
5.82503e-05
6.95124e-05
7.82558e-05
0.000183627
7.49963e-05
7.85802e-05
0.000150361
0.000222893
)
;
    }
    ceiling
    {
        type            compressible::alphatWallFunction;
        Prt             0.85;
        value           nonuniform List<scalar> 
43
(
0.000297052
0.000311844
0.000322718
0.000331419
0.00030162
0.000277845
0.000266168
0.000254735
0.000238085
0.000217512
0.000193571
0.000169386
0.000147589
0.000130038
0.000117196
0.000108093
0.000101585
9.70186e-05
9.41304e-05
9.27731e-05
9.27498e-05
9.38237e-05
9.58043e-05
9.85809e-05
0.000101949
0.000105888
0.000110411
0.000115562
0.000121436
0.000128209
0.000135757
0.000144095
0.000153313
0.000163492
0.000174589
0.000187882
0.000191983
0.000187245
0.000175793
0.000163465
0.000467185
0.000550518
0.000344124
)
;
    }
    sWall
    {
        type            compressible::alphatWallFunction;
        Prt             0.85;
        value           uniform 0.000295832;
    }
    nWall
    {
        type            compressible::alphatWallFunction;
        Prt             0.85;
        value           nonuniform List<scalar> 6(0.000132889 0.000138998 0.000158903 0.000188241 0.000191238 0.000163138);
    }
    sideWalls
    {
        type            empty;
    }
    glass1
    {
        type            compressible::alphatWallFunction;
        Prt             0.85;
        value           nonuniform List<scalar> 9(0.000170479 0.000229907 0.000278102 0.000323607 0.000369321 0.000417227 0.000461712 0.000471146 0.000460395);
    }
    glass2
    {
        type            compressible::alphatWallFunction;
        Prt             0.85;
        value           nonuniform List<scalar> 2(0.000240988 0.000226124);
    }
    sun
    {
        type            compressible::alphatWallFunction;
        Prt             0.85;
        value           nonuniform List<scalar> 
14
(
0.000174796
0.000190129
0.000193568
0.00020242
0.000210578
0.000218234
0.0002258
0.000233032
0.000238118
0.000240114
0.000238103
0.000231409
0.00021968
0.000203188
)
;
    }
    heatsource1
    {
        type            compressible::alphatWallFunction;
        Prt             0.85;
        value           nonuniform List<scalar> 3(9.79667e-05 0.000118568 0.000133208);
    }
    heatsource2
    {
        type            compressible::alphatWallFunction;
        Prt             0.85;
        value           nonuniform List<scalar> 4(0.000186886 0.00011598 0.000115979 0.000191795);
    }
    Table_master
    {
        type            compressible::alphatWallFunction;
        Prt             0.85;
        value           nonuniform List<scalar> 9(0.000129324 0.000114347 0.000102007 9.18563e-05 8.34582e-05 7.64552e-05 7.05784e-05 6.56549e-05 6.1616e-05);
    }
    Table_slave
    {
        type            compressible::alphatWallFunction;
        Prt             0.85;
        value           nonuniform List<scalar> 9(0.000146238 0.000134005 0.000125203 0.000118449 0.00011263 0.000107145 0.000101833 9.61938e-05 8.9573e-05);
    }
    inlet
    {
        type            fixedValue;
        value           uniform 1.94e-05;
    }
    outlet
    {
        type            zeroGradient;
    }
}


// ************************************************************************* //
