// -*- C++ -*-
// File generated by PyFoam - sorry for the ugliness

FoamFile
{
 version 2.0;
 format ascii;
 class volVectorField;
 location "300";
 object U;
}

dimensions [ 0 1 -1 0 0 0 0 ];

internalField nonuniform List<vector> 459
(
  (0.0857302 0.0748913 0)
  (-0.148443 0.00871904 0)
  (-0.145283 0.0116328 0)
  (-0.168963 0.0104748 0)
  (-0.190372 0.00804729 0)
  (-0.208729 0.00505302 0)
  (-0.223151 0.00159619 0)
  (-0.232814 -0.00238426 0)
  (-0.236773 -0.00701992 0)
  (-0.233758 -0.0125218 0)
  (-0.222026 -0.0194536 0)
  (-0.198768 -0.0283224 0)
  (-0.162418 -0.0407969 0)
  (-0.122055 -0.0602198 0)
  (-0.111077 -0.0867171 0)
  (0.0787655 -0.00136 0)
  (0.00782021 -0.0148947 0)
  (0.0315003 -0.0143652 0)
  (0.0499658 -0.0121175 0)
  (0.0620822 -0.0100906 0)
  (0.0708336 -0.00779222 0)
  (0.0763936 -0.00463667 0)
  (0.0781251 -0.00277047 0)
  (0.0774209 -0.00202808 0)
  (0.0760927 -0.00172471 0)
  (0.0748065 -0.00150428 0)
  (0.0735071 -0.00127973 0)
  (0.0720128 -0.000994006 0)
  (0.0700844 -0.000500926 0)
  (0.0671709 0.000550473 0)
  (0.0621285 0.00261894 0)
  (0.0537914 0.00465901 0)
  (0.0485501 0.00565096 0)
  (-0.0200424 0.0238062 0)
  (0.295788 0.161558 0)
  (-0.166849 0.0330031 0)
  (-0.127942 0.0378323 0)
  (-0.157308 0.0355139 0)
  (-0.179849 0.0316404 0)
  (-0.198937 0.0267474 0)
  (-0.214093 0.0207564 0)
  (-0.22471 0.0134168 0)
  (-0.22996 0.00440398 0)
  (-0.228726 -0.00664693 0)
  (-0.22015 -0.0195143 0)
  (-0.203111 -0.0341608 0)
  (-0.178046 -0.0518728 0)
  (-0.149856 -0.0750302 0)
  (-0.124876 -0.098036 0)
  (-0.0934421 -0.0917848 0)
  (-5.01578e-05 -0.00438968 0)
  (0.101783 -0.026367 0)
  (0.0364872 -0.019038 0)
  (0.0369732 -0.015789 0)
  (0.0468587 -0.0138843 0)
  (0.0549497 -0.0127581 0)
  (0.0619645 -0.010084 0)
  (0.0672802 -0.00217883 0)
  (0.0678304 0.0024084 0)
  (0.0668184 0.00392438 0)
  (0.066245 0.00429131 0)
  (0.0661099 0.00439271 0)
  (0.0660336 0.00446156 0)
  (0.0658827 0.00465445 0)
  (0.0656315 0.00530048 0)
  (0.064768 0.00723765 0)
  (0.0609378 0.0128628 0)
  (0.0512234 0.0172175 0)
  (0.0521888 0.0185973 0)
  (-0.0711972 0.0509271 0)
  (0.47781 0.246895 0)
  (-0.213497 0.0651819 0)
  (-0.102597 0.0661162 0)
  (-0.138856 0.058045 0)
  (-0.160174 0.0501455 0)
  (-0.178716 0.0410287 0)
  (-0.193927 0.030202 0)
  (-0.205319 0.0173264 0)
  (-0.212085 0.00219423 0)
  (-0.213011 -0.0151134 0)
  (-0.207602 -0.0345527 0)
  (-0.196267 -0.055511 0)
  (-0.180587 -0.0774787 0)
  (-0.163621 -0.0995388 0)
  (-0.14667 -0.116542 0)
  (-0.130463 -0.121096 0)
  (-0.134457 -0.122936 0)
  (0.0470329 -0.0254712 0)
  (-0.0151658 -0.0284372 0)
  (0.00658872 -0.0269484 0)
  (0.0233338 -0.0240743 0)
  (0.0348182 -0.022755 0)
  (0.0435553 -0.021904 0)
  (0.0530802 -0.0138493 0)
  (0.0511587 -0.00828031 0)
  (0.0488884 -0.00570236 0)
  (0.0492732 -0.00451977 0)
  (0.0508808 -0.00382431 0)
  (0.0526055 -0.00332744 0)
  (0.0543554 -0.00284964 0)
  (0.0566704 -0.00203795 0)
  (0.0607196 0.00114075 0)
  (0.0599089 0.018426 0)
  (0.0466527 0.0289942 0)
  (0.0612922 0.0330045 0)
  (-0.116624 0.0771797 0)
  (0.630171 0.318401 0)
  (-0.267553 0.101084 0)
  (-0.0704044 0.0928212 0)
  (-0.114992 0.0794965 0)
  (-0.132298 0.0692946 0)
  (-0.148273 0.0578764 0)
  (-0.161994 0.0443021 0)
  (-0.173008 0.0279665 0)
  (-0.180475 0.0084247 0)
  (-0.182962 -0.0142886 0)
  (-0.179734 -0.0392021 0)
  (-0.172631 -0.0645355 0)
  (-0.163763 -0.0883384 0)
  (-0.155837 -0.108444 0)
  (-0.151117 -0.121258 0)
  (-0.153981 -0.122527 0)
  (-0.165621 -0.10214 0)
  (-0.143633 -0.0346272 0)
  (-0.0801329 -0.0490799 0)
  (-0.0452565 -0.0552163 0)
  (-0.0159837 -0.0507994 0)
  (0.00481246 -0.0395532 0)
  (0.0156557 -0.0331562 0)
  (0.0211325 -0.0286404 0)
  (0.0293015 -0.0191641 0)
  (0.0457987 -0.015303 0)
  (0.0605523 -0.0131028 0)
  (0.073029 -0.0113715 0)
  (0.083375 -0.00937882 0)
  (0.0907396 -0.00669547 0)
  (0.0935418 -0.00317733 0)
  (0.0894085 0.00156637 0)
  (0.076708 0.00801404 0)
  (0.0600889 0.0284742 0)
  (0.0419522 0.0451319 0)
  (0.0701698 0.0554143 0)
  (-0.172652 0.0988409 0)
  (0.754689 0.377205 0)
  (-0.318034 0.137213 0)
  (-0.0346975 0.111956 0)
  (-0.0869593 0.095573 0)
  (-0.0985563 0.0841412 0)
  (-0.109971 0.0711132 0)
  (-0.120072 0.0554534 0)
  (-0.128581 0.036395 0)
  (-0.134841 0.0133029 0)
  (-0.137059 -0.0137837 0)
  (-0.133895 -0.042916 0)
  (-0.128436 -0.0707258 0)
  (-0.122743 -0.0945047 0)
  (-0.11879 -0.112753 0)
  (-0.117872 -0.124443 0)
  (-0.120225 -0.128355 0)
  (-0.119663 -0.119197 0)
  (-0.104233 -0.0912174 0)
  (-0.0755905 -0.0863755 0)
  (-0.045751 -0.0874996 0)
  (-0.0221611 -0.0733347 0)
  (-0.00544269 -0.0540123 0)
  (0.00425788 -0.0423 0)
  (0.0117989 -0.0343742 0)
  (0.0215617 -0.0254778 0)
  (0.0336079 -0.021088 0)
  (0.0452031 -0.0187882 0)
  (0.0559316 -0.0165544 0)
  (0.0655932 -0.0130615 0)
  (0.073431 -0.0072695 0)
  (0.0783464 0.00135609 0)
  (0.0780521 0.0118374 0)
  (0.0722836 0.0240919 0)
  (0.0629622 0.0418163 0)
  (0.0465584 0.0608734 0)
  (0.0778189 0.0807699 0)
  (-0.0518116 0.111793 0)
  (0.0496478 0.0177317 0)
  (-0.0752661 -0.0399422 0)
  (-0.29896 -0.0646964 0)
  (0.84072 0.429346 0)
  (-0.36065 0.168587 0)
  (-0.00433616 0.117385 0)
  (-0.0548312 0.105932 0)
  (-0.0611905 0.0939168 0)
  (-0.0673254 0.0795561 0)
  (-0.0722243 0.0626167 0)
  (-0.0762057 0.0421172 0)
  (-0.0792792 0.0169198 0)
  (-0.0785273 -0.0137227 0)
  (-0.0735973 -0.0466735 0)
  (-0.069166 -0.0756606 0)
  (-0.0664121 -0.0981044 0)
  (-0.0662771 -0.113706 0)
  (-0.069083 -0.122597 0)
  (-0.0737021 -0.124344 0)
  (-0.0754307 -0.117885 0)
  (-0.0694196 -0.108161 0)
  (-0.0568624 -0.107946 0)
  (-0.0367313 -0.111237 0)
  (-0.0217977 -0.0897833 0)
  (-0.0100117 -0.0637661 0)
  (-0.00469002 -0.050087 0)
  (0.00137955 -0.041401 0)
  (0.0083291 -0.0348216 0)
  (0.0164191 -0.0313087 0)
  (0.0248184 -0.0292617 0)
  (0.0333187 -0.0269826 0)
  (0.041793 -0.0229594 0)
  (0.0499563 -0.0156273 0)
  (0.0572629 -0.00369288 0)
  (0.0622209 0.0116564 0)
  (0.062801 0.0281798 0)
  (0.0620777 0.0466671 0)
  (0.0567218 0.066449 0)
  (0.0857145 0.0909324 0)
  (0.0479224 0.107435 0)
  (0.102996 0.0690291 0)
  (0.12807 0.045296 0)
  (-0.145361 -0.0117414 0)
  (0.862684 0.476146 0)
  (-0.382138 0.165577 0)
  (0.0163675 0.0843517 0)
  (-0.00821886 0.111319 0)
  (-0.0159639 0.104024 0)
  (-0.0200368 0.0841612 0)
  (-0.0201127 0.0644488 0)
  (-0.0184317 0.0431918 0)
  (-0.0168225 0.0170766 0)
  (-0.00681556 -0.0174004 0)
  (0.000765512 -0.0523212 0)
  (0.00282929 -0.0793771 0)
  (0.000968015 -0.0984307 0)
  (-0.0043371 -0.110771 0)
  (-0.0124671 -0.117309 0)
  (-0.0218561 -0.118505 0)
  (-0.0294686 -0.115081 0)
  (-0.0332975 -0.1121 0)
  (-0.0347723 -0.116856 0)
  (-0.0234016 -0.126872 0)
  (-0.018419 -0.100105 0)
  (-0.011952 -0.0684068 0)
  (-0.0123472 -0.0535388 0)
  (-0.0105813 -0.0454249 0)
  (-0.00813636 -0.0403196 0)
  (-0.00482866 -0.0375456 0)
  (-0.000863297 -0.0360464 0)
  (0.00380515 -0.0344266 0)
  (0.00918321 -0.0311981 0)
  (0.0156078 -0.0245937 0)
  (0.0234475 -0.0125444 0)
  (0.035625 0.00605765 0)
  (0.0432471 0.0248384 0)
  (0.050658 0.0427874 0)
  (0.0569514 0.0597733 0)
  (0.0838749 0.0800935 0)
  (0.0942563 0.0842403 0)
  (0.133756 0.051452 0)
  (0.178012 0.0417676 0)
  (-0.0279304 0.0998439 0)
  (0.962711 0.496529 0)
  (-0.146004 0.14859 0)
  (0.077687 0.023787 0)
  (0.107134 0.0588905 0)
  (0.0778182 0.0781713 0)
  (0.0588476 0.0640893 0)
  (0.056121 0.0424587 0)
  (0.0604366 0.0207004 0)
  (0.0661329 -0.0069177 0)
  (0.0831712 -0.0343772 0)
  (0.0882725 -0.0582223 0)
  (0.08465 -0.0773924 0)
  (0.07553 -0.0913782 0)
  (0.0626422 -0.100394 0)
  (0.0472566 -0.1051 0)
  (0.0308067 -0.106292 0)
  (0.0152081 -0.105104 0)
  (0.0015301 -0.105126 0)
  (-0.0127058 -0.114302 0)
  (-0.00830491 -0.134556 0)
  (-0.0136674 -0.104238 0)
  (-0.0122244 -0.067546 0)
  (-0.0197723 -0.0523098 0)
  (-0.0235629 -0.0449754 0)
  (-0.0264721 -0.0407665 0)
  (-0.0288084 -0.0385946 0)
  (-0.0307047 -0.0376103 0)
  (-0.0321172 -0.03674 0)
  (-0.032797 -0.0348699 0)
  (-0.0322291 -0.0309304 0)
  (-0.0293788 -0.0238735 0)
  (-0.0210805 -0.0125342 0)
  (-0.00186094 0.00415479 0)
  (0.011191 0.0201997 0)
  (0.0233311 0.0298466 0)
  (0.0465695 0.0390589 0)
  (0.0643054 0.0286508 0)
  (0.0810187 -0.00546671 0)
  (0.144708 0.0517005 0)
  (-0.498456 0.237999 0)
  (1.09257 0.456558 0)
  (0.531182 0.305042 0)
  (0.520978 0.246207 0)
  (0.471507 0.204224 0)
  (0.380422 0.173663 0)
  (0.306137 0.132506 0)
  (0.263985 0.0893215 0)
  (0.241931 0.0510712 0)
  (0.230905 0.0173642 0)
  (0.214115 -0.0139704 0)
  (0.194587 -0.0403071 0)
  (0.173288 -0.0601673 0)
  (0.150524 -0.0736654 0)
  (0.126605 -0.0818085 0)
  (0.102066 -0.0858619 0)
  (0.0776072 -0.0871145 0)
  (0.053982 -0.0870257 0)
  (0.0312937 -0.0883738 0)
  (0.00781863 -0.0986109 0)
  (0.00633718 -0.129929 0)
  (-0.00949657 -0.0981488 0)
  (-0.0116133 -0.0590558 0)
  (-0.0274759 -0.0459804 0)
  (-0.0372452 -0.0407131 0)
  (-0.0453453 -0.0374588 0)
  (-0.0533929 -0.0354204 0)
  (-0.0618617 -0.0341004 0)
  (-0.070957 -0.0325594 0)
  (-0.0808399 -0.0296586 0)
  (-0.0917214 -0.0242427 0)
  (-0.103994 -0.0152155 0)
  (-0.117953 -0.00166015 0)
  (-0.131715 0.0160307 0)
  (-0.147131 0.0359737 0)
  (-0.175448 0.0569444 0)
  (-0.218492 0.0769076 0)
  (-0.280652 0.0901232 0)
  (-0.349873 0.0937311 0)
  (-0.424551 0.0889503 0)
  (-0.700091 0.0754593 0)
  (-0.15721 0.174271 0)
  (0.182484 0.210587 0)
  (0.260987 0.185529 0)
  (0.257056 0.144379 0)
  (0.258425 0.100328 0)
  (0.262217 0.0596206 0)
  (0.26173 0.0249032 0)
  (0.254254 -0.00340578 0)
  (0.238741 -0.0247716 0)
  (0.217631 -0.0397706 0)
  (0.192819 -0.0494009 0)
  (0.165876 -0.0547625 0)
  (0.13806 -0.0569112 0)
  (0.11021 -0.0568107 0)
  (0.0825429 -0.0554481 0)
  (0.0540404 -0.0548239 0)
  (0.0261813 -0.0635663 0)
  (0.018251 -0.106019 0)
  (-0.0125465 -0.0724751 0)
  (-0.0158203 -0.0338537 0)
  (-0.0382528 -0.0276063 0)
  (-0.0515523 -0.0266108 0)
  (-0.061752 -0.0261257 0)
  (-0.0722836 -0.0260793 0)
  (-0.0838291 -0.0261814 0)
  (-0.0963959 -0.0256157 0)
  (-0.109668 -0.0232546 0)
  (-0.122742 -0.0177873 0)
  (-0.134037 -0.00792277 0)
  (-0.1419 0.0074243 0)
  (-0.146362 0.0272704 0)
  (-0.149219 0.0517145 0)
  (-0.153 0.0784367 0)
  (-0.158954 0.101634 0)
  (-0.163652 0.108908 0)
  (-0.146059 0.0779976 0)
  (-0.08647 -0.0349775 0)
  (-0.293332 -0.2478 0)
  (-0.0886041 0.297513 0)
  (0.0857167 0.213967 0)
  (0.115161 0.154314 0)
  (0.151913 0.119419 0)
  (0.18919 0.0861406 0)
  (0.217088 0.0577473 0)
  (0.231464 0.0371278 0)
  (0.233287 0.0246954 0)
  (0.226094 0.0164792 0)
  (0.212458 0.010146 0)
  (0.19442 0.00564697 0)
  (0.173411 0.00300322 0)
  (0.150568 0.00221155 0)
  (0.126718 0.00323391 0)
  (0.102249 0.00595926 0)
  (0.0764843 0.00801424 0)
  (0.0521613 -0.01246 0)
  (0.0269049 -0.0891669 0)
  (-0.0366248 -0.0379561 0)
  (-0.0409578 0.0389443 0)
  (-0.0595784 0.0420524 0)
  (-0.0711974 0.0377922 0)
  (-0.0799553 0.0410104 0)
  (-0.0879111 0.0451398 0)
  (-0.0953922 0.0477714 0)
  (-0.102487 0.0490149 0)
  (-0.109235 0.0489546 0)
  (-0.115441 0.0473341 0)
  (-0.120182 0.0434114 0)
  (-0.121224 0.0417911 0)
  (-0.115826 0.0466588 0)
  (-0.102836 0.0593539 0)
  (-0.083339 0.0789774 0)
  (-0.0592815 0.0989805 0)
  (-0.033909 0.109585 0)
  (0.0111494 0.0906456 0)
  (0.143297 0.00892761 0)
  (-0.202014 -0.163408 0)
  (-0.245585 -0.414545 0)
  (-0.497697 -0.103248 0)
  (-0.344731 0.194632 0)
  (-0.175776 0.0845409 0)
  (-0.0624484 0.04226 0)
  (0.0580939 0.0187735 0)
  (0.121472 -0.00673807 0)
  (0.169964 -0.0306257 0)
  (0.19915 -0.0520384 0)
  (0.211646 -0.0717288 0)
  (0.212408 -0.088911 0)
  (0.205063 -0.103131 0)
  (0.192036 -0.11575 0)
  (0.175247 -0.127821 0)
  (0.156241 -0.140237 0)
  (0.13627 -0.153772 0)
  (0.116297 -0.169004 0)
  (0.0968065 -0.18634 0)
  (0.0791889 -0.207077 0)
  (0.0258491 -0.229702 0)
  (-0.0730817 -0.214256 0)
  (-0.0764212 -0.200444 0)
  (-0.0816898 -0.197524 0)
  (-0.0916336 -0.195601 0)
  (-0.102162 -0.192525 0)
  (-0.111093 -0.188592 0)
  (-0.118394 -0.183306 0)
  (-0.124066 -0.175867 0)
  (-0.127772 -0.165452 0)
  (-0.128941 -0.151078 0)
  (-0.126692 -0.131436 0)
  (-0.119185 -0.110005 0)
  (-0.102627 -0.0865406 0)
  (-0.0741913 -0.0609859 0)
  (-0.0360825 -0.0327664 0)
  (0.0325968 0.00205182 0)
  (0.0889473 0.000592807 0)
  (0.143044 -0.0281064 0)
  (0.191888 -0.0805641 0)
  (-0.139774 -0.157852 0)
)
;

boundaryField
{
  floor
  {
    type noSlip;
  }
  ceiling
  {
    type noSlip;
  }
  sWall
  {
    type noSlip;
  }
  nWall
  {
    type noSlip;
  }
  sideWalls
  {
    type empty;
  }
  glass1
  {
    type noSlip;
  }
  glass2
  {
    type noSlip;
  }
  sun
  {
    type noSlip;
  }
  heatsource1
  {
    type noSlip;
  }
  heatsource2
  {
    type noSlip;
  }
  Table_master
  {
    type noSlip;
  }
  Table_slave
  {
    type noSlip;
  }
  inlet
  {
    type fixedValue;
    value uniform (0.3 0 0);
  }
  outlet
  {
    type zeroGradient;
  }
} 	// ************************************************************************* //

