/*--------------------------------*- C++ -*----------------------------------*\
  =========                 |
  \\      /  F ield         | OpenFOAM: The Open Source CFD Toolbox
   \\    /   O peration     | Website:  https://openfoam.org
    \\  /    A nd           | Version:  6
     \\/     M anipulation  |
\*---------------------------------------------------------------------------*/
FoamFile
{
    version     2.0;
    format      ascii;
    class       surfaceScalarField;
    location    "1500";
    object      phi;
}
// * * * * * * * * * * * * * * * * * * * * * * * * * * * * * * * * * * * * * //

dimensions      [1 0 -1 0 0 0 0];

internalField   nonuniform List<scalar> 
852
(
-0.00295883
0.00301614
-0.00399989
0.00104106
-0.0048003
0.00080041
-0.00542332
0.000623018
-0.00583548
0.000412157
-0.00600869
0.000173207
-0.00591479
-9.38997e-05
-0.00553196
-0.000382824
-0.00487642
-0.000655538
-0.00401358
-0.00086284
-0.00304371
-0.000969873
-0.00207872
-0.000964986
-0.00122112
-0.000857608
-0.000533639
-0.000687477
-0.000531977
-0.000779072
0.000782039
-0.000525639
-0.000253433
6.89214e-05
-0.00059456
0.000572176
-0.000503254
0.000922842
-0.000350666
0.00115243
-0.000229585
0.0012807
-0.00012827
0.00134267
-6.19739e-05
0.00137699
-3.43188e-05
0.00139833
-2.13443e-05
0.00141053
-1.21983e-05
0.00141515
-4.61245e-06
0.00141098
4.1622e-06
0.00139035
2.06295e-05
0.00133215
5.82026e-05
0.00120077
0.000131379
0.00098385
0.000216922
0.000716584
0.000267266
0.00072055
-0.00211962
0.00529018
-0.00314028
0.00206173
-0.00396924
0.00162936
-0.00458848
0.00124227
-0.0049991
0.000822776
-0.00518193
0.000356031
-0.00510555
-0.000170277
-0.00475244
-0.000735938
-0.00415134
-0.00125664
-0.00337824
-0.00163593
-0.00253155
-0.00181656
-0.00170601
-0.00179053
-0.000982191
-0.00158142
-0.000433653
-0.00123602
-0.000164161
-0.00080147
0.000121353
-0.000285565
0.000121301
0.000248987
0.000541702
0.000654526
-0.000658971
0.000923674
-0.000863709
0.00114963
-0.000729207
0.00132998
-0.000531016
0.00144705
-0.000346662
0.00146811
-0.000149324
0.0014732
-6.70683e-05
0.00147936
-4.04791e-05
0.00148452
-2.6498e-05
0.00148791
-1.55879e-05
0.00148972
-6.42652e-06
0.00148939
4.48711e-06
0.00148355
2.64721e-05
0.00144471
9.70414e-05
0.00127829
0.0002978
0.000988822
0.000506392
0.000625148
0.00063094
0.00135581
-0.00148966
0.00701611
-0.00237244
0.00294451
-0.003113
0.00236993
-0.00364864
0.0017779
-0.00401338
0.00118751
-0.00418287
0.00052552
-0.00410288
-0.000250263
-0.003748
-0.00109081
-0.00317276
-0.00183188
-0.00247082
-0.00233788
-0.00173735
-0.00255004
-0.00104482
-0.00248306
-0.000445196
-0.00218105
2.73525e-05
-0.00170856
0.000338266
-0.00111238
0.00047697
-0.000424269
0.000598272
0.00149295
-0.00094177
0.00171301
-0.000879032
0.00167206
-0.000822762
0.0016617
-0.000718844
0.00168734
-0.00055666
0.00173153
-0.000390843
0.00158235
0.00151544
0.00147511
0.00144877
0.00143333
0.00142706
0.0014317
0.00145833
0.00155552
0.0012856
0.000567726
0.000954678
0.000837309
0.000536677
0.00104894
0.0019078
-0.00104299
0.00836506
-0.00174479
0.00364631
-0.00224268
0.00286782
-0.0026016
0.00213683
-0.00285293
0.00143884
-0.00295963
0.000632221
-0.00282509
-0.000384806
-0.00243333
-0.00148257
-0.00188594
-0.00237927
-0.00128533
-0.00293848
-0.000707123
-0.00312824
-0.000190726
-0.00299945
0.000248133
-0.00261991
0.000610434
-0.00207086
0.000933203
-0.00143515
0.00129761
-0.000788678
0.00214722
-0.000251338
0.00250049
-0.000344914
0.00215123
-0.000592504
0.00201535
-0.000743151
0.00188544
-0.000692858
0.00176872
-0.000602123
0.00169406
-0.000481998
0.00163277
-0.000329554
0.00177494
-0.000142325
0.00186164
-8.68473e-05
0.00193102
-6.9533e-05
0.00198535
-5.44796e-05
0.00201068
-2.54902e-05
0.00198532
2.52091e-05
0.00188364
0.000101531
0.00167204
0.000211439
0.00129536
0.000376535
0.00113628
0.000726804
0.000825887
0.0011477
0.000361422
0.00151341
0.00228919
-0.000728649
0.00945886
-0.00126178
0.00417944
-0.00138412
0.00299016
-0.0014776
0.0022303
-0.00153977
0.00150102
-0.00150016
0.00059261
-0.00122505
-0.000659919
-0.000783861
-0.00192376
-0.000308075
-0.00285505
0.000123508
-0.00337007
0.000476702
-0.00348143
0.000746921
-0.00326967
0.000956242
-0.00282923
0.00113425
-0.00224888
0.00131509
-0.00161599
0.00154667
-0.00102025
0.00187263
-0.000577302
0.00197838
-0.000450662
0.00189618
-0.000510299
0.00171957
-0.000566544
0.00156013
-0.000533422
0.00142326
-0.000465247
0.00132256
-0.000381305
0.00127413
-0.000281116
0.0013163
-0.000184503
0.00136997
-0.000140512
0.00142808
-0.00012764
0.00148744
-0.000113842
0.00153765
-7.57017e-05
0.00155851
4.34999e-06
0.00152835
0.000131692
0.00143482
0.000304962
0.00127862
0.000532743
0.00113311
0.000872306
0.000969736
0.00131108
0.000617307
0.00186584
0.000521608
0.00238489
-0.000985083
0.00150649
-0.00144981
0.000464523
-0.00140145
-0.000630789
0.0105047
-0.000996628
0.00454528
-0.00060273
0.00259626
-0.000309516
0.00193709
-9.50788e-05
0.00128658
0.000229639
0.000267893
0.000710887
-0.00114117
0.00114862
-0.00236149
0.00146094
-0.00316738
0.00163409
-0.00354322
0.001694
-0.00354134
0.00167286
-0.00324854
0.00160354
-0.00275991
0.00152367
-0.002169
0.00146649
-0.00155882
0.00145698
-0.00101074
0.00148816
-0.000608488
0.00145632
-0.000418822
0.00133135
-0.000385329
0.00115238
-0.000387574
0.000987697
-0.000368736
0.000856145
-0.000333695
0.000766018
-0.000291179
0.000728281
-0.000243379
0.000746946
-0.000203169
0.000796892
-0.000190458
0.000863747
-0.000194494
0.000941612
-0.000191707
0.00102444
-0.000158531
0.00110108
-7.22859e-05
0.00115295
7.98183e-05
0.00117414
0.000283774
0.00117338
0.000533507
0.00119512
0.000850561
0.00128585
0.00122035
0.00146196
0.00168972
0.00190199
0.00194486
0.00216269
0.00124579
0.0017727
0.000854511
0.000429363
-0.000716415
0.0116807
-0.000601968
0.00443083
0.000473991
0.0015203
0.00115206
0.00125902
0.00172749
0.000711144
0.0023732
-0.00037782
0.00292622
-0.00169418
0.00323104
-0.00266631
0.00328174
-0.00321808
0.00312419
-0.00338567
0.00282266
-0.00323981
0.0024413
-0.00286718
0.00203524
-0.00235385
0.00165287
-0.00178663
0.0013269
-0.00123285
0.00107748
-0.000761313
0.00090133
-0.000432342
0.000751262
-0.000268755
0.000591788
-0.000225855
0.000430751
-0.000226537
0.000291439
-0.000229424
0.000185368
-0.000227624
0.000117226
-0.000223036
9.16678e-05
-0.000217821
0.000107455
-0.000218956
0.000150981
-0.000233984
0.000211407
-0.00025492
0.000286678
-0.000266978
0.000380594
-0.000252447
0.000498095
-0.000189787
0.000627978
-5.00646e-05
0.00075858
0.000153171
0.00089904
0.000393047
0.00108736
0.000662238
0.00137025
0.000937464
0.00181343
0.00124654
0.00248292
0.00127537
0.00302711
0.000701597
0.00304552
0.000836102
0.0035374
0.00260304
0.00959122
0.00328109
0.00375278
0.00344606
0.00135533
0.00389912
0.000805963
0.00459058
1.96887e-05
0.00528231
-0.00106955
0.00556358
-0.00197545
0.00543767
-0.0025404
0.0049926
-0.00277301
0.00433331
-0.00272638
0.0035623
-0.0024688
0.00276598
-0.00207087
0.00200518
-0.00159305
0.00133486
-0.00111631
0.000781859
-0.000679846
0.000368823
-0.000348277
9.40746e-05
-0.000157593
-8.88073e-05
-8.58732e-05
-0.000229432
-8.52305e-05
-0.000348574
-0.000107395
-0.000447151
-0.000130847
-0.000522645
-0.00015213
-0.000573849
-0.000171833
-0.000600133
-0.000191536
-0.000604455
-0.000214633
-0.000595633
-0.000242807
-0.000579789
-0.000270765
-0.000556624
-0.000290143
-0.00051812
-0.00029095
-0.000445885
-0.000262022
-0.000309615
-0.000186335
-0.000122387
-3.40569e-05
9.7947e-05
0.000172713
0.000370958
0.000389227
0.000707118
0.000601304
0.00114701
0.000806647
0.00162245
0.000799934
0.00181528
0.000508764
0.00106881
0.00158257
0.00486436
0.0101549
0.0139004
0.0122288
0.00302694
0.0113299
0.00170484
0.010595
0.000754599
0.0097022
-0.000176732
0.00855273
-0.000825974
0.00725368
-0.00124135
0.00589935
-0.00141867
0.00455895
-0.00138599
0.00329574
-0.00120559
0.00215949
-0.000934621
0.00116214
-0.000595698
0.000345392
-0.000299556
-0.000255664
-7.87903e-05
-0.000628959
2.50174e-05
-0.000831095
4.45425e-05
-0.000946549
2.95813e-05
-0.00103251
7.30344e-07
-0.00110959
-3.03174e-05
-0.00118029
-6.01401e-05
-0.00124404
-8.83843e-05
-0.0013011
-0.000114774
-0.0013529
-0.000139736
-0.00140349
-0.000164038
-0.00146023
-0.000186072
-0.00153058
-0.000200416
-0.00162202
-0.000198698
-0.00174357
-0.000169402
-0.00190686
-9.87275e-05
-0.00211924
2.60447e-05
-0.00236772
0.000214418
-0.00267647
0.000481469
-0.00313102
0.000843776
-0.00382741
0.00129769
-0.00483049
0.00180972
-0.00625458
0.00222402
-0.00796998
0.00222417
-0.00746414
0.00107674
-0.00231376
0.0050992
0.00455648
0.00409281
0.00271123
0.0044903
0.00035711
0.00452952
-0.000215953
0.00412081
-0.000417265
0.00343523
-0.000555773
0.0025866
-0.000570038
0.00166744
-0.000466827
0.000751388
-0.000289536
-0.000106673
-7.656e-05
-0.000802218
9.98465e-05
-0.00125716
0.000155382
-0.00150279
0.000166848
-0.00162357
0.000145788
-0.00169065
0.000111628
-0.00173836
7.72891e-05
-0.00178308
4.54475e-05
-0.00183137
1.79723e-05
-0.00188672
-4.78822e-06
-0.00194929
-2.58132e-05
-0.00201854
-4.55227e-05
-0.00209551
-6.27687e-05
-0.00218177
-7.77744e-05
-0.00227943
-8.84121e-05
-0.00238964
-9.02058e-05
-0.00251129
-7.70495e-05
-0.00263978
-4.09079e-05
-0.00276651
2.79993e-05
-0.00287939
0.000138929
-0.00297606
0.000311083
-0.00306475
0.000570162
-0.00315225
0.000931276
-0.00323625
0.00138169
-0.00327047
0.00184394
-0.0031964
0.00214996
-0.00283422
0.00186198
-0.00156274
-0.000194741
-0.00380167
-0.00040938
0.00502262
0.000863789
0.00143806
0.000821169
0.000399729
0.000544824
6.0392e-05
0.000163794
-3.6235e-05
-0.000360319
-3.16604e-05
-0.000948892
1.85344e-05
-0.00149721
8.14923e-05
-0.00192575
0.000138998
-0.00218486
0.000182554
-0.00228701
0.000201999
-0.00232036
0.000188734
-0.00231664
0.000163127
-0.00230512
0.000134263
-0.00230156
0.000108069
-0.00230999
8.57199e-05
-0.00233033
6.57843e-05
-0.00236
4.76496e-05
-0.00239602
3.12247e-05
-0.00243854
1.67139e-05
-0.00248713
3.06153e-06
-0.00254112
-8.78159e-06
-0.00260033
-1.85608e-05
-0.00266338
-2.53579e-05
-0.00272652
-2.70664e-05
-0.002783
-2.05746e-05
-0.00282213
-1.7775e-06
-0.00283209
3.79621e-05
-0.00280043
0.000107273
-0.00270402
0.000214672
-0.00250996
0.000376095
-0.00219086
0.000612177
-0.00173144
0.000922273
-0.0011079
0.0012204
-0.000140816
0.00118287
0.00116021
0.000560956
0.00157277
-0.000607304
-0.00214676
0.000277348
-0.0107875
-0.00572087
-0.00425991
-0.00384609
-0.00377651
-0.00380667
-0.00383455
-0.00381394
-0.00373169
-0.00359301
-0.00341172
-0.0032118
-0.00302583
-0.00286604
-0.00273557
-0.00263164
-0.00255035
-0.0024892
-0.00244633
-0.00241996
-0.00240815
-0.00240998
-0.00242361
-0.00244696
-0.00247702
-0.00250868
-0.00253373
-0.00253986
-0.00250609
-0.00240286
-0.00219207
-0.00181971
-0.00121113
-0.000292343
0.000924613
0.00210394
0.00266117
0.00204988
)
;

boundaryField
{
    floor
    {
        type            calculated;
        value           nonuniform List<scalar> 
29
(
0
0
0
0
0
0
0
0
0
0
0
0
0
0
0
0
0
0
0
0
-3.96572e-06
-1.01103e-05
-1.53137e-05
-1.99687e-05
-1.66173e-06
-2.96747e-06
-8.64988e-06
-9.47854e-06
-8.35769e-06
)
;
    }
    ceiling
    {
        type            calculated;
        value           nonuniform List<scalar> 
43
(
-2.34092e-05
-4.36631e-05
-4.40393e-05
-2.2902e-05
-1.40859e-05
-9.18415e-06
-6.07607e-06
-3.78555e-06
-2.07062e-06
-7.65429e-07
3.23873e-07
1.26255e-06
2.07735e-06
2.76951e-06
3.33558e-06
3.78776e-06
4.14625e-06
4.42717e-06
4.63452e-06
4.77774e-06
4.85998e-06
4.89592e-06
4.89304e-06
4.8539e-06
4.78637e-06
4.69763e-06
4.59595e-06
4.47844e-06
4.34872e-06
4.19672e-06
4.03705e-06
3.88297e-06
3.73403e-06
3.59608e-06
3.4901e-06
3.44523e-06
3.53863e-06
3.72693e-06
3.98886e-06
5.045e-06
1.02749e-05
7.22933e-06
-5.67682e-05
)
;
    }
    sWall
    {
        type            calculated;
        value           uniform -0.000230196;
    }
    nWall
    {
        type            calculated;
        value           nonuniform List<scalar> 6(-4.85655e-05 -5.81081e-05 -6.25218e-05 -7.48353e-05 -8.21277e-05 -0.000101929);
    }
    sideWalls
    {
        type            empty;
        value           nonuniform 0();
    }
    glass1
    {
        type            calculated;
        value           nonuniform List<scalar> 9(-5.7306e-05 -0.000154423 -0.000236273 -0.000305968 -0.000365146 -0.000415025 -0.000459615 -0.00051356 -0.000573932);
    }
    glass2
    {
        type            calculated;
        value           nonuniform List<scalar> 2(-0.000258143 -0.000286025);
    }
    sun
    {
        type            calculated;
        value           uniform 0;
    }
    heatsource1
    {
        type            calculated;
        value           nonuniform List<scalar> 3(2.04187e-07 2.04129e-07 2.04147e-07);
    }
    heatsource2
    {
        type            calculated;
        value           nonuniform List<scalar> 4(5.11925e-08 5.12764e-08 0 0);
    }
    Table_master
    {
        type            calculated;
        value           nonuniform List<scalar> 9(-1.53137e-07 -1.53228e-07 -1.53261e-07 -1.53283e-07 -1.53298e-07 -1.53309e-07 -1.53314e-07 -1.53309e-07 -1.53279e-07);
    }
    Table_slave
    {
        type            calculated;
        value           nonuniform List<scalar> 9(1.53015e-07 1.53034e-07 1.53013e-07 1.52995e-07 1.52988e-07 1.52991e-07 1.53005e-07 1.53047e-07 1.53128e-07);
    }
    inlet
    {
        type            calculated;
        value           uniform -0.00662873;
    }
    outlet
    {
        type            calculated;
        value           nonuniform List<scalar> 2(-2.37434e-05 0.0111085);
    }
}


// ************************************************************************* //
