/*--------------------------------*- C++ -*----------------------------------*\
  =========                 |
  \\      /  F ield         | OpenFOAM: The Open Source CFD Toolbox
   \\    /   O peration     | Website:  https://openfoam.org
    \\  /    A nd           | Version:  6
     \\/     M anipulation  |
\*---------------------------------------------------------------------------*/
FoamFile
{
    version     2.0;
    format      ascii;
    class       volVectorField;
    location    "1500";
    object      U;
}
// * * * * * * * * * * * * * * * * * * * * * * * * * * * * * * * * * * * * * //

dimensions      [0 1 -1 0 0 0 0];

internalField   nonuniform List<vector> 
459
(
(0.0341068 0.0859109 0)
(-0.167137 0.025511 0)
(-0.191935 0.0178477 0)
(-0.222949 0.0121304 0)
(-0.24537 0.00582595 0)
(-0.258099 -0.000881594 0)
(-0.259438 -0.00806092 0)
(-0.248129 -0.0157362 0)
(-0.224774 -0.0231994 0)
(-0.191295 -0.0291143 0)
(-0.151448 -0.0323776 0)
(-0.109653 -0.0324522 0)
(-0.0701677 -0.0294882 0)
(-0.0381533 -0.0246128 0)
(-0.0275152 -0.0196691 0)
(-0.00656382 0.00896244 0)
(-0.0293099 -0.0166419 0)
(-0.00769798 -0.0265825 0)
(0.0160628 -0.020623 0)
(0.0316752 -0.0142161 0)
(0.0445779 -0.00926271 0)
(0.052759 -0.00539507 0)
(0.0570325 -0.00335743 0)
(0.0589615 -0.00254382 0)
(0.0599188 -0.00219863 0)
(0.0605196 -0.00198118 0)
(0.0608636 -0.00180352 0)
(0.0608919 -0.00159231 0)
(0.0604181 -0.00117307 0)
(0.0589125 -0.000183805 0)
(0.0552406 0.0018864 0)
(0.0481625 0.00409415 0)
(0.0416505 0.00589806 0)
(-0.0129216 0.0204142 0)
(0.208609 0.17602 0)
(-0.156281 0.0675001 0)
(-0.154802 0.05307 0)
(-0.186965 0.0412042 0)
(-0.209245 0.0277342 0)
(-0.222286 0.0125392 0)
(-0.224343 -0.00469915 0)
(-0.214002 -0.0233723 0)
(-0.192468 -0.0408589 0)
(-0.162078 -0.0540508 0)
(-0.126717 -0.0608278 0)
(-0.0904683 -0.0605713 0)
(-0.0568939 -0.0538865 0)
(-0.0293956 -0.0424008 0)
(-0.0119447 -0.0286501 0)
(0.00191035 -0.0106631 0)
(0.000530186 0.0156861 0)
(0.0607117 0.0365582 0)
(0.024455 -0.0180809 0)
(0.0331733 -0.0314985 0)
(0.0443826 -0.028169 0)
(0.0534275 -0.0203999 0)
(0.0601374 -0.0128821 0)
(0.0630847 -0.00550923 0)
(0.0636668 -0.00126064 0)
(0.0636197 0.000503679 0)
(0.0637283 0.00127059 0)
(0.0639348 0.00174358 0)
(0.0640856 0.00213408 0)
(0.0641397 0.00260328 0)
(0.0640506 0.00347955 0)
(0.0633141 0.00561635 0)
(0.059623 0.0115475 0)
(0.0502584 0.0165192 0)
(0.0457155 0.0198872 0)
(-0.0491383 0.0442782 0)
(0.368772 0.263426 0)
(-0.173136 0.107528 0)
(-0.116262 0.085899 0)
(-0.14764 0.0647363 0)
(-0.167531 0.0425467 0)
(-0.179736 0.0178593 0)
(-0.181497 -0.0101722 0)
(-0.170512 -0.0400697 0)
(-0.149261 -0.0671537 0)
(-0.120993 -0.0863722 0)
(-0.0897899 -0.0950448 0)
(-0.0591472 -0.0931165 0)
(-0.0313397 -0.0820136 0)
(-0.00842342 -0.0640015 0)
(0.00860694 -0.0404595 0)
(0.0197562 -0.0140396 0)
(0.0239296 0.0232155 0)
(0.110173 -0.026458 0)
(0.0744763 -0.0375632 0)
(0.069055 -0.0384123 0)
(0.0705821 -0.0331296 0)
(0.0719835 -0.0252563 0)
(0.0733818 -0.0183384 0)
(0.0721968 -0.0146348 0)
(0.0674799 -0.0103068 0)
(0.0640341 -0.00794169 0)
(0.0624765 -0.00658984 0)
(0.0618099 -0.00571723 0)
(0.0614677 -0.00511135 0)
(0.0614322 -0.00458489 0)
(0.062146 -0.00375341 0)
(0.0647262 -0.000675954 0)
(0.0627301 0.016137 0)
(0.049736 0.0278426 0)
(0.0519468 0.0358 0)
(-0.0811167 0.0690984 0)
(0.513387 0.333746 0)
(-0.207894 0.143021 0)
(-0.0753281 0.113882 0)
(-0.105395 0.0848278 0)
(-0.119869 0.0563766 0)
(-0.128908 0.0239724 0)
(-0.127713 -0.0147117 0)
(-0.113684 -0.0564236 0)
(-0.0920779 -0.0923426 0)
(-0.0668998 -0.115925 0)
(-0.0416626 -0.124973 0)
(-0.0187113 -0.120807 0)
(0.0017318 -0.105545 0)
(0.0185523 -0.0827368 0)
(0.0328423 -0.0558672 0)
(0.0481296 -0.0267946 0)
(0.0696956 0.00510902 0)
(0.100456 0.0164421 0)
(0.105556 -0.0226074 0)
(0.0919195 -0.0334338 0)
(0.0829334 -0.0328484 0)
(0.0778136 -0.0288153 0)
(0.0739593 -0.0228068 0)
(0.0713376 -0.0151431 0)
(0.0725271 -0.00916633 0)
(0.0775065 -0.00684742 0)
(0.0817439 -0.0055648 0)
(0.0845452 -0.00466264 0)
(0.0862626 -0.00366058 0)
(0.0864644 -0.00225876 0)
(0.0840231 -0.000195785 0)
(0.0776754 0.00283442 0)
(0.0649055 0.00736277 0)
(0.0526539 0.0266726 0)
(0.0405505 0.0429856 0)
(0.0560069 0.0559379 0)
(-0.114428 0.0913397 0)
(0.638621 0.388215 0)
(-0.250465 0.172001 0)
(-0.0345672 0.13006 0)
(-0.0611581 0.0963534 0)
(-0.0676205 0.0644315 0)
(-0.0706672 0.0268989 0)
(-0.0606855 -0.0215197 0)
(-0.0414721 -0.0740992 0)
(-0.0209028 -0.115242 0)
(-0.00164078 -0.139388 0)
(0.014577 -0.145813 0)
(0.0269791 -0.137997 0)
(0.0367061 -0.120096 0)
(0.0445622 -0.0956665 0)
(0.0518474 -0.0682236 0)
(0.0605376 -0.0415577 0)
(0.0733664 -0.0219653 0)
(0.0840671 -0.0211379 0)
(0.0851823 -0.0289027 0)
(0.078795 -0.0297795 0)
(0.0705636 -0.0269326 0)
(0.063756 -0.0231036 0)
(0.0585854 -0.0185472 0)
(0.0554121 -0.0131608 0)
(0.0551379 -0.00734215 0)
(0.0574555 -0.00451351 0)
(0.0601627 -0.00349823 0)
(0.0627468 -0.00272588 0)
(0.0651176 -0.00115416 0)
(0.0669345 0.00182637 0)
(0.0669695 0.0063338 0)
(0.0646051 0.0125294 0)
(0.0592351 0.0210492 0)
(0.0523765 0.0362348 0)
(0.0422949 0.0542428 0)
(0.0643901 0.0743629 0)
(-0.0214029 0.103482 0)
(0.0463876 0.0324017 0)
(-0.061991 -0.0344493 0)
(-0.272434 -0.057105 0)
(0.729747 0.433627 0)
(-0.29205 0.191504 0)
(-0.00333996 0.126639 0)
(-0.0159931 0.0976135 0)
(-0.0118973 0.0668674 0)
(-0.00623705 0.0238398 0)
(0.0224681 -0.0387368 0)
(0.0442795 -0.0944509 0)
(0.0597878 -0.132588 0)
(0.0691631 -0.151897 0)
(0.0730772 -0.154343 0)
(0.0729412 -0.143514 0)
(0.0702625 -0.123448 0)
(0.066551 -0.0981318 0)
(0.0632936 -0.0712299 0)
(0.061899 -0.0464118 0)
(0.0632175 -0.0279526 0)
(0.0640882 -0.0206786 0)
(0.0608308 -0.0203444 0)
(0.0538388 -0.0204891 0)
(0.0459146 -0.019104 0)
(0.0392591 -0.0168766 0)
(0.0344109 -0.0141623 0)
(0.0316665 -0.0110215 0)
(0.031298 -0.00807137 0)
(0.0329562 -0.006926 0)
(0.0355825 -0.00679603 0)
(0.0387136 -0.00644055 0)
(0.0421619 -0.00483614 0)
(0.0456591 -0.00110163 0)
(0.0488622 0.0051217 0)
(0.0505537 0.0134809 0)
(0.0509902 0.0241272 0)
(0.0515252 0.0385587 0)
(0.0503699 0.056293 0)
(0.0728476 0.0790428 0)
(0.0525248 0.0969714 0)
(0.0932495 0.0678562 0)
(0.116146 0.0446284 0)
(-0.12896 -0.0070375 0)
(0.781814 0.474902 0)
(-0.312995 0.176958 0)
(0.0235203 0.0771538 0)
(0.042681 0.0738158 0)
(0.0578495 0.0522165 0)
(0.0846278 0.000966332 0)
(0.118708 -0.0631227 0)
(0.137943 -0.11188 0)
(0.144301 -0.141311 0)
(0.140469 -0.152859 0)
(0.129195 -0.149497 0)
(0.113404 -0.134981 0)
(0.0956708 -0.113188 0)
(0.0782387 -0.0880143 0)
(0.0627898 -0.0626608 0)
(0.0505659 -0.040246 0)
(0.0420028 -0.0238806 0)
(0.0355539 -0.0156708 0)
(0.0290433 -0.0133751 0)
(0.0219754 -0.0130555 0)
(0.0152797 -0.0125485 0)
(0.00988016 -0.0117299 0)
(0.00609279 -0.0107455 0)
(0.0040957 -0.00966675 0)
(0.00397521 -0.00892026 0)
(0.00537591 -0.00913752 0)
(0.00765193 -0.00980877 0)
(0.0105184 -0.0100773 0)
(0.0140066 -0.00905145 0)
(0.0182312 -0.00573418 0)
(0.0241 0.000924726 0)
(0.0301231 0.0101063 0)
(0.0357842 0.020904 0)
(0.042922 0.0337837 0)
(0.0506932 0.0484325 0)
(0.0727601 0.0668339 0)
(0.0860041 0.0745145 0)
(0.118334 0.051938 0)
(0.158021 0.0439941 0)
(-0.0351505 0.0940124 0)
(0.886502 0.477561 0)
(-0.0705462 0.156581 0)
(0.106104 0.00384044 0)
(0.169297 -0.0166433 0)
(0.182367 -0.0355895 0)
(0.217999 -0.0696254 0)
(0.239754 -0.102321 0)
(0.242202 -0.125644 0)
(0.228148 -0.137097 0)
(0.202538 -0.136916 0)
(0.170247 -0.126872 0)
(0.135502 -0.109599 0)
(0.101345 -0.0877907 0)
(0.0702685 -0.0646988 0)
(0.043726 -0.0427292 0)
(0.0230866 -0.0244882 0)
(0.00879467 -0.0124905 0)
(-0.000505508 -0.00717582 0)
(-0.00708621 -0.00627595 0)
(-0.0126127 -0.00683079 0)
(-0.0173531 -0.00745885 0)
(-0.0211311 -0.00797184 0)
(-0.0238631 -0.0084285 0)
(-0.025496 -0.00892296 0)
(-0.0260746 -0.00967486 0)
(-0.0259015 -0.0108304 0)
(-0.0253571 -0.0121097 0)
(-0.0245768 -0.0130716 0)
(-0.0234161 -0.0132058 0)
(-0.0214999 -0.0119382 0)
(-0.0178731 -0.00850008 0)
(-0.00918791 -0.00215375 0)
(-0.000329778 0.00625505 0)
(0.0102999 0.0146599 0)
(0.0219946 0.0217794 0)
(0.0417559 0.0291026 0)
(0.0603147 0.0221202 0)
(0.079796 -0.00530474 0)
(0.138779 0.0403623 0)
(-0.413692 0.206834 0)
(1.03163 0.429947 0)
(0.496762 0.285066 0)
(0.503037 0.191387 0)
(0.511594 0.119891 0)
(0.487 0.0683892 0)
(0.444113 0.0149811 0)
(0.394058 -0.0332576 0)
(0.340508 -0.0673582 0)
(0.283169 -0.0848671 0)
(0.224468 -0.0878485 0)
(0.167714 -0.0803494 0)
(0.115669 -0.0663737 0)
(0.0693524 -0.0486777 0)
(0.030656 -0.0306691 0)
(-0.000862892 -0.0145438 0)
(-0.0215711 -0.0046112 0)
(-0.0326195 -0.000899336 0)
(-0.0387271 -0.000419989 0)
(-0.0427063 -0.00140394 0)
(-0.0461871 -0.0027604 0)
(-0.0493774 -0.00408722 0)
(-0.0522816 -0.005327 0)
(-0.0548747 -0.00651267 0)
(-0.0571777 -0.00769625 0)
(-0.0593142 -0.00895048 0)
(-0.0615587 -0.0102535 0)
(-0.0642449 -0.0113803 0)
(-0.0676767 -0.011958 0)
(-0.0721824 -0.0114527 0)
(-0.0782248 -0.0091709 0)
(-0.0864049 -0.00428281 0)
(-0.0967903 0.00383018 0)
(-0.107365 0.0146853 0)
(-0.122639 0.0284375 0)
(-0.146721 0.0451302 0)
(-0.182131 0.0635668 0)
(-0.232158 0.0796844 0)
(-0.289119 0.090873 0)
(-0.357745 0.0971354 0)
(-0.619909 0.0991655 0)
(-0.148074 0.0827255 0)
(0.13465 0.0615469 0)
(0.217878 0.00577128 0)
(0.201348 -0.0290073 0)
(0.185585 -0.0432485 0)
(0.163031 -0.0478141 0)
(0.130516 -0.0460937 0)
(0.0919408 -0.0396285 0)
(0.0520773 -0.029837 0)
(0.0141031 -0.0175542 0)
(-0.0231142 -0.00382631 0)
(-0.046797 0.00379938 0)
(-0.0612258 0.00718662 0)
(-0.0682355 0.00758273 0)
(-0.07166 0.0067804 0)
(-0.0739096 0.00576704 0)
(-0.075843 0.00476643 0)
(-0.0777705 0.00383851 0)
(-0.0799976 0.00292138 0)
(-0.0825671 0.00188802 0)
(-0.0854014 0.00078724 0)
(-0.0885263 -0.000319854 0)
(-0.0920157 -0.00135253 0)
(-0.0959676 -0.00215228 0)
(-0.10046 -0.00246474 0)
(-0.105498 -0.0019755 0)
(-0.110988 -0.000326143 0)
(-0.116712 0.00284211 0)
(-0.122073 0.00796658 0)
(-0.126271 0.0157943 0)
(-0.129753 0.0274518 0)
(-0.132762 0.0433218 0)
(-0.136108 0.0625078 0)
(-0.1403 0.0813417 0)
(-0.142149 0.0899357 0)
(-0.124826 0.067472 0)
(-0.0810732 -0.0256575 0)
(-0.278762 -0.203482 0)
(-0.0203661 0.232426 0)
(0.0636804 0.0998508 0)
(0.0378193 0.0192236 0)
(0.0254851 -0.00442434 0)
(0.0159906 -0.00984327 0)
(-0.00273458 -0.011183 0)
(-0.0277198 -0.00867575 0)
(-0.0534252 -0.00407839 0)
(-0.075174 0.000426835 0)
(-0.0901338 0.00341727 0)
(-0.0973135 0.00365014 0)
(-0.0998484 0.00139421 0)
(-0.1002 -0.00160007 0)
(-0.0996032 -0.0049847 0)
(-0.0991432 -0.00843299 0)
(-0.0992177 -0.011708 0)
(-0.0998577 -0.0146841 0)
(-0.100966 -0.0171471 0)
(-0.102403 -0.0189413 0)
(-0.104084 -0.0200352 0)
(-0.106048 -0.0205248 0)
(-0.108259 -0.020424 0)
(-0.110716 -0.0199692 0)
(-0.113395 -0.0192141 0)
(-0.116194 -0.0180451 0)
(-0.118884 -0.0162311 0)
(-0.121102 -0.0133925 0)
(-0.122336 -0.00895656 0)
(-0.122053 -0.00271106 0)
(-0.119282 0.00587369 0)
(-0.11258 0.0176607 0)
(-0.100662 0.0334032 0)
(-0.0832377 0.0526634 0)
(-0.0611936 0.0713348 0)
(-0.037394 0.082277 0)
(0.00266794 0.0665989 0)
(0.143313 -0.00457459 0)
(-0.207348 -0.11418 0)
(0.940256 -0.000199549 0)
(-0.52902 -0.460972 0)
(-0.317425 0.0894556 0)
(-0.227898 -0.0196111 0)
(-0.18031 -0.0411018 0)
(-0.165789 -0.0290227 0)
(-0.163347 -0.0160428 0)
(-0.164647 -0.0057136 0)
(-0.165172 0.00291191 0)
(-0.162887 0.0104682 0)
(-0.158152 0.0174039 0)
(-0.151093 0.0237061 0)
(-0.142651 0.0291116 0)
(-0.134255 0.0336405 0)
(-0.126757 0.0378648 0)
(-0.120485 0.0419963 0)
(-0.115446 0.0461114 0)
(-0.111471 0.0500204 0)
(-0.108417 0.053361 0)
(-0.106188 0.0558007 0)
(-0.1047 0.0571163 0)
(-0.103881 0.0572802 0)
(-0.103675 0.056395 0)
(-0.104028 0.054565 0)
(-0.104861 0.0522335 0)
(-0.106075 0.0496478 0)
(-0.107507 0.0469427 0)
(-0.108891 0.0442002 0)
(-0.109806 0.0414924 0)
(-0.109576 0.0388694 0)
(-0.106952 0.0371992 0)
(-0.100048 0.0371862 0)
(-0.0863996 0.039576 0)
(-0.0641462 0.0452685 0)
(-0.033891 0.0547882 0)
(0.0144512 0.0677756 0)
(0.0590868 0.069042 0)
(0.10163 0.0543787 0)
(0.163812 0.025366 0)
(-0.219274 -0.0294469 0)
)
;

boundaryField
{
    floor
    {
        type            noSlip;
    }
    ceiling
    {
        type            noSlip;
    }
    sWall
    {
        type            noSlip;
    }
    nWall
    {
        type            noSlip;
    }
    sideWalls
    {
        type            empty;
    }
    glass1
    {
        type            noSlip;
    }
    glass2
    {
        type            noSlip;
    }
    sun
    {
        type            noSlip;
    }
    heatsource1
    {
        type            noSlip;
    }
    heatsource2
    {
        type            noSlip;
    }
    Table_master
    {
        type            noSlip;
    }
    Table_slave
    {
        type            noSlip;
    }
    inlet
    {
        type            fixedValue;
        value           uniform (0.3 0 0);
    }
    outlet
    {
        type            zeroGradient;
    }
}


// ************************************************************************* //
