/*--------------------------------*- C++ -*----------------------------------*\
  =========                 |
  \\      /  F ield         | OpenFOAM: The Open Source CFD Toolbox
   \\    /   O peration     | Website:  https://openfoam.org
    \\  /    A nd           | Version:  6
     \\/     M anipulation  |
\*---------------------------------------------------------------------------*/
FoamFile
{
    version     2.0;
    format      ascii;
    class       volScalarField;
    location    "1500";
    object      epsilon;
}
// * * * * * * * * * * * * * * * * * * * * * * * * * * * * * * * * * * * * * //

dimensions      [0 2 -3 0 0 0 0];

internalField   nonuniform List<scalar> 
459
(
0.000427294
0.000553683
0.000585679
0.000673575
0.000762514
0.000853292
0.000950373
0.00104967
0.00112341
0.00115271
0.0011214
0.00102359
0.000867418
0.000677158
0.000491952
3.53775e-05
6.02116e-05
8.69116e-05
8.9544e-05
8.21967e-05
7.22608e-05
5.97626e-05
4.85766e-05
3.96917e-05
3.27882e-05
2.73996e-05
2.31489e-05
1.97641e-05
1.70328e-05
1.47589e-05
1.27756e-05
1.09288e-05
9.88032e-06
7.58271e-06
0.00107948
0.00157832
0.000519823
0.000502965
0.00052543
0.000564869
0.000625654
0.000706456
0.000783782
0.000832018
0.000830827
0.000774489
0.000671482
0.000544153
0.00043913
0.000519194
0.000124463
4.0134e-05
9.47976e-05
0.000105787
9.92065e-05
8.6587e-05
7.39456e-05
6.77857e-05
5.48133e-05
4.32419e-05
3.41148e-05
2.71147e-05
2.17696e-05
1.7682e-05
1.45697e-05
1.22847e-05
1.08805e-05
1.028e-05
2.62346e-05
1.78768e-05
0.00196625
0.00388076
0.000638497
0.000476162
0.000496755
0.000557096
0.000649256
0.000766602
0.0008748
0.000939424
0.000942889
0.000886362
0.000781485
0.000653915
0.000535379
0.000477218
0.000567793
0.000266737
0.000209652
0.000167105
0.000134188
0.00010857
9.30727e-05
0.000171739
0.000118841
8.48866e-05
6.26382e-05
4.76476e-05
3.72568e-05
2.98728e-05
2.45435e-05
2.07125e-05
1.58003e-05
1.32569e-05
4.95161e-05
2.85203e-05
0.00318363
0.00807509
0.00100697
0.000478091
0.000481452
0.000566057
0.00070505
0.000880428
0.001018
0.00108451
0.00107626
0.00100432
0.000879489
0.000733117
0.000604102
0.000520343
0.000501864
0.000909841
0.000526748
0.000324276
0.000221255
0.000162117
0.000125172
0.000107913
0.000249126
0.000190891
0.000155509
0.000131754
0.000113476
9.79332e-05
8.43664e-05
7.14714e-05
5.81859e-05
3.46495e-05
2.24435e-05
8.20921e-05
3.9449e-05
0.00485972
0.0144447
0.00199119
0.000558527
0.000483689
0.000595954
0.000846437
0.00110973
0.00125631
0.00129924
0.00125828
0.00115157
0.00099352
0.000810173
0.000633203
0.000488655
0.00039037
0.000349385
0.000287398
0.000230975
0.000185459
0.000149643
0.000121832
0.000102524
9.89479e-05
9.25057e-05
8.62761e-05
8.00757e-05
7.33648e-05
6.59926e-05
5.86133e-05
5.15916e-05
4.5132e-05
3.62589e-05
2.78484e-05
5.9001e-05
4.55393e-05
7.43514e-05
0.000130334
0.000184665
0.00719434
0.0215139
0.00449632
0.00104325
0.000680222
0.000794031
0.00129882
0.0015651
0.00164289
0.00161618
0.00152006
0.00136259
0.0011511
0.00091032
0.000676712
0.000485021
0.000353957
0.000280865
0.000236782
0.000201281
0.000168648
0.000140099
0.000116988
0.000100596
9.23752e-05
8.90362e-05
8.73214e-05
8.519e-05
8.14197e-05
7.50604e-05
6.59285e-05
5.63116e-05
4.74786e-05
3.95737e-05
3.43693e-05
4.49631e-05
4.70534e-05
5.74657e-05
0.000240755
0.000211302
0.00997476
0.0257676
0.00938714
0.00345222
0.00221499
0.00219346
0.00240155
0.00237716
0.00224682
0.00207881
0.00188071
0.00163761
0.00134526
0.00102845
0.000729239
0.00049166
0.000336907
0.000253885
0.000209803
0.00017811
0.000150058
0.000126482
0.000108973
9.84182e-05
9.49088e-05
9.62696e-05
9.95434e-05
0.000102964
0.000105305
0.000104857
9.83704e-05
8.72336e-05
7.60999e-05
6.66363e-05
6.28526e-05
7.01399e-05
8.92038e-05
0.000142223
0.000326179
0.00031745
0.0106579
0.0287137
0.0156127
0.00995352
0.00707257
0.00547059
0.00433669
0.00357421
0.00305626
0.00267141
0.00232649
0.00195853
0.00154837
0.00112881
0.000748028
0.000463835
0.000295543
0.000213224
0.00017339
0.000146592
0.000125174
0.000109545
0.000100238
9.7144e-05
9.95621e-05
0.000106101
0.000115471
0.000127255
0.00014153
0.000158198
0.000176236
0.000188176
0.000198281
0.000219803
0.000264279
0.000396723
0.000730975
0.00137643
0.00400273
0.00118449
0.00990664
0.0168653
0.0135326
0.0102224
0.00780163
0.00615182
0.00503744
0.00427658
0.00372841
0.00326402
0.00278443
0.00224327
0.00165166
0.00109593
0.000620315
0.000333073
0.000212984
0.00015968
0.0001316
0.000112817
9.98227e-05
9.22389e-05
8.98311e-05
9.21232e-05
9.85197e-05
0.000108535
0.000122157
0.000140084
0.000163698
0.000195039
0.000236831
0.000292987
0.000369991
0.000485162
0.000654529
0.000883984
0.00114597
0.00137411
0.00154998
0.000969597
0.00493774
0.0066401
0.00668982
0.00619875
0.00552515
0.00488182
0.00424011
0.00353524
0.0027556
0.00192307
0.00105635
0.000562186
0.000301662
0.000180908
0.000128185
0.000102196
8.73592e-05
7.82198e-05
7.29233e-05
7.09894e-05
7.20919e-05
7.58645e-05
8.20971e-05
9.08437e-05
0.000102523
0.000117985
0.000138594
0.000166415
0.00020468
0.000258336
0.000332701
0.000434827
0.000568027
0.000719693
0.000849254
0.000902837
0.000847045
0.000535998
0.00341068
0.00672689
0.00665114
0.00535431
0.00452567
0.00385063
0.00299874
0.00209686
0.00133373
0.000781512
0.000431508
0.000243836
0.000149494
0.000105083
8.3997e-05
7.30954e-05
6.71726e-05
6.42766e-05
6.36288e-05
6.48442e-05
6.76626e-05
7.20661e-05
7.82217e-05
8.64048e-05
9.71106e-05
0.000111154
0.000129813
0.000155049
0.000189596
0.000237057
0.000302318
0.000390244
0.000501304
0.000627052
0.000720155
0.000815049
0.000763263
0.000563181
0.00216979
0.00253373
0.00282776
0.00313253
0.0023389
0.00181574
0.0015965
0.00139152
0.00112544
0.000846126
0.000589236
0.000391981
0.000259321
0.00017854
0.000131993
0.000104595
8.75089e-05
7.65792e-05
6.99623e-05
6.6716e-05
6.6187e-05
6.78933e-05
7.15602e-05
7.71944e-05
8.46482e-05
9.41201e-05
0.000106014
0.000120938
0.000139824
0.000164206
0.000194853
0.000233274
0.000281741
0.000343133
0.000420236
0.000527718
0.000564552
0.000522262
0.000429437
0.000343457
)
;

boundaryField
{
    floor
    {
        Cmu             0.09;
        kappa           0.41;
        E               9.8;
        type            epsilonWallFunction;
        value           nonuniform List<scalar> 
29
(
0.000491952
3.53775e-05
6.02116e-05
8.69116e-05
8.9544e-05
8.21967e-05
7.22608e-05
5.97626e-05
4.85766e-05
3.96917e-05
3.27882e-05
2.73996e-05
2.31489e-05
1.97641e-05
1.70328e-05
1.47589e-05
1.27756e-05
1.09288e-05
9.88032e-06
7.58271e-06
7.58271e-06
1.78768e-05
2.85203e-05
3.9449e-05
0.000491952
3.53775e-05
4.0134e-05
0.000266737
0.000909841
)
;
    }
    ceiling
    {
        Cmu             0.09;
        kappa           0.41;
        E               9.8;
        type            epsilonWallFunction;
        value           nonuniform List<scalar> 
43
(
0.00216979
0.00253373
0.00282776
0.00313253
0.0023389
0.00181574
0.0015965
0.00139152
0.00112544
0.000846126
0.000589236
0.000391981
0.000259321
0.00017854
0.000131993
0.000104595
8.75089e-05
7.65792e-05
6.99623e-05
6.6716e-05
6.6187e-05
6.78933e-05
7.15602e-05
7.71944e-05
8.46482e-05
9.41201e-05
0.000106014
0.000120938
0.000139824
0.000164206
0.000194853
0.000233274
0.000281741
0.000343133
0.000420236
0.000527718
0.000564552
0.000522262
0.000429437
0.000343457
0.00990664
0.0168653
0.00341068
)
;
    }
    sWall
    {
        Cmu             0.09;
        kappa           0.41;
        E               9.8;
        type            epsilonWallFunction;
        value           uniform 0.00216979;
    }
    nWall
    {
        Cmu             0.09;
        kappa           0.41;
        E               9.8;
        type            epsilonWallFunction;
        value           nonuniform List<scalar> 6(0.000184665 0.000211302 0.00031745 0.000535998 0.000563181 0.000343457);
    }
    sideWalls
    {
        type            empty;
    }
    glass1
    {
        Cmu             0.09;
        kappa           0.41;
        E               9.8;
        type            epsilonWallFunction;
        value           nonuniform List<scalar> 9(0.000427294 0.00107948 0.00196625 0.00318363 0.00485972 0.00719434 0.00997476 0.0106579 0.00990664);
    }
    glass2
    {
        Cmu             0.09;
        kappa           0.41;
        E               9.8;
        type            epsilonWallFunction;
        value           nonuniform List<scalar> 2(0.00118449 0.000969597);
    }
    sun
    {
        Cmu             0.09;
        kappa           0.41;
        E               9.8;
        type            epsilonWallFunction;
        value           nonuniform List<scalar> 
14
(
0.000427294
0.000553683
0.000585679
0.000673575
0.000762514
0.000853292
0.000950373
0.00104967
0.00112341
0.00115271
0.0011214
0.00102359
0.000867418
0.000677158
)
;
    }
    heatsource1
    {
        Cmu             0.09;
        kappa           0.41;
        E               9.8;
        type            epsilonWallFunction;
        value           nonuniform List<scalar> 3(7.43514e-05 0.000130334 0.000184665);
    }
    heatsource2
    {
        Cmu             0.09;
        kappa           0.41;
        E               9.8;
        type            epsilonWallFunction;
        value           nonuniform List<scalar> 4(0.000519194 0.000124463 0.000124463 0.000567793);
    }
    Table_master
    {
        Cmu             0.09;
        kappa           0.41;
        E               9.8;
        type            epsilonWallFunction;
        value           nonuniform List<scalar> 9(0.000171739 0.000118841 8.48866e-05 6.26382e-05 4.76476e-05 3.72568e-05 2.98728e-05 2.45435e-05 2.07125e-05);
    }
    Table_slave
    {
        Cmu             0.09;
        kappa           0.41;
        E               9.8;
        type            epsilonWallFunction;
        value           nonuniform List<scalar> 9(0.000249126 0.000190891 0.000155509 0.000131754 0.000113476 9.79332e-05 8.43664e-05 7.14714e-05 5.81859e-05);
    }
    inlet
    {
        type            turbulentMixingLengthDissipationRateInlet;
        mixingLength    0.01;
        phi             phi;
        k               k;
        value           uniform 0.000101881;
    }
    outlet
    {
        type            zeroGradient;
    }
}


// ************************************************************************* //
