/*--------------------------------*- C++ -*----------------------------------*\
  =========                 |
  \\      /  F ield         | OpenFOAM: The Open Source CFD Toolbox
   \\    /   O peration     | Website:  https://openfoam.org
    \\  /    A nd           | Version:  6
     \\/     M anipulation  |
\*---------------------------------------------------------------------------*/
FoamFile
{
    version     2.0;
    format      ascii;
    class       volScalarField;
    location    "1100";
    object      epsilon;
}
// * * * * * * * * * * * * * * * * * * * * * * * * * * * * * * * * * * * * * //

dimensions      [0 2 -3 0 0 0 0];

internalField   nonuniform List<scalar> 
459
(
0.000427051
0.000553389
0.000585398
0.000673276
0.000762186
0.000852924
0.00094995
0.00104917
0.00112276
0.00115183
0.00112019
0.00102204
0.000865627
0.000675452
0.000490717
3.45858e-05
5.84652e-05
8.42035e-05
8.66535e-05
7.91865e-05
6.93383e-05
5.7111e-05
4.62457e-05
3.76636e-05
3.10274e-05
2.58687e-05
2.18135e-05
1.85897e-05
1.5997e-05
1.38456e-05
1.19756e-05
1.02435e-05
9.31204e-06
7.20567e-06
0.00107891
0.00157788
0.000519656
0.000503031
0.000525618
0.000565166
0.000626051
0.000706925
0.000784234
0.000832316
0.000830834
0.000774123
0.000670736
0.000543131
0.000437939
0.000517456
0.000123597
3.91624e-05
9.20576e-05
0.000103143
9.67388e-05
8.43772e-05
7.19036e-05
6.56514e-05
5.2902e-05
4.15975e-05
3.27218e-05
2.59416e-05
2.0782e-05
1.68431e-05
1.38509e-05
1.16504e-05
1.02739e-05
9.66943e-06
2.57062e-05
1.72303e-05
0.00196542
0.00388052
0.000638133
0.000476396
0.000497264
0.00055783
0.000650209
0.000767738
0.000875992
0.000940507
0.00094369
0.00088675
0.000781373
0.000653359
0.000534323
0.000475548
0.000565342
0.000258288
0.000204572
0.000163548
0.0001315
0.000106366
9.09093e-05
0.000165595
0.000114253
8.13939e-05
5.99158e-05
4.54758e-05
3.5486e-05
2.83975e-05
2.32854e-05
1.96045e-05
1.49276e-05
1.25278e-05
4.95086e-05
2.77467e-05
0.00318261
0.00807617
0.00100603
0.000478204
0.000482056
0.000567028
0.000706392
0.000882063
0.00101972
0.00108616
0.00107767
0.00100534
0.000880002
0.000733139
0.000603612
0.00051916
0.000499754
0.000903959
0.000522664
0.000321371
0.000219047
0.000160318
0.000123556
0.000106001
0.000240799
0.00018337
0.000148383
0.000124963
0.000107141
9.22058e-05
7.92407e-05
6.69913e-05
5.44518e-05
3.24876e-05
2.12425e-05
8.40282e-05
3.85628e-05
0.00485854
0.0144489
0.00198923
0.00055801
0.000484034
0.000596936
0.000848149
0.00111175
0.00125836
0.00130124
0.00126008
0.00115301
0.000994512
0.000810772
0.000633475
0.000488546
0.000389674
0.000347948
0.000285602
0.000229251
0.000183941
0.000148309
0.000120546
0.000101029
9.67136e-05
8.97319e-05
8.31085e-05
7.66999e-05
6.99917e-05
6.27805e-05
5.55485e-05
4.86636e-05
4.23723e-05
3.40315e-05
2.64589e-05
5.92452e-05
4.57337e-05
7.45171e-05
0.000129998
0.000183841
0.00719312
0.0215222
0.00449363
0.00104116
0.000679503
0.000794475
0.00130086
0.00156726
0.00164507
0.00161835
0.00152208
0.00136425
0.00115232
0.00091118
0.000677357
0.000485443
0.000353938
0.000280185
0.000235561
0.000199909
0.000167348
0.000138825
0.000115527
9.86732e-05
8.9731e-05
8.56301e-05
8.32898e-05
8.07984e-05
7.70397e-05
7.11005e-05
6.25348e-05
5.33802e-05
4.49545e-05
3.75324e-05
3.31416e-05
4.45544e-05
4.75453e-05
5.74451e-05
0.000240526
0.00020977
0.00997464
0.0257781
0.00938702
0.00344866
0.00221289
0.00219386
0.00240315
0.00237908
0.00224895
0.00208104
0.00188283
0.00163933
0.00134648
0.0010293
0.000729955
0.000492224
0.00033707
0.000253415
0.000208794
0.000176838
0.000148624
0.000124735
0.000106655
9.52713e-05
9.07504e-05
9.10683e-05
9.34216e-05
9.61955e-05
9.83612e-05
9.8452e-05
9.35646e-05
8.34705e-05
7.30967e-05
6.44153e-05
6.16196e-05
6.89506e-05
8.54024e-05
0.00012821
0.000313556
0.000300522
0.0106581
0.0287317
0.015619
0.00995411
0.00707209
0.00547088
0.00433765
0.00357577
0.00305831
0.00267372
0.00232867
0.00196018
0.00154944
0.00112961
0.000748838
0.000464456
0.0002956
0.000212536
0.000172102
0.00014488
0.000123012
0.000106755
9.65943e-05
9.24307e-05
9.36232e-05
9.88638e-05
0.000106945
0.000117536
0.000130835
0.000146945
0.00016522
0.000180298
0.000190863
0.000212068
0.0002549
0.0003715
0.000638664
0.00117039
0.00400972
0.00106876
0.00990701
0.0168693
0.0135355
0.0102244
0.00780307
0.00615321
0.00503918
0.0042788
0.00373102
0.00326671
0.00278673
0.00224472
0.00165249
0.00109676
0.000621081
0.000332409
0.000211599
0.000157819
0.000129413
0.000110456
9.69597e-05
8.86258e-05
8.52369e-05
8.63583e-05
9.14537e-05
0.000100077
0.000112238
0.000128654
0.000150728
0.00018054
0.000220893
0.00027541
0.000350835
0.000460123
0.00062183
0.000844631
0.0011101
0.00136293
0.00156015
0.000859453
0.00493911
0.00664246
0.00669341
0.00620279
0.00552909
0.00488549
0.00424333
0.00353779
0.00275709
0.00192302
0.00105513
0.00056074
0.000300265
0.000179542
0.000126508
0.000100206
8.50336e-05
7.54528e-05
6.97496e-05
6.72553e-05
6.7598e-05
7.04814e-05
7.57265e-05
8.3413e-05
9.39609e-05
0.000108192
0.00012741
0.000153568
0.000189659
0.000240597
0.00031175
0.000410699
0.000544566
0.000710568
0.00088608
0.0010303
0.000972013
0.000438594
0.00341215
0.00673036
0.00665504
0.00535897
0.00452952
0.00385359
0.00300079
0.00209758
0.00133345
0.000780742
0.000430769
0.000243119
0.000148783
0.000104314
8.30867e-05
7.2012e-05
6.58596e-05
6.26383e-05
6.15676e-05
6.22596e-05
6.44851e-05
6.81476e-05
7.33661e-05
8.04518e-05
8.98616e-05
0.000102304
0.00011889
0.000141336
0.000172134
0.000214505
0.00027289
0.000352102
0.000453988
0.000571328
0.000685122
0.000833274
0.000460112
0.000468326
0.0021705
0.00253489
0.00282925
0.0031347
0.00234049
0.00181701
0.00159788
0.00139249
0.00112584
0.000846451
0.000589425
0.000392194
0.000259689
0.000179081
0.000132639
0.000105213
8.79044e-05
7.65168e-05
6.92118e-05
6.50891e-05
6.35386e-05
6.40982e-05
6.64775e-05
7.05869e-05
7.65637e-05
8.44671e-05
9.45534e-05
0.000107344
0.000123634
0.000144709
0.000171358
0.000204843
0.000247037
0.000300231
0.000366433
0.0004475
0.00046551
0.000332802
0.000285831
0.000475102
)
;

boundaryField
{
    floor
    {
        Cmu             0.09;
        kappa           0.41;
        E               9.8;
        type            epsilonWallFunction;
        value           nonuniform List<scalar> 
29
(
0.000490717
3.45858e-05
5.84652e-05
8.42035e-05
8.66535e-05
7.91865e-05
6.93383e-05
5.7111e-05
4.62457e-05
3.76636e-05
3.10274e-05
2.58687e-05
2.18135e-05
1.85897e-05
1.5997e-05
1.38456e-05
1.19756e-05
1.02435e-05
9.31204e-06
7.20567e-06
7.20567e-06
1.72303e-05
2.77467e-05
3.85628e-05
0.000490717
3.45858e-05
3.91624e-05
0.000258288
0.000903959
)
;
    }
    ceiling
    {
        Cmu             0.09;
        kappa           0.41;
        E               9.8;
        type            epsilonWallFunction;
        value           nonuniform List<scalar> 
43
(
0.0021705
0.00253489
0.00282925
0.0031347
0.00234049
0.00181701
0.00159788
0.00139249
0.00112584
0.000846451
0.000589425
0.000392194
0.000259689
0.000179081
0.000132639
0.000105213
8.79044e-05
7.65168e-05
6.92118e-05
6.50891e-05
6.35386e-05
6.40982e-05
6.64775e-05
7.05869e-05
7.65637e-05
8.44671e-05
9.45534e-05
0.000107344
0.000123634
0.000144709
0.000171358
0.000204843
0.000247037
0.000300231
0.000366433
0.0004475
0.00046551
0.000332802
0.000285831
0.000475102
0.00990701
0.0168693
0.00341215
)
;
    }
    sWall
    {
        Cmu             0.09;
        kappa           0.41;
        E               9.8;
        type            epsilonWallFunction;
        value           uniform 0.0021705;
    }
    nWall
    {
        Cmu             0.09;
        kappa           0.41;
        E               9.8;
        type            epsilonWallFunction;
        value           nonuniform List<scalar> 6(0.000183841 0.00020977 0.000300522 0.000438594 0.000468326 0.000475102);
    }
    sideWalls
    {
        type            empty;
    }
    glass1
    {
        Cmu             0.09;
        kappa           0.41;
        E               9.8;
        type            epsilonWallFunction;
        value           nonuniform List<scalar> 9(0.000427051 0.00107891 0.00196542 0.00318261 0.00485854 0.00719312 0.00997464 0.0106581 0.00990701);
    }
    glass2
    {
        Cmu             0.09;
        kappa           0.41;
        E               9.8;
        type            epsilonWallFunction;
        value           nonuniform List<scalar> 2(0.00106876 0.000859453);
    }
    sun
    {
        Cmu             0.09;
        kappa           0.41;
        E               9.8;
        type            epsilonWallFunction;
        value           nonuniform List<scalar> 
14
(
0.000427051
0.000553389
0.000585398
0.000673276
0.000762186
0.000852924
0.00094995
0.00104917
0.00112276
0.00115183
0.00112019
0.00102204
0.000865627
0.000675452
)
;
    }
    heatsource1
    {
        Cmu             0.09;
        kappa           0.41;
        E               9.8;
        type            epsilonWallFunction;
        value           nonuniform List<scalar> 3(7.45171e-05 0.000129998 0.000183841);
    }
    heatsource2
    {
        Cmu             0.09;
        kappa           0.41;
        E               9.8;
        type            epsilonWallFunction;
        value           nonuniform List<scalar> 4(0.000517456 0.000123597 0.000123597 0.000565342);
    }
    Table_master
    {
        Cmu             0.09;
        kappa           0.41;
        E               9.8;
        type            epsilonWallFunction;
        value           nonuniform List<scalar> 9(0.000165595 0.000114253 8.13939e-05 5.99158e-05 4.54758e-05 3.5486e-05 2.83975e-05 2.32854e-05 1.96045e-05);
    }
    Table_slave
    {
        Cmu             0.09;
        kappa           0.41;
        E               9.8;
        type            epsilonWallFunction;
        value           nonuniform List<scalar> 9(0.000240799 0.00018337 0.000148383 0.000124963 0.000107141 9.22058e-05 7.92407e-05 6.69913e-05 5.44518e-05);
    }
    inlet
    {
        type            turbulentMixingLengthDissipationRateInlet;
        mixingLength    0.01;
        phi             phi;
        k               k;
        value           uniform 0.000101881;
    }
    outlet
    {
        type            zeroGradient;
    }
}


// ************************************************************************* //
