/*--------------------------------*- C++ -*----------------------------------*\
  =========                 |
  \\      /  F ield         | OpenFOAM: The Open Source CFD Toolbox
   \\    /   O peration     | Website:  https://openfoam.org
    \\  /    A nd           | Version:  6
     \\/     M anipulation  |
\*---------------------------------------------------------------------------*/
FoamFile
{
    version     2.0;
    format      ascii;
    class       volScalarField;
    location    "800";
    object      nut;
}
// * * * * * * * * * * * * * * * * * * * * * * * * * * * * * * * * * * * * * //

dimensions      [0 2 -1 0 0 0 0];

internalField   nonuniform List<scalar> 
459
(
0.00107042
0.00116704
0.00118878
0.00124553
0.00129823
0.00134807
0.00139778
0.00144442
0.00147648
0.00148754
0.00147164
0.00142462
0.00134426
0.00123245
0.00110228
0.000465796
0.000554936
0.000627241
0.000635298
0.000618269
0.00059284
0.000556519
0.000519277
0.000485347
0.000455283
0.000428724
0.00040519
0.00038431
0.000365631
0.000348484
0.000332025
0.000315122
0.000305264
0.000280019
0.0014583
0.00346591
0.00328094
0.00380511
0.00431879
0.00483212
0.00527328
0.00562127
0.0059423
0.00620625
0.00637729
0.00641972
0.00629157
0.00589325
0.00480379
0.00112266
0.000710125
0.000484276
0.00102637
0.00144578
0.00176852
0.00196267
0.00197346
0.00155074
0.00132941
0.00117328
0.00105446
0.000960761
0.000884923
0.0008202
0.000760105
0.000702023
0.000650461
0.000604992
0.000725345
0.000374107
0.00178074
0.00470254
0.0040017
0.00497479
0.00541923
0.00574326
0.0059979
0.00622765
0.00649212
0.00677578
0.00704472
0.00724934
0.00734555
0.00725432
0.0067599
0.00516646
0.00116716
0.000899853
0.00132353
0.00173974
0.0021515
0.00246142
0.00243207
0.000789612
0.000697669
0.000623108
0.000562681
0.000513362
0.000472737
0.000439029
0.000411097
0.000388479
0.000420643
0.000486311
0.000824605
0.00043847
0.00209029
0.00601235
0.00395576
0.00519117
0.00551916
0.00560061
0.00567705
0.00581463
0.00604039
0.00633871
0.00667574
0.00698054
0.00720457
0.00728006
0.00716473
0.00658496
0.00435719
0.00136151
0.0016374
0.00210196
0.00261967
0.00308754
0.00341255
0.00324722
0.000894967
0.000819003
0.000765226
0.000724456
0.000689509
0.000656394
0.000624399
0.000590502
0.000550843
0.000515832
0.000522599
0.000967807
0.000488515
0.00240553
0.00771746
0.00427874
0.00496071
0.00540646
0.00535901
0.00532818
0.00543775
0.00564806
0.00595376
0.0063256
0.00665899
0.00688387
0.0069603
0.00689513
0.00666508
0.00609453
0.00517684
0.00487181
0.00483756
0.00490318
0.00497481
0.00499029
0.00483219
0.0040973
0.003743
0.00353756
0.0033775
0.00320752
0.00296625
0.00263025
0.00221871
0.00176265
0.00131429
0.000972105
0.000974728
0.000666828
0.000603099
0.000725004
0.000814642
0.00274001
0.00958668
0.00587425
0.00481706
0.00525711
0.00539993
0.00526307
0.00535596
0.0055282
0.00581086
0.00617398
0.00652073
0.00674084
0.00677423
0.00664551
0.0064469
0.00627326
0.00617545
0.00620486
0.00624649
0.00622818
0.00614104
0.00598838
0.00575784
0.00540961
0.00509756
0.00482288
0.00456239
0.00430141
0.0040264
0.00367727
0.00323693
0.00270636
0.0021213
0.00160101
0.00118241
0.000920263
0.000792836
0.00113024
0.000853634
0.00305342
0.0109345
0.00840476
0.00610785
0.00572503
0.00574079
0.00558512
0.00550212
0.00558986
0.00586147
0.00624438
0.00660699
0.00681246
0.00679285
0.00659597
0.00638708
0.0063702
0.0065838
0.00681777
0.00688988
0.00678146
0.00654439
0.00622241
0.0058453
0.00544531
0.00508011
0.00475564
0.00446244
0.00419792
0.00396606
0.00376478
0.00348943
0.00308781
0.00258804
0.00210295
0.00165929
0.00135529
0.0012805
0.00132356
0.000987747
0.00312076
0.00991037
0.00860269
0.00763001
0.00703414
0.00635362
0.00580177
0.00558332
0.00570379
0.00607008
0.00652906
0.00690555
0.00705076
0.00692533
0.00664107
0.00645214
0.00658758
0.00690794
0.0070219
0.0068753
0.00654045
0.00608853
0.00558243
0.00508514
0.00464995
0.00429715
0.00401348
0.00378563
0.00361061
0.00349169
0.00343347
0.00341174
0.0032317
0.00292171
0.0026509
0.00253243
0.00268669
0.00314442
0.00382408
0.00151994
0.00304515
0.00363461
0.00410382
0.00424909
0.00426209
0.00437214
0.00467469
0.00519255
0.00587148
0.00657286
0.00713112
0.00740602
0.00730584
0.00691617
0.00654586
0.00649895
0.00658328
0.00658304
0.00637313
0.0059675
0.00543217
0.00485049
0.00430544
0.00385552
0.00351503
0.00326332
0.00307159
0.00291919
0.00279255
0.00268097
0.0025756
0.0024746
0.00239468
0.00233718
0.00231874
0.00232917
0.00230631
0.00219799
0.00204362
0.00141522
0.00183018
0.00326456
0.00455289
0.00562833
0.00649786
0.00726788
0.00783947
0.00810029
0.00802534
0.00763971
0.00697922
0.00628508
0.00589197
0.00575017
0.0055854
0.00527106
0.00481397
0.0042806
0.00374737
0.00327763
0.00291603
0.00266292
0.00249313
0.00237938
0.00230233
0.00225062
0.00221801
0.00220168
0.00220345
0.0022263
0.00225709
0.0022924
0.00232355
0.00232431
0.00225432
0.00210493
0.00188518
0.00115861
0.00213189
0.00460267
0.00633216
0.00713028
0.00766232
0.00801595
0.00788269
0.00731334
0.00651347
0.00569537
0.00502336
0.00454909
0.00423936
0.0039528
0.00359715
0.00318654
0.00277512
0.00241908
0.00215149
0.0019748
0.0018652
0.00180122
0.0017742
0.00177529
0.00179829
0.00183917
0.00189427
0.00195869
0.0020378
0.00212935
0.00223071
0.00233479
0.00242543
0.00248716
0.00246601
0.00247799
0.00241703
0.00117717
0.00197261
0.00197184
0.00200808
0.00208102
0.00188337
0.00172618
0.00165003
0.00156939
0.00145564
0.00131556
0.0011612
0.00101108
0.000879805
0.00077564
0.000699751
0.000645627
0.000606477
0.000578641
0.000560853
0.000552475
0.000552421
0.000559282
0.000571779
0.000589225
0.000610499
0.000635336
0.000663829
0.000696286
0.000733338
0.000776184
0.000824318
0.000877773
0.000937157
0.00100302
0.00107508
0.00116419
0.00118749
0.00115503
0.00108178
0.00100185
)
;

boundaryField
{
    floor
    {
        type            nutkWallFunction;
        Cmu             0.09;
        kappa           0.41;
        E               9.8;
        value           nonuniform List<scalar> 
29
(
0.000132688
5.53206e-05
6.66874e-05
7.5742e-05
7.67431e-05
7.46261e-05
7.14513e-05
6.68877e-05
6.21702e-05
5.78356e-05
5.39634e-05
5.05159e-05
4.74384e-05
4.46889e-05
4.2213e-05
3.99258e-05
3.77167e-05
3.5433e-05
3.40937e-05
3.06374e-05
3.06373e-05
4.33375e-05
5.17829e-05
5.82405e-05
0.000132688
5.53206e-05
5.76974e-05
0.000108868
0.000162485
)
;
    }
    ceiling
    {
        type            nutkWallFunction;
        Cmu             0.09;
        kappa           0.41;
        E               9.8;
        value           nonuniform List<scalar> 
43
(
0.000230363
0.000230196
0.000234139
0.00024215
0.000220641
0.000203345
0.000194904
0.000185914
0.000173141
0.000157255
0.000139527
0.000122027
0.000106479
9.39498e-05
8.46969e-05
7.80248e-05
7.31566e-05
6.9672e-05
6.74344e-05
6.63773e-05
6.63701e-05
6.72354e-05
6.88085e-05
7.09975e-05
7.36564e-05
7.67466e-05
8.02737e-05
8.42696e-05
8.8804e-05
9.4014e-05
9.98267e-05
0.000106236
0.000113302
0.00012108
0.000129522
0.000139875
0.000142567
0.000138815
0.000130305
0.000120943
0.000344827
0.000405739
0.000247456
)
;
    }
    sWall
    {
        type            nutkWallFunction;
        Cmu             0.09;
        kappa           0.41;
        E               9.8;
        value           uniform 0.000230424;
    }
    nWall
    {
        type            nutkWallFunction;
        Cmu             0.09;
        kappa           0.41;
        E               9.8;
        value           nonuniform List<scalar> 6(9.86626e-05 0.000103349 0.000119287 0.00013924 0.000141387 0.000120949);
    }
    sideWalls
    {
        type            empty;
    }
    glass1
    {
        type            nutkWallFunction;
        Cmu             0.09;
        kappa           0.41;
        E               9.8;
        value           nonuniform List<scalar> 9(0.00012908 0.000173663 0.0002097 0.000243625 0.000277623 0.000313184 0.000346096 0.00035313 0.000345258);
    }
    glass2
    {
        type            nutkWallFunction;
        Cmu             0.09;
        kappa           0.41;
        E               9.8;
        value           nonuniform List<scalar> 2(0.000180459 0.00016865);
    }
    sun
    {
        type            nutkWallFunction;
        Cmu             0.09;
        kappa           0.41;
        E               9.8;
        value           nonuniform List<scalar> 
14
(
0.00012898
0.000140202
0.000142714
0.000149243
0.000155277
0.000160959
0.000166602
0.000171877
0.000175492
0.000176737
0.000174945
0.000169638
0.000160523
0.000147738
)
;
    }
    heatsource1
    {
        type            nutkWallFunction;
        Cmu             0.09;
        kappa           0.41;
        E               9.8;
        value           nonuniform List<scalar> 3(7.27349e-05 8.77873e-05 9.86614e-05);
    }
    heatsource2
    {
        type            nutkWallFunction;
        Cmu             0.09;
        kappa           0.41;
        E               9.8;
        value           nonuniform List<scalar> 4(0.000135053 8.59696e-05 8.59696e-05 0.000140211);
    }
    Table_master
    {
        type            nutkWallFunction;
        Cmu             0.09;
        kappa           0.41;
        E               9.8;
        value           nonuniform List<scalar> 9(9.56409e-05 8.44417e-05 7.52305e-05 6.76677e-05 6.14216e-05 5.62209e-05 5.18635e-05 4.82208e-05 4.52482e-05);
    }
    Table_slave
    {
        type            nutkWallFunction;
        Cmu             0.09;
        kappa           0.41;
        E               9.8;
        value           nonuniform List<scalar> 9(0.000108287 9.91876e-05 9.26862e-05 8.77213e-05 8.34391e-05 7.93575e-05 7.53903e-05 7.11603e-05 6.61737e-05);
    }
    inlet
    {
        type            calculated;
        value           uniform 0.000100623;
    }
    outlet
    {
        type            calculated;
        value           nonuniform List<scalar> 2(0.00197261 0.00197184);
    }
}


// ************************************************************************* //
