/*--------------------------------*- C++ -*----------------------------------*\
  =========                 |
  \\      /  F ield         | OpenFOAM: The Open Source CFD Toolbox
   \\    /   O peration     | Website:  https://openfoam.org
    \\  /    A nd           | Version:  6
     \\/     M anipulation  |
\*---------------------------------------------------------------------------*/
FoamFile
{
    version     2.0;
    format      ascii;
    class       surfaceScalarField;
    location    "800";
    object      phi;
}
// * * * * * * * * * * * * * * * * * * * * * * * * * * * * * * * * * * * * * //

dimensions      [1 0 -1 0 0 0 0];

internalField   nonuniform List<scalar> 
852
(
-0.00296271
0.00302031
-0.0040027
0.00104
-0.00480032
0.000797625
-0.00541874
0.000618431
-0.00582328
0.00040455
-0.00598493
0.000161657
-0.00587514
-0.000109783
-0.00547346
-0.00040167
-0.00479982
-0.000673632
-0.00392377
-0.000876038
-0.00294869
-0.000975071
-0.0019882
-0.000960485
-0.00114661
-0.000841577
-0.000488844
-0.00065776
-0.000487106
-0.000788592
0.000791671
-0.000539181
-0.000249405
5.36292e-05
-0.000592804
0.000556846
-0.000503211
0.000908064
-0.000351212
0.00113801
-0.000229942
0.00126604
-0.000128019
0.00132731
-6.12641e-05
0.00136072
-3.34111e-05
0.00138097
-2.02436e-05
0.00139214
-1.11641e-05
0.00139584
-3.69838e-06
0.00139088
4.9719e-06
0.00136989
2.09897e-05
0.0013121
5.77938e-05
0.00118266
0.000129443
0.000971259
0.00021141
0.000716065
0.000255199
0.00072018
-0.00212379
0.00529924
-0.00314689
0.00206311
-0.0039756
0.00162633
-0.00459222
0.00123507
-0.00499691
0.000809248
-0.00516941
0.00033417
-0.00507807
-0.000201116
-0.00470746
-0.000772274
-0.00409063
-0.00129045
-0.00330723
-0.00165943
-0.00245747
-0.00182482
-0.0016358
-0.00178215
-0.000921872
-0.0015555
-0.000385612
-0.00119401
-0.000116457
-0.000756253
0.000134221
-0.000250721
0.000134177
0.000239595
0.000561059
0.000635752
-0.000645555
0.000903694
-0.00086074
0.00112944
-0.000728953
0.00131006
-0.00053182
0.00142768
-0.000347565
0.00144896
-0.000149287
0.00145401
-6.63172e-05
0.00146019
-3.95797e-05
0.00146538
-2.5434e-05
0.00146881
-1.45818e-05
0.00147062
-5.50672e-06
0.00147023
5.3635e-06
0.00146452
2.67012e-05
0.00142602
9.63056e-05
0.00126011
0.000295356
0.000973883
0.00049764
0.000619927
0.000609159
0.00135055
-0.00149377
0.00703035
-0.00238091
0.00295025
-0.00312367
0.00236911
-0.00365922
0.00177063
-0.00402028
0.00117032
-0.00418095
0.000494851
-0.00408596
-0.000296104
-0.00371423
-0.00114399
-0.00312587
-0.00187879
-0.00241707
-0.00236822
-0.00168337
-0.00255851
-0.000995212
-0.00247029
-0.000402825
-0.00214788
6.32807e-05
-0.00166011
0.000368153
-0.00106112
0.000497764
-0.000380325
0.000631949
0.00148616
-0.000915227
0.00170293
-0.000862313
0.00165493
-0.000812733
0.00164104
-0.000715061
0.00166589
-0.000556669
0.00171125
-0.000392915
0.00156212
0.00149596
0.00145654
0.00143126
0.00141684
0.00141149
0.00141701
0.00144387
0.00154033
0.00126613
0.00056956
0.000935006
0.000828771
0.000526293
0.00101788
0.00189262
-0.00104642
0.0083841
-0.00175299
0.00365683
-0.002255
0.00287112
-0.00261623
0.00213187
-0.00286631
0.0014204
-0.00296542
0.000593972
-0.00281487
-0.000446648
-0.00240819
-0.00155066
-0.0018523
-0.00243467
-0.00124937
-0.00297114
-0.000673858
-0.00313401
-0.000162491
-0.00298165
0.000270738
-0.0025811
0.000629541
-0.00201891
0.000947908
-0.00137948
0.00130596
-0.00073837
0.00215043
-0.000212514
0.00247829
-0.000319189
0.00212976
-0.000566685
0.00199331
-0.000725865
0.00186333
-0.00068274
0.00174642
-0.000598156
0.00167204
-0.000482277
0.0016114
-0.00033227
0.001757
-0.000145755
0.00184759
-9.07437e-05
0.00192131
-7.38667e-05
0.00197983
-5.86678e-05
0.00200834
-2.86674e-05
0.00198409
2.40967e-05
0.00188072
0.000103222
0.00166421
0.000216353
0.00127913
0.000384929
0.00111482
0.000733866
0.000798084
0.00114551
0.000326077
0.00148989
0.00223924
-0.000730923
0.00948182
-0.00126802
0.00419393
-0.00139485
0.00299796
-0.00149173
0.00222876
-0.00155446
0.00148313
-0.00150598
0.000545505
-0.00121474
-0.000737877
-0.000764788
-0.0020006
-0.000287639
-0.00291181
0.000140626
-0.00339939
0.000488575
-0.00348195
0.000753151
-0.00324621
0.000958933
-0.00278687
0.00113492
-0.00219489
0.00131367
-0.00155822
0.00154186
-0.00096656
0.00186263
-0.000533274
0.00196017
-0.00041672
0.00187826
-0.00048477
0.00170119
-0.000548797
0.00154128
-0.000522825
0.00140383
-0.000460703
0.00130272
-0.000381158
0.00125425
-0.0002838
0.00129743
-0.000188935
0.00135315
-0.000146465
0.00141411
-0.000134824
0.00147679
-0.000121347
0.00153022
-8.21033e-05
0.00155299
1.32618e-06
0.00152248
0.000133734
0.0014265
0.000312331
0.0012671
0.000544323
0.00111727
0.000883696
0.000948784
0.001314
0.000582923
0.00185575
0.000468976
0.00235319
-0.000998856
0.00146763
-0.00145788
0.000458821
-0.00140903
-0.000632136
0.0105309
-0.000999861
0.00456167
-0.000608046
0.00260616
-0.000316697
0.00193742
-0.000103139
0.00126958
0.000235709
0.000206662
0.000727813
-0.00122997
0.00116306
-0.00243584
0.00146783
-0.00321656
0.00163252
-0.00356407
0.00168548
-0.00353489
0.00165851
-0.00321924
0.00158592
-0.00271427
0.00150516
-0.00211412
0.00144822
-0.00150127
0.00143903
-0.000957363
0.00146992
-0.000564165
0.00143792
-0.000384714
0.00131374
-0.000360583
0.00113541
-0.000370463
0.00097066
-0.000358072
0.000838261
-0.000328301
0.000746884
-0.00028978
0.000708091
-0.000245006
0.000726422
-0.000207266
0.000777056
-0.000197099
0.000845672
-0.000203441
0.00092618
-0.000201856
0.00101224
-0.000168166
0.00109215
-7.85876e-05
0.00114645
7.94389e-05
0.00116859
0.000290186
0.00116825
0.00054466
0.0011899
0.000862043
0.00128008
0.00122382
0.00145444
0.00168139
0.00189718
0.00191046
0.00216288
0.00120193
0.00178058
0.00084112
0.000430143
-0.000715703
0.0117084
-0.000599775
0.00444575
0.00047951
0.00152688
0.00116388
0.00125305
0.00175815
0.000675317
0.00241493
-0.000450117
0.002953
-0.00176803
0.0032412
-0.00272402
0.00327616
-0.0032515
0.00310516
-0.00339306
0.00279372
-0.00322343
0.00240585
-0.00283136
0.00199726
-0.00230567
0.00161596
-0.00173282
0.00129293
-0.00117823
0.00104806
-0.000712493
0.000876996
-0.000393098
0.000731523
-0.000239239
0.000575395
-0.000204453
0.000416048
-0.000211113
0.000276581
-0.000218604
0.000168879
-0.000220599
9.84328e-05
-0.000219334
7.07916e-05
-0.000217366
8.52741e-05
-0.00022175
0.000128386
-0.000240213
0.000189396
-0.000264453
0.000266237
-0.0002787
0.000362865
-0.000264798
0.00048433
-0.000200055
0.000619373
-5.56068e-05
0.000755085
0.000154471
0.000900405
0.000399338
0.00109343
0.00066902
0.00138053
0.000936716
0.00182911
0.00123282
0.00250312
0.00123644
0.00305212
0.000652938
0.00307292
0.000820322
0.00356564
0.00261382
0.00961071
0.00329638
0.0037632
0.00346556
0.0013577
0.00393459
0.000784028
0.00464217
-3.22586e-05
0.00532211
-0.00113004
0.0055818
-0.00202771
0.00543263
-0.00257484
0.00496697
-0.00278582
0.00429206
-0.00271813
0.00351107
-0.00244243
0.00270917
-0.00202945
0.00194831
-0.0015448
0.00128265
-0.00106715
0.00073616
-0.000631743
0.000333136
-0.000309468
6.87436e-05
-0.000128705
-0.000106056
-6.44384e-05
-0.000242038
-6.84696e-05
-0.000359581
-9.35703e-05
-0.00045878
-0.000119404
-0.000536294
-0.000143086
-0.000590037
-0.000165593
-0.000618739
-0.000188665
-0.000625056
-0.000215435
-0.000617883
-0.000247389
-0.000603429
-0.000278911
-0.0005812
-0.000300932
-0.000542881
-0.00030312
-0.000469334
-0.000273606
-0.000329153
-0.00019579
-0.000134691
-3.99934e-05
9.3967e-05
0.000170676
0.000373607
0.000389378
0.000711476
0.000598846
0.00114497
0.000799324
0.00159819
0.000783224
0.00176506
0.000486066
0.00101843
0.00156695
0.00484527
0.0101776
0.013934
0.0122543
0.00303744
0.0113564
0.0016819
0.0106116
0.000712524
0.00969618
-0.000214591
0.00852487
-0.000856374
0.00720655
-0.00125649
0.00583722
-0.00141647
0.00448754
-0.00136844
0.00322116
-0.00117604
0.00208399
-0.000892277
0.00109206
-0.000552872
0.000284683
-0.000259773
-0.000302769
-4.42922e-05
-0.000660031
4.77926e-05
-0.000849894
6.11572e-05
-0.000957777
4.34438e-05
-0.00103922
1.29701e-05
-0.00111405
-1.87423e-05
-0.00118462
-4.88287e-05
-0.0012495
-7.82099e-05
-0.00130824
-0.000106857
-0.00136204
-0.000134866
-0.00141495
-0.000162534
-0.00147448
-0.000187862
-0.00154832
-0.000205069
-0.00164396
-0.000205298
-0.00177033
-0.00017675
-0.0019387
-0.000105234
-0.00215679
2.22933e-05
-0.00241194
0.000215158
-0.0027294
0.000488131
-0.00319668
0.000856661
-0.00391168
0.00131384
-0.00493503
0.00182267
-0.00637759
0.00222579
-0.0081012
0.00220967
-0.00755526
0.00102101
-0.00242037
0.00510661
0.00456202
0.00408057
0.00270798
0.00445662
0.000336529
0.00448142
-0.000239348
0.00405879
-0.000433719
0.00335812
-0.00055581
0.00249989
-0.000558245
0.00157689
-0.00044544
0.000660445
-0.000259602
-0.000189737
-4.21051e-05
-0.000865481
0.000122868
-0.00129651
0.000171255
-0.00151943
0.000178628
-0.00162631
0.00015467
-0.00168619
0.000121036
-0.00172993
8.7178e-05
-0.00177256
5.55989e-05
-0.00181931
2.80078e-05
-0.00187268
4.53592e-06
-0.00193356
-1.73293e-05
-0.00200158
-3.8848e-05
-0.00207768
-5.87664e-05
-0.00216353
-7.66908e-05
-0.00226146
-8.99345e-05
-0.00237269
-9.38356e-05
-0.00249599
-8.19997e-05
-0.00262647
-4.6276e-05
-0.00275488
2.31791e-05
-0.00286917
0.000136575
-0.00296684
0.000312833
-0.00305642
0.00057771
-0.00314548
0.000945711
-0.00323201
0.00140037
-0.00326528
0.00185594
-0.00317822
0.00213873
-0.00277751
0.00180896
-0.0015081
-0.000248407
-0.00385294
-0.000429432
0.00504822
0.000832083
0.0014465
0.000774066
0.000394571
0.000479901
5.48257e-05
7.84228e-05
-3.22468e-05
-0.000460171
-1.72374e-05
-0.00104944
3.10055e-05
-0.00158696
9.20739e-05
-0.00199514
0.000148573
-0.00222756
0.000190311
-0.0023109
0.000206205
-0.00233179
0.000192139
-0.00231893
0.00016577
-0.00230096
0.000136691
-0.0022912
0.000111276
-0.00229348
8.94603e-05
-0.00230746
6.95707e-05
-0.00233038
5.093e-05
-0.00235915
3.33037e-05
-0.00239376
1.7271e-05
-0.00243493
2.32565e-06
-0.00248302
-1.06775e-05
-0.00253824
-2.14754e-05
-0.00259921
-2.89659e-05
-0.00266209
-3.09635e-05
-0.00271989
-2.41962e-05
-0.0027618
-4.37609e-06
-0.00277507
3.64564e-05
-0.00274574
0.000107238
-0.00264977
0.000216859
-0.00245375
0.000381692
-0.00213123
0.000623192
-0.0016706
0.000939739
-0.00104851
0.00123386
-8.18918e-05
0.00117211
0.00118627
0.000540803
0.00155548
-0.000617624
-0.00221452
0.000205719
-0.01086
-0.00576761
-0.00429798
-0.00388908
-0.00382476
-0.00385053
-0.0038635
-0.00382985
-0.00373635
-0.00358734
-0.00339743
-0.00319233
-0.0030019
-0.00283832
-0.00270421
-0.00259582
-0.0025095
-0.00244323
-0.00239571
-0.00236587
-0.00235207
-0.00235319
-0.00236726
-0.00239205
-0.00242426
-0.00245838
-0.00248563
-0.00249295
-0.00245932
-0.00235479
-0.00214053
-0.00176133
-0.00114054
-0.000203143
0.00102836
0.00219801
0.00273618
0.00211571
)
;

boundaryField
{
    floor
    {
        type            calculated;
        value           nonuniform List<scalar> 
29
(
0
0
0
0
0
0
0
0
0
0
0
0
0
0
0
0
0
0
0
0
-4.11117e-06
-1.04397e-05
-1.57672e-05
-2.05438e-05
-1.73111e-06
-3.07326e-06
-8.97649e-06
-9.87163e-06
-8.66394e-06
)
;
    }
    ceiling
    {
        type            calculated;
        value           nonuniform List<scalar> 
43
(
-2.36541e-05
-4.38908e-05
-4.41255e-05
-2.31366e-05
-1.43404e-05
-9.51345e-06
-6.48575e-06
-4.26656e-06
-2.65388e-06
-1.43038e-06
-4.37666e-07
3.94658e-07
1.10165e-06
1.69958e-06
2.18749e-06
2.57798e-06
2.88843e-06
3.12882e-06
3.30147e-06
3.40904e-06
3.46001e-06
3.46655e-06
3.44024e-06
3.38845e-06
3.3206e-06
3.24066e-06
3.15064e-06
3.0517e-06
2.94416e-06
2.82688e-06
2.70794e-06
2.59363e-06
2.48891e-06
2.40073e-06
2.34199e-06
2.35311e-06
2.45918e-06
2.62985e-06
2.84298e-06
3.82905e-06
9.86592e-06
6.87509e-06
-5.67485e-05
)
;
    }
    sWall
    {
        type            calculated;
        value           uniform -0.000230357;
    }
    nWall
    {
        type            calculated;
        value           nonuniform List<scalar> 6(-4.90479e-05 -5.85947e-05 -6.2584e-05 -7.55333e-05 -8.29366e-05 -0.000102636);
    }
    sideWalls
    {
        type            empty;
        value           nonuniform 0();
    }
    glass1
    {
        type            calculated;
        value           nonuniform List<scalar> 9(-5.75898e-05 -0.000155133 -0.000237323 -0.000307321 -0.000366786 -0.000416943 -0.000461822 -0.000516078 -0.000576793);
    }
    glass2
    {
        type            calculated;
        value           nonuniform List<scalar> 2(-0.000261195 -0.000289617);
    }
    sun
    {
        type            calculated;
        value           uniform 0;
    }
    heatsource1
    {
        type            calculated;
        value           nonuniform List<scalar> 3(2.04299e-07 2.04222e-07 2.04239e-07);
    }
    heatsource2
    {
        type            calculated;
        value           nonuniform List<scalar> 4(5.12202e-08 5.1301e-08 0 0);
    }
    Table_master
    {
        type            calculated;
        value           nonuniform List<scalar> 9(-1.53211e-07 -1.53304e-07 -1.53338e-07 -1.5336e-07 -1.53376e-07 -1.53388e-07 -1.53393e-07 -1.53389e-07 -1.5336e-07);
    }
    Table_slave
    {
        type            calculated;
        value           nonuniform List<scalar> 9(1.53083e-07 1.53101e-07 1.53077e-07 1.53057e-07 1.53048e-07 1.53051e-07 1.53065e-07 1.53107e-07 1.53189e-07);
    }
    inlet
    {
        type            calculated;
        value           uniform -0.00663117;
    }
    outlet
    {
        type            calculated;
        value           nonuniform List<scalar> 2(4.82872e-05 0.0111096);
    }
}


// ************************************************************************* //
