// -*- C++ -*-
// File generated by PyFoam - sorry for the ugliness

FoamFile
{
 version 2.0;
 format ascii;
 class volVectorField;
 location "1100";
 object U;
}

dimensions [ 0 1 -1 0 0 0 0 ];

internalField nonuniform List<vector> 459
(
  (0.0341986 0.0859054 0)
  (-0.167123 0.0254892 0)
  (-0.191887 0.0178457 0)
  (-0.222899 0.0121391 0)
  (-0.245334 0.005845 0)
  (-0.258093 -0.000852803 0)
  (-0.259479 -0.00802306 0)
  (-0.248225 -0.0156896 0)
  (-0.22493 -0.0231484 0)
  (-0.19151 -0.0290642 0)
  (-0.151712 -0.0323351 0)
  (-0.109949 -0.0324272 0)
  (-0.0704673 -0.0295021 0)
  (-0.0384315 -0.024709 0)
  (-0.0277626 -0.0198999 0)
  (-0.00648803 0.00908741 0)
  (-0.029839 -0.0164104 0)
  (-0.0087072 -0.0262411 0)
  (0.014984 -0.0203217 0)
  (0.0301332 -0.0139534 0)
  (0.0427889 -0.00906036 0)
  (0.0508387 -0.00526999 0)
  (0.0550683 -0.00328084 0)
  (0.0570028 -0.0024868 0)
  (0.0579771 -0.00214743 0)
  (0.0585943 -0.00193845 0)
  (0.05896 -0.00177115 0)
  (0.0590191 -0.00157339 0)
  (0.0585978 -0.00118244 0)
  (0.0571934 -0.000246056 0)
  (0.0537212 0.00172157 0)
  (0.0469949 0.00380349 0)
  (0.0412092 0.00544838 0)
  (-0.0138581 0.0201647 0)
  (0.208793 0.176021 0)
  (-0.15632 0.0674544 0)
  (-0.15479 0.0530577 0)
  (-0.18696 0.0412117 0)
  (-0.209255 0.0277645 0)
  (-0.222322 0.0125918 0)
  (-0.22442 -0.00462646 0)
  (-0.214122 -0.0232869 0)
  (-0.192632 -0.0407706 0)
  (-0.162282 -0.0539686 0)
  (-0.126951 -0.0607605 0)
  (-0.0907226 -0.0605282 0)
  (-0.0571564 -0.0538864 0)
  (-0.0296665 -0.0424776 0)
  (-0.0122223 -0.0288135 0)
  (0.00159528 -0.0108551 0)
  (0.000291798 0.0155901 0)
  (0.0614275 0.0367925 0)
  (0.0235496 -0.0173903 0)
  (0.0322272 -0.0309471 0)
  (0.0431949 -0.0277247 0)
  (0.0519686 -0.0200348 0)
  (0.0584762 -0.012626 0)
  (0.0613166 -0.00543955 0)
  (0.0618897 -0.00129657 0)
  (0.061859 0.000436249 0)
  (0.0619751 0.00120507 0)
  (0.0621823 0.00167778 0)
  (0.0623342 0.00206518 0)
  (0.0623935 0.00253302 0)
  (0.0623171 0.00337374 0)
  (0.061621 0.00541788 0)
  (0.0580799 0.0110987 0)
  (0.0490393 0.0158352 0)
  (0.0454209 0.0189347 0)
  (-0.050859 0.0438461 0)
  (0.369037 0.263439 0)
  (-0.173233 0.107478 0)
  (-0.116254 0.0858918 0)
  (-0.147653 0.0647541 0)
  (-0.167559 0.0425963 0)
  (-0.17979 0.01794 0)
  (-0.18159 -0.0100661 0)
  (-0.170639 -0.0399501 0)
  (-0.149418 -0.0670364 0)
  (-0.121174 -0.0862685 0)
  (-0.089986 -0.0949651 0)
  (-0.0593522 -0.0930681 0)
  (-0.031551 -0.0820146 0)
  (-0.0086564 -0.0640859 0)
  (0.0083722 -0.0406125 0)
  (0.0195077 -0.0142457 0)
  (0.0237461 0.0228408 0)
  (0.110321 -0.0251941 0)
  (0.0741426 -0.0364384 0)
  (0.0684338 -0.0374734 0)
  (0.069722 -0.0323645 0)
  (0.0708877 -0.0246348 0)
  (0.0720737 -0.0178475 0)
  (0.0707571 -0.0143326 0)
  (0.0661082 -0.0101495 0)
  (0.0627185 -0.00786227 0)
  (0.0611622 -0.0065532 0)
  (0.0604738 -0.00571432 0)
  (0.0601027 -0.00513735 0)
  (0.0600294 -0.00464086 0)
  (0.0606717 -0.00386204 0)
  (0.0630874 -0.000903761 0)
  (0.0611036 0.015409 0)
  (0.048402 0.0267542 0)
  (0.0519279 0.0342858 0)
  (-0.083599 0.0682518 0)
  (0.513711 0.333771 0)
  (-0.208047 0.142975 0)
  (-0.0753096 0.11388 0)
  (-0.105411 0.0848554 0)
  (-0.119897 0.0564434 0)
  (-0.128961 0.0240807 0)
  (-0.127807 -0.0145711 0)
  (-0.113802 -0.0562726 0)
  (-0.0922127 -0.0922028 0)
  (-0.0670452 -0.115807 0)
  (-0.0418081 -0.124885 0)
  (-0.0188574 -0.12075 0)
  (0.00157405 -0.105539 0)
  (0.0183765 -0.0827795 0)
  (0.0326153 -0.0559682 0)
  (0.0478 -0.0269466 0)
  (0.0692038 0.00486559 0)
  (0.0996056 0.0167406 0)
  (0.104687 -0.0219499 0)
  (0.0912173 -0.0325558 0)
  (0.0823046 -0.0319155 0)
  (0.0771483 -0.0279343 0)
  (0.0731804 -0.0220296 0)
  (0.0704195 -0.0145066 0)
  (0.0713356 -0.00872383 0)
  (0.075857 -0.00652173 0)
  (0.0796856 -0.0053208 0)
  (0.0821722 -0.00449219 0)
  (0.0836824 -0.00357429 0)
  (0.0838102 -0.00227046 0)
  (0.0814693 -0.000318084 0)
  (0.0753987 0.00259155 0)
  (0.0631288 0.00696319 0)
  (0.0512997 0.0256993 0)
  (0.0392624 0.0415961 0)
  (0.0562484 0.054138 0)
  (-0.11861 0.0899321 0)
  (0.638981 0.388253 0)
  (-0.250659 0.171963 0)
  (-0.0345341 0.130059 0)
  (-0.0611764 0.096387 0)
  (-0.0676416 0.0645111 0)
  (-0.0707139 0.0270375 0)
  (-0.0607762 -0.0213365 0)
  (-0.0415644 -0.0739244 0)
  (-0.0209961 -0.115094 0)
  (-0.00173189 -0.13927 0)
  (0.0145017 -0.145733 0)
  (0.0269101 -0.137943 0)
  (0.0366339 -0.120069 0)
  (0.0444669 -0.0956691 0)
  (0.0517014 -0.0682518 0)
  (0.0602969 -0.0415851 0)
  (0.0729653 -0.0219046 0)
  (0.0835333 -0.0207915 0)
  (0.0846385 -0.028231 0)
  (0.0783365 -0.0289231 0)
  (0.0701492 -0.0259949 0)
  (0.0633011 -0.0221541 0)
  (0.058007 -0.0176361 0)
  (0.054635 -0.0123379 0)
  (0.0540525 -0.0066515 0)
  (0.0559758 -0.00390449 0)
  (0.0582984 -0.00296959 0)
  (0.0605609 -0.00232067 0)
  (0.0627152 -0.000939749 0)
  (0.0644679 0.00179641 0)
  (0.0646222 0.00604844 0)
  (0.0625244 0.0120054 0)
  (0.0575409 0.020255 0)
  (0.0511086 0.0349801 0)
  (0.041181 0.0525867 0)
  (0.0645169 0.0725558 0)
  (-0.0236973 0.101836 0)
  (0.046091 0.030767 0)
  (-0.062438 -0.0345436 0)
  (-0.272643 -0.0572036 0)
  (0.730112 0.433684 0)
  (-0.292264 0.191484 0)
  (-0.00330666 0.126638 0)
  (-0.0160248 0.0976527 0)
  (-0.0119288 0.0669525 0)
  (-0.00631893 0.0240215 0)
  (0.0223924 -0.0385302 0)
  (0.044226 -0.0942779 0)
  (0.0597515 -0.132452 0)
  (0.0691492 -0.151797 0)
  (0.0730865 -0.154274 0)
  (0.0729686 -0.143468 0)
  (0.0702979 -0.123416 0)
  (0.0665772 -0.0981076 0)
  (0.06329 -0.0712059 0)
  (0.061837 -0.0463564 0)
  (0.0630682 -0.0277964 0)
  (0.0638776 -0.0203043 0)
  (0.0606181 -0.0197105 0)
  (0.0536502 -0.0196564 0)
  (0.04571 -0.0181355 0)
  (0.0389686 -0.0158216 0)
  (0.0339614 -0.0130663 0)
  (0.0309875 -0.0099342 0)
  (0.0303192 -0.0070305 0)
  (0.0316297 -0.00594629 0)
  (0.0339118 -0.0059277 0)
  (0.0367455 -0.00576951 0)
  (0.0399843 -0.00448597 0)
  (0.0434031 -0.0011806 0)
  (0.0467737 0.00461995 0)
  (0.0487833 0.0126434 0)
  (0.0496015 0.0229421 0)
  (0.050579 0.036931 0)
  (0.0497992 0.054276 0)
  (0.0731966 0.0770811 0)
  (0.0523985 0.0953377 0)
  (0.0934578 0.0671322 0)
  (0.116307 0.0442433 0)
  (-0.129456 -0.00725988 0)
  (0.78211 0.474977 0)
  (-0.313213 0.176945 0)
  (0.0235186 0.0771423 0)
  (0.0426274 0.0738743 0)
  (0.0577808 0.0523357 0)
  (0.0844676 0.0011685 0)
  (0.118642 -0.062946 0)
  (0.137928 -0.111739 0)
  (0.144329 -0.141209 0)
  (0.140539 -0.152793 0)
  (0.129305 -0.149459 0)
  (0.113546 -0.13496 0)
  (0.0958342 -0.113167 0)
  (0.0784081 -0.0879852 0)
  (0.0629513 -0.0626192 0)
  (0.0506986 -0.040156 0)
  (0.042089 -0.0236766 0)
  (0.0355953 -0.0152663 0)
  (0.0290508 -0.0127328 0)
  (0.0219505 -0.0121938 0)
  (0.0151958 -0.0115014 0)
  (0.00969668 -0.0105371 0)
  (0.00576747 -0.00945477 0)
  (0.00358948 -0.00832943 0)
  (0.00325232 -0.00757469 0)
  (0.00441158 -0.00783141 0)
  (0.00644243 -0.00862673 0)
  (0.00908011 -0.00913176 0)
  (0.0123706 -0.00851126 0)
  (0.0164721 -0.00579024 0)
  (0.0222309 0.000128273 0)
  (0.0287277 0.00893127 0)
  (0.0349073 0.0193616 0)
  (0.0425477 0.0317366 0)
  (0.0509703 0.0459071 0)
  (0.0739131 0.0642984 0)
  (0.0876436 0.0726365 0)
  (0.119614 0.0516939 0)
  (0.158899 0.0434985 0)
  (-0.0361212 0.09261 0)
  (0.886793 0.477671 0)
  (-0.0706946 0.156585 0)
  (0.106065 0.00381395 0)
  (0.169252 -0.0166047 0)
  (0.182299 -0.0354813 0)
  (0.217943 -0.0695222 0)
  (0.23976 -0.10223 0)
  (0.242267 -0.125577 0)
  (0.228268 -0.13706 0)
  (0.202712 -0.136905 0)
  (0.170467 -0.126879 0)
  (0.135761 -0.109614 0)
  (0.101631 -0.0877944 0)
  (0.0705636 -0.0646795 0)
  (0.0440168 -0.0426863 0)
  (0.0233278 -0.0243706 0)
  (0.00896231 -0.0122239 0)
  (-0.000420215 -0.00669893 0)
  (-0.00705614 -0.00557425 0)
  (-0.0125951 -0.00591297 0)
  (-0.0173502 -0.00634264 0)
  (-0.0211505 -0.0066894 0)
  (-0.0239181 -0.00702644 0)
  (-0.0255968 -0.00744892 0)
  (-0.0262325 -0.0081666 0)
  (-0.0261282 -0.00934489 0)
  (-0.0256637 -0.0107368 0)
  (-0.0249748 -0.0119174 0)
  (-0.0239255 -0.0124131 0)
  (-0.0221365 -0.011668 0)
  (-0.0187329 -0.00897272 0)
  (-0.010932 -0.003526 0)
  (-0.000348901 0.00431605 0)
  (0.0109233 0.0124634 0)
  (0.0236172 0.0190204 0)
  (0.0447587 0.0259812 0)
  (0.064913 0.0205879 0)
  (0.0843895 -0.00148365 0)
  (0.142431 0.0479863 0)
  (-0.432767 0.204768 0)
  (1.03189 0.430043 0)
  (0.496892 0.285127 0)
  (0.503166 0.191459 0)
  (0.511684 0.119975 0)
  (0.487047 0.0684688 0)
  (0.44423 0.015082 0)
  (0.394228 -0.0331617 0)
  (0.340719 -0.0672957 0)
  (0.28342 -0.0848468 0)
  (0.224755 -0.0878623 0)
  (0.168027 -0.080382 0)
  (0.116006 -0.0664147 0)
  (0.0696976 -0.0487013 0)
  (0.030993 -0.0306489 0)
  (-0.000569228 -0.0144332 0)
  (-0.0215116 -0.00431528 0)
  (-0.0326648 -0.000487963 0)
  (-0.0388212 0.000108514 0)
  (-0.0427713 -0.000743755 0)
  (-0.0460892 -0.00194911 0)
  (-0.0491628 -0.00309667 0)
  (-0.0519431 -0.00418405 0)
  (-0.0544152 -0.00525857 0)
  (-0.0565855 -0.00636823 0)
  (-0.0585798 -0.00757956 0)
  (-0.0606796 -0.00889726 0)
  (-0.0632152 -0.0101357 0)
  (-0.0664778 -0.0109572 0)
  (-0.070771 -0.0108819 0)
  (-0.0764999 -0.00927079 0)
  (-0.0841686 -0.00535924 0)
  (-0.0941881 0.00158035 0)
  (-0.104689 0.0112018 0)
  (-0.118339 0.0234479 0)
  (-0.139965 0.038392 0)
  (-0.171725 0.0554676 0)
  (-0.217576 0.0717054 0)
  (-0.274001 0.0849646 0)
  (-0.35028 0.0935154 0)
  (-0.617691 0.0906819 0)
  (-0.147963 0.0828504 0)
  (0.134806 0.0617307 0)
  (0.21804 0.00594786 0)
  (0.201558 -0.0288846 0)
  (0.185818 -0.0431882 0)
  (0.163271 -0.0478115 0)
  (0.130763 -0.0461284 0)
  (0.0921945 -0.0396817 0)
  (0.0523271 -0.0298949 0)
  (0.0143789 -0.017609 0)
  (-0.0229314 -0.00378373 0)
  (-0.0466808 0.00394818 0)
  (-0.0611577 0.00744576 0)
  (-0.0681361 0.00792556 0)
  (-0.0715414 0.00720362 0)
  (-0.0737507 0.00629374 0)
  (-0.0756218 0.00544002 0)
  (-0.0774964 0.00473349 0)
  (-0.0794966 0.00409563 0)
  (-0.0817463 0.00336918 0)
  (-0.0842639 0.0024681 0)
  (-0.0870298 0.00146477 0)
  (-0.0901238 0.000445197 0)
  (-0.0936623 -0.000451826 0)
  (-0.0977264 -0.000989042 0)
  (-0.102326 -0.000861951 0)
  (-0.107389 0.000270629 0)
  (-0.112742 0.00275817 0)
  (-0.117919 0.0069937 0)
  (-0.121969 0.0135964 0)
  (-0.125344 0.0236835 0)
  (-0.128005 0.0377649 0)
  (-0.130444 0.0554306 0)
  (-0.13244 0.0743634 0)
  (-0.130809 0.087586 0)
  (-0.113366 0.0806982 0)
  (-0.0734998 0.0262561 0)
  (-0.198287 -0.176485 0)
  (-0.0232736 0.230939 0)
  (0.0636114 0.0994765 0)
  (0.0376258 0.0189583 0)
  (0.0254772 -0.00445474 0)
  (0.0160891 -0.00981625 0)
  (-0.00258551 -0.0111855 0)
  (-0.0275512 -0.00869381 0)
  (-0.0532671 -0.00408787 0)
  (-0.0750417 0.000436545 0)
  (-0.0900262 0.00346408 0)
  (-0.0972034 0.00374667 0)
  (-0.0997025 0.00153771 0)
  (-0.0999795 -0.00140693 0)
  (-0.0992593 -0.00474431 0)
  (-0.0986406 -0.00816737 0)
  (-0.0985267 -0.0114537 0)
  (-0.0989555 -0.0144976 0)
  (-0.0998335 -0.017111 0)
  (-0.101018 -0.0191289 0)
  (-0.102402 -0.0204776 0)
  (-0.103976 -0.0211876 0)
  (-0.105786 -0.0213525 0)
  (-0.107813 -0.0209838 0)
  (-0.110046 -0.0202377 0)
  (-0.112421 -0.0191151 0)
  (-0.114763 -0.0174256 0)
  (-0.11676 -0.0148353 0)
  (-0.117969 -0.0108247 0)
  (-0.11792 -0.00516727 0)
  (-0.115798 0.00251937 0)
  (-0.110303 0.0129282 0)
  (-0.100108 0.0266975 0)
  (-0.084633 0.0436496 0)
  (-0.064287 0.0607145 0)
  (-0.040374 0.0698106 0)
  (0.028002 0.0381556 0)
  (0.147499 -0.0413394 0)
  (-0.0495398 -0.0653935 0)
  (-0.103449 -0.348677 0)
  (-0.439218 -0.120305 0)
  (-0.310705 0.0956324 0)
  (-0.226512 -0.0202719 0)
  (-0.180097 -0.0413955 0)
  (-0.165695 -0.0292286 0)
  (-0.163295 -0.0162657 0)
  (-0.164625 -0.00593822 0)
  (-0.165188 0.00269643 0)
  (-0.162929 0.0102579 0)
  (-0.15822 0.0172065 0)
  (-0.151171 0.0235426 0)
  (-0.142705 0.0290032 0)
  (-0.134249 0.033599 0)
  (-0.126653 0.0379011 0)
  (-0.120242 0.0421411 0)
  (-0.115022 0.0464288 0)
  (-0.110817 0.0506065 0)
  (-0.107474 0.0543351 0)
  (-0.104891 0.057268 0)
  (-0.102991 0.0591681 0)
  (-0.10171 0.0599503 0)
  (-0.100994 0.059667 0)
  (-0.100806 0.0584402 0)
  (-0.101107 0.0563696 0)
  (-0.101819 0.0538127 0)
  (-0.102815 0.051006 0)
  (-0.103884 0.0480562 0)
  (-0.104671 0.0450392 0)
  (-0.1046 0.0420109 0)
  (-0.102611 0.0396982 0)
  (-0.0971043 0.038775 0)
  (-0.0859055 0.0399088 0)
  (-0.0670749 0.0438593 0)
  (-0.040679 0.051133 0)
  (-0.00578292 0.0608012 0)
  (0.0322119 0.0574891 0)
  (0.0901598 0.0206625 0)
  (0.119168 -0.0180408 0)
  (-0.505364 0.0603456 0)
)
;

boundaryField
{
  floor
  {
    type noSlip;
  }
  ceiling
  {
    type noSlip;
  }
  sWall
  {
    type noSlip;
  }
  nWall
  {
    type noSlip;
  }
  sideWalls
  {
    type empty;
  }
  glass1
  {
    type noSlip;
  }
  glass2
  {
    type noSlip;
  }
  sun
  {
    type noSlip;
  }
  heatsource1
  {
    type noSlip;
  }
  heatsource2
  {
    type noSlip;
  }
  Table_master
  {
    type noSlip;
  }
  Table_slave
  {
    type noSlip;
  }
  inlet
  {
    type fixedValue;
    value uniform (0.3 0 0);
  }
  outlet
  {
    type zeroGradient;
  }
} 	// ************************************************************************* //

