// -*- C++ -*-
// File generated by PyFoam - sorry for the ugliness

FoamFile
{
 version 2.0;
 format ascii;
 class volVectorField;
 location "1300";
 object U;
}

dimensions [ 0 1 -1 0 0 0 0 ];

internalField nonuniform List<vector> 459
(
  (0.0343977 0.0858495 0)
  (-0.166993 0.0254376 0)
  (-0.191674 0.0178632 0)
  (-0.222704 0.012196 0)
  (-0.245219 0.00594098 0)
  (-0.258135 -0.000714265 0)
  (-0.259774 -0.0078407 0)
  (-0.248829 -0.0154661 0)
  (-0.22587 -0.0229186 0)
  (-0.192742 -0.0288756 0)
  (-0.153127 -0.0322361 0)
  (-0.111395 -0.0324569 0)
  (-0.0717744 -0.0297102 0)
  (-0.0394592 -0.0251638 0)
  (-0.0283791 -0.0206565 0)
  (-0.00617212 0.00888864 0)
  (-0.0290661 -0.0167023 0)
  (-0.00737467 -0.0265407 0)
  (0.0161943 -0.0204725 0)
  (0.0317385 -0.0140666 0)
  (0.0445012 -0.00913791 0)
  (0.0525585 -0.00532125 0)
  (0.0567528 -0.00331699 0)
  (0.0586442 -0.00251439 0)
  (0.0595798 -0.00216882 0)
  (0.0601605 -0.00195375 0)
  (0.0604861 -0.00177907 0)
  (0.0604982 -0.00156722 0)
  (0.0600116 -0.00115229 0)
  (0.058502 -0.000168771 0)
  (0.0548424 0.00188957 0)
  (0.0478024 0.00406573 0)
  (0.0414881 0.00578844 0)
  (-0.0134868 0.0203085 0)
  (0.20913 0.175915 0)
  (-0.156292 0.0673009 0)
  (-0.154636 0.0530369 0)
  (-0.186824 0.0412783 0)
  (-0.209188 0.0279279 0)
  (-0.222398 0.0128703 0)
  (-0.224741 -0.00422341 0)
  (-0.214736 -0.0227952 0)
  (-0.19355 -0.0402791 0)
  (-0.163446 -0.0535805 0)
  (-0.128248 -0.0605622 0)
  (-0.0920284 -0.060555 0)
  (-0.0583589 -0.0541636 0)
  (-0.0307199 -0.0430089 0)
  (-0.0131022 -0.029483 0)
  (0.000808831 -0.0114244 0)
  (-0.000290311 0.0156066 0)
  (0.0614481 0.0363391 0)
  (0.0248211 -0.0179861 0)
  (0.0333506 -0.0313175 0)
  (0.0445077 -0.0279268 0)
  (0.0534752 -0.0201491 0)
  (0.0600827 -0.0126533 0)
  (0.0629614 -0.00539136 0)
  (0.0635217 -0.00121968 0)
  (0.0634746 0.000518786 0)
  (0.0635845 0.00128562 0)
  (0.0637907 0.00175567 0)
  (0.0639416 0.00214379 0)
  (0.0639947 0.0026152 0)
  (0.0639062 0.00348267 0)
  (0.0631716 0.00561011 0)
  (0.059481 0.0115281 0)
  (0.050113 0.0164516 0)
  (0.0457549 0.0196892 0)
  (-0.0497892 0.0441108 0)
  (0.369494 0.263296 0)
  (-0.173348 0.107272 0)
  (-0.116148 0.0858724 0)
  (-0.147579 0.0648674 0)
  (-0.167533 0.0428655 0)
  (-0.179894 0.0183964 0)
  (-0.18196 -0.00941499 0)
  (-0.17131 -0.0391701 0)
  (-0.150365 -0.0662936 0)
  (-0.122309 -0.0857243 0)
  (-0.091179 -0.0947394 0)
  (-0.060507 -0.0931742 0)
  (-0.0325963 -0.0824571 0)
  (-0.00959974 -0.0648348 0)
  (0.00763294 -0.0414211 0)
  (0.0189237 -0.0149568 0)
  (0.0233266 0.0222613 0)
  (0.110393 -0.0271019 0)
  (0.074438 -0.0377461 0)
  (0.0689924 -0.0383108 0)
  (0.0705445 -0.0328907 0)
  (0.071947 -0.0249642 0)
  (0.0733048 -0.0180126 0)
  (0.0720743 -0.0144049 0)
  (0.0674371 -0.010174 0)
  (0.0640614 -0.00785999 0)
  (0.0625378 -0.00653262 0)
  (0.0618901 -0.00567828 0)
  (0.0615632 -0.00508524 0)
  (0.0615446 -0.00456218 0)
  (0.062272 -0.00374275 0)
  (0.0648546 -0.000681219 0)
  (0.062844 0.0161249 0)
  (0.0497985 0.0277854 0)
  (0.0521664 0.0355898 0)
  (-0.081746 0.0688894 0)
  (0.514241 0.333608 0)
  (-0.208301 0.142747 0)
  (-0.0752398 0.113859 0)
  (-0.105413 0.0849991 0)
  (-0.119924 0.0568023 0)
  (-0.129119 0.0247194 0)
  (-0.128311 -0.0136371 0)
  (-0.114615 -0.0551789 0)
  (-0.0932293 -0.0912293 0)
  (-0.0681643 -0.115149 0)
  (-0.0428789 -0.124675 0)
  (-0.0198432 -0.120945 0)
  (0.000677973 -0.106154 0)
  (0.0176291 -0.0836182 0)
  (0.0319639 -0.0569169 0)
  (0.0472614 -0.0278907 0)
  (0.0689276 0.00383128 0)
  (0.0996462 0.0157046 0)
  (0.104939 -0.0231045 0)
  (0.091349 -0.0336006 0)
  (0.0824711 -0.032775 0)
  (0.0775044 -0.0286251 0)
  (0.0738052 -0.0225691 0)
  (0.0713471 -0.0148824 0)
  (0.0726652 -0.00904753 0)
  (0.0776734 -0.00680789 0)
  (0.0819532 -0.0055668 0)
  (0.0848275 -0.00468175 0)
  (0.0866173 -0.00368251 0)
  (0.0868757 -0.00227568 0)
  (0.0844569 -0.000201776 0)
  (0.0781001 0.00284293 0)
  (0.0653059 0.00738665 0)
  (0.0529604 0.0266922 0)
  (0.0407402 0.0429874 0)
  (0.0563046 0.0558384 0)
  (-0.115188 0.091132 0)
  (0.63954 0.388092 0)
  (-0.25101 0.171751 0)
  (-0.0344746 0.130043 0)
  (-0.0612559 0.0965565 0)
  (-0.0677243 0.0649372 0)
  (-0.0709558 0.0278543 0)
  (-0.0615681 -0.020054 0)
  (-0.0425774 -0.0725425 0)
  (-0.0220671 -0.113994 0)
  (-0.00279983 -0.138612 0)
  (0.0136117 -0.14565 0)
  (0.0261337 -0.13828 0)
  (0.035973 -0.12076 0)
  (0.0438909 -0.0966032 0)
  (0.0511925 -0.0693021 0)
  (0.05986 -0.0426442 0)
  (0.0726283 -0.0228913 0)
  (0.083353 -0.0216785 0)
  (0.084556 -0.0292791 0)
  (0.078242 -0.0299908 0)
  (0.0701095 -0.0269975 0)
  (0.0634407 -0.0230788 0)
  (0.0584268 -0.0184847 0)
  (0.0554165 -0.0131125 0)
  (0.0552795 -0.00739542 0)
  (0.0576904 -0.00462604 0)
  (0.0604782 -0.00362948 0)
  (0.063141 -0.00284858 0)
  (0.0655797 -0.00125292 0)
  (0.0674487 0.00177147 0)
  (0.0674978 0.00632981 0)
  (0.065111 0.0125743 0)
  (0.0596936 0.0211331 0)
  (0.0527619 0.0363446 0)
  (0.0425497 0.0543583 0)
  (0.0646492 0.0744519 0)
  (-0.0217161 0.103434 0)
  (0.0461071 0.0319464 0)
  (-0.0623953 -0.0346908 0)
  (-0.272673 -0.0573436 0)
  (0.730646 0.433546 0)
  (-0.292657 0.191316 0)
  (-0.00324684 0.126642 0)
  (-0.0161962 0.097862 0)
  (-0.0121136 0.0674025 0)
  (-0.00684182 0.0251795 0)
  (0.0212041 -0.0368134 0)
  (0.0430864 -0.0928121 0)
  (0.0587228 -0.13145 0)
  (0.0682885 -0.15132 0)
  (0.0724078 -0.154313 0)
  (0.0724444 -0.143937 0)
  (0.069901 -0.12421 0)
  (0.0662584 -0.0991071 0)
  (0.0630084 -0.0723038 0)
  (0.0615696 -0.0474617 0)
  (0.0628132 -0.0288579 0)
  (0.0636524 -0.0213305 0)
  (0.0604115 -0.0208038 0)
  (0.0534564 -0.0207937 0)
  (0.0455934 -0.0192838 0)
  (0.0390327 -0.0169813 0)
  (0.0343043 -0.0142398 0)
  (0.0316922 -0.0111159 0)
  (0.0314437 -0.00822174 0)
  (0.0331903 -0.00711567 0)
  (0.0358841 -0.00699603 0)
  (0.039072 -0.0066231 0)
  (0.0425679 -0.00498537 0)
  (0.0460966 -0.00118886 0)
  (0.0493325 0.00511644 0)
  (0.0510204 0.0135577 0)
  (0.0514258 0.0242666 0)
  (0.0519134 0.0387436 0)
  (0.0506619 0.0565113 0)
  (0.0731316 0.0792884 0)
  (0.0525233 0.0971604 0)
  (0.0932181 0.0679207 0)
  (0.116226 0.0445931 0)
  (-0.12954 -0.00739834 0)
  (0.782429 0.474861 0)
  (-0.313627 0.176824 0)
  (0.0234781 0.077242 0)
  (0.0422708 0.0743712 0)
  (0.0572014 0.0532596 0)
  (0.0826663 0.00296603 0)
  (0.117189 -0.0612252 0)
  (0.136761 -0.110418 0)
  (0.143442 -0.140414 0)
  (0.13994 -0.152538 0)
  (0.128963 -0.149695 0)
  (0.113407 -0.135595 0)
  (0.0958337 -0.114069 0)
  (0.0784681 -0.0890292 0)
  (0.063007 -0.0637183 0)
  (0.0507052 -0.0412334 0)
  (0.042023 -0.0247058 0)
  (0.0354658 -0.0162823 0)
  (0.0288824 -0.0138137 0)
  (0.0217816 -0.013369 0)
  (0.0150919 -0.0127752 0)
  (0.00973795 -0.0119125 0)
  (0.00602426 -0.0109214 0)
  (0.0041132 -0.00986765 0)
  (0.00407162 -0.00915816 0)
  (0.0055279 -0.00939525 0)
  (0.00784035 -0.0100649 0)
  (0.0107364 -0.010306 0)
  (0.0142497 -0.00924266 0)
  (0.0185033 -0.00585539 0)
  (0.0244094 0.000894997 0)
  (0.0304711 0.0101867 0)
  (0.0361402 0.021067 0)
  (0.0432727 0.0340092 0)
  (0.0510094 0.0487178 0)
  (0.0730868 0.0671826 0)
  (0.086198 0.0748754 0)
  (0.118468 0.052208 0)
  (0.158233 0.0439824 0)
  (-0.0355099 0.0940222 0)
  (0.887029 0.477663 0)
  (-0.0711169 0.156512 0)
  (0.105838 0.00409524 0)
  (0.168705 -0.0155579 0)
  (0.181292 -0.0335977 0)
  (0.216349 -0.0678165 0)
  (0.23849 -0.100857 0)
  (0.241428 -0.124657 0)
  (0.227842 -0.136645 0)
  (0.20266 -0.136971 0)
  (0.170705 -0.127356 0)
  (0.136207 -0.110421 0)
  (0.10219 -0.0887874 0)
  (0.071132 -0.0657384 0)
  (0.0445219 -0.0437468 0)
  (0.0237123 -0.025359 0)
  (0.0091914 -0.0131433 0)
  (-0.000330664 -0.00762942 0)
  (-0.00706802 -0.00660944 0)
  (-0.0126736 -0.00709378 0)
  (-0.0174446 -0.00768378 0)
  (-0.0212164 -0.00818776 0)
  (-0.0239222 -0.00865782 0)
  (-0.0255245 -0.00918164 0)
  (-0.0260787 -0.00995607 0)
  (-0.0258919 -0.0111137 0)
  (-0.0253418 -0.0123811 0)
  (-0.0245557 -0.0133141 0)
  (-0.0233878 -0.013416 0)
  (-0.021455 -0.012098 0)
  (-0.0178006 -0.00860268 0)
  (-0.00901443 -0.00215526 0)
  (-4.41146e-05 0.00637373 0)
  (0.0106414 0.0148326 0)
  (0.0224084 0.0220093 0)
  (0.042282 0.0294024 0)
  (0.0609181 0.0224526 0)
  (0.0804574 -0.00519187 0)
  (0.139735 0.0402037 0)
  (-0.414631 0.207043 0)
  (1.03196 0.430144 0)
  (0.496975 0.285228 0)
  (0.503135 0.191871 0)
  (0.511151 0.120801 0)
  (0.485742 0.0695026 0)
  (0.443605 0.0164273 0)
  (0.394067 -0.0319533 0)
  (0.34096 -0.0665399 0)
  (0.28404 -0.0846314 0)
  (0.22569 -0.0881271 0)
  (0.169151 -0.0810097 0)
  (0.117243 -0.0673268 0)
  (0.0709241 -0.049727 0)
  (0.0321111 -0.0316882 0)
  (0.000433088 -0.015455 0)
  (-0.0207434 -0.00515799 0)
  (-0.0321049 -0.00124623 0)
  (-0.0384322 -0.000671114 0)
  (-0.0425683 -0.00161026 0)
  (-0.046146 -0.00295025 0)
  (-0.0493932 -0.00427721 0)
  (-0.0523259 -0.00552903 0)
  (-0.0549345 -0.00673585 0)
  (-0.0572522 -0.00794406 0)
  (-0.0594078 -0.00921232 0)
  (-0.0616734 -0.0105122 0)
  (-0.064382 -0.0116248 0)
  (-0.0678358 -0.0121761 0)
  (-0.0723651 -0.0116381 0)
  (-0.0784342 -0.00931002 0)
  (-0.0866474 -0.00436287 0)
  (-0.0970847 0.00383413 0)
  (-0.107663 0.0147725 0)
  (-0.122967 0.028606 0)
  (-0.147115 0.0453758 0)
  (-0.182625 0.0638726 0)
  (-0.232794 0.0800101 0)
  (-0.289911 0.0911631 0)
  (-0.358599 0.0973296 0)
  (-0.620981 0.0991795 0)
  (-0.149083 0.0836333 0)
  (0.13544 0.0634708 0)
  (0.21913 0.00819659 0)
  (0.202697 -0.0272713 0)
  (0.187175 -0.0422794 0)
  (0.164919 -0.047577 0)
  (0.132675 -0.0463981 0)
  (0.0942462 -0.0403045 0)
  (0.0543408 -0.0307704 0)
  (0.016504 -0.0187568 0)
  (-0.0212662 -0.00470819 0)
  (-0.0454822 0.00323104 0)
  (-0.0604025 0.00682484 0)
  (-0.0677794 0.00735744 0)
  (-0.0713163 0.0065682 0)
  (-0.0736382 0.00553606 0)
  (-0.0756099 0.00448948 0)
  (-0.0775826 0.00349075 0)
  (-0.0798653 0.00248645 0)
  (-0.082477 0.0013886 0)
  (-0.0853563 0.000248357 0)
  (-0.0885377 -0.000869036 0)
  (-0.0920963 -0.00188458 0)
  (-0.0961237 -0.00264277 0)
  (-0.100697 -0.00290102 0)
  (-0.105814 -0.00234623 0)
  (-0.111379 -0.000621097 0)
  (-0.117166 0.00263882 0)
  (-0.122573 0.00786235 0)
  (-0.126777 0.0157857 0)
  (-0.130246 0.0275431 0)
  (-0.133236 0.0435141 0)
  (-0.136566 0.0627931 0)
  (-0.140752 0.0816901 0)
  (-0.142598 0.0902675 0)
  (-0.125236 0.0676368 0)
  (-0.0813526 -0.0258704 0)
  (-0.279247 -0.203969 0)
  (-0.024853 0.23168 0)
  (0.0637674 0.100821 0)
  (0.0384591 0.020193 0)
  (0.0263413 -0.00354597 0)
  (0.0178191 -0.00938556 0)
  (-0.000138462 -0.0113331 0)
  (-0.0249625 -0.00902845 0)
  (-0.0509084 -0.00438056 0)
  (-0.0731466 0.000223444 0)
  (-0.0886956 0.00338432 0)
  (-0.0964708 0.00383878 0)
  (-0.099238 0.00167626 0)
  (-0.0997686 -0.0012554 0)
  (-0.0992699 -0.0045702 0)
  (-0.0988551 -0.00794555 0)
  (-0.0989542 -0.0111044 0)
  (-0.0995953 -0.0139259 0)
  (-0.100691 -0.0162259 0)
  (-0.102115 -0.0178755 0)
  (-0.103813 -0.0188837 0)
  (-0.105815 -0.019336 0)
  (-0.108089 -0.019238 0)
  (-0.11063 -0.0188638 0)
  (-0.113402 -0.018199 0)
  (-0.11629 -0.0171262 0)
  (-0.119062 -0.0154125 0)
  (-0.121355 -0.0126829 0)
  (-0.122657 -0.00836901 0)
  (-0.12242 -0.00222191 0)
  (-0.119671 0.00628797 0)
  (-0.112958 0.0180338 0)
  (-0.100995 0.0337722 0)
  (-0.0835061 0.0530614 0)
  (-0.0613963 0.07178 0)
  (-0.0375415 0.0827524 0)
  (0.0025756 0.0670298 0)
  (0.143604 -0.00431819 0)
  (-0.207569 -0.114651 0)
  (-0.104724 -0.349227 0)
  (-0.439667 -0.120146 0)
  (-0.311026 0.0964038 0)
  (-0.225647 -0.0202311 0)
  (-0.178743 -0.0422672 0)
  (-0.163807 -0.0304759 0)
  (-0.161277 -0.0175673 0)
  (-0.162701 -0.00717956 0)
  (-0.163588 0.00158271 0)
  (-0.16151 0.00915217 0)
  (-0.15702 0.016055 0)
  (-0.150163 0.0223279 0)
  (-0.141848 0.0277082 0)
  (-0.133516 0.0321532 0)
  (-0.126069 0.0362441 0)
  (-0.119842 0.0401834 0)
  (-0.114866 0.0440476 0)
  (-0.110976 0.0476548 0)
  (-0.108021 0.0506636 0)
  (-0.105902 0.0527715 0)
  (-0.104532 0.0538148 0)
  (-0.103833 0.0537983 0)
  (-0.103745 0.0528335 0)
  (-0.104205 0.0510256 0)
  (-0.105131 0.0488627 0)
  (-0.106426 0.0464794 0)
  (-0.107928 0.0439867 0)
  (-0.109369 0.0414787 0)
  (-0.110324 0.0390297 0)
  (-0.110115 0.0367119 0)
  (-0.107493 0.0353284 0)
  (-0.100564 0.0355777 0)
  (-0.0868504 0.0382229 0)
  (-0.0644831 0.0441628 0)
  (-0.0340728 0.0539046 0)
  (0.0145225 0.0671372 0)
  (0.0593766 0.0684116 0)
  (0.102109 0.0535445 0)
  (0.16413 0.024252 0)
  (-0.218579 -0.0309159 0)
)
;

boundaryField
{
  floor
  {
    type noSlip;
  }
  ceiling
  {
    type noSlip;
  }
  sWall
  {
    type noSlip;
  }
  nWall
  {
    type noSlip;
  }
  sideWalls
  {
    type empty;
  }
  glass1
  {
    type noSlip;
  }
  glass2
  {
    type noSlip;
  }
  sun
  {
    type noSlip;
  }
  heatsource1
  {
    type noSlip;
  }
  heatsource2
  {
    type noSlip;
  }
  Table_master
  {
    type noSlip;
  }
  Table_slave
  {
    type noSlip;
  }
  inlet
  {
    type fixedValue;
    value uniform (0.3 0 0);
  }
  outlet
  {
    type zeroGradient;
  }
} 	// ************************************************************************* //

