/*--------------------------------*- C++ -*----------------------------------*\
  =========                 |
  \\      /  F ield         | OpenFOAM: The Open Source CFD Toolbox
   \\    /   O peration     | Website:  https://openfoam.org
    \\  /    A nd           | Version:  6
     \\/     M anipulation  |
\*---------------------------------------------------------------------------*/
FoamFile
{
    version     2.0;
    format      ascii;
    class       volScalarField;
    location    "700";
    object      alphat;
}
// * * * * * * * * * * * * * * * * * * * * * * * * * * * * * * * * * * * * * //

dimensions      [1 -1 -1 0 0 0 0];

internalField   nonuniform List<scalar> 
459
(
0.00102318
0.00109501
0.00110497
0.00114896
0.00118758
0.00122205
0.0012541
0.00128569
0.00131495
0.00133506
0.00134063
0.00132573
0.00128669
0.00122518
0.001151
0.000473815
0.000559652
0.000606586
0.000590005
0.000564812
0.000537377
0.000509043
0.000482591
0.000458887
0.000437833
0.000419117
0.000402396
0.000387453
0.000373843
0.000361051
0.000348336
0.000334528
0.000327383
0.000305044
0.00143879
0.0027632
0.00245991
0.00281264
0.00310794
0.00342036
0.00372184
0.00396798
0.00416012
0.00434001
0.0044736
0.00452096
0.00444325
0.00416334
0.00335959
0.0011532
0.000689536
0.000501211
0.00085967
0.001074
0.00121019
0.0012667
0.0012555
0.00110918
0.00100668
0.000926289
0.000861123
0.000807293
0.00076231
0.000720619
0.000680007
0.000640014
0.000606711
0.000573125
0.000703302
0.000411566
0.00179895
0.00375768
0.00278022
0.00360152
0.0038448
0.00400782
0.00412439
0.00422088
0.00432669
0.00445427
0.004567
0.00463408
0.00465649
0.00466129
0.00461759
0.00405023
0.00101343
0.000932974
0.00113723
0.00128431
0.00141463
0.00150931
0.00150205
0.00067157
0.000615406
0.00056757
0.00052706
0.000492706
0.000463459
0.000438429
0.000417036
0.000398913
0.000423904
0.00047531
0.000796222
0.000485235
0.0021622
0.00512204
0.00260534
0.00375254
0.0039385
0.00393394
0.00390006
0.00391144
0.00399567
0.00412347
0.00423443
0.00428759
0.00430349
0.0043571
0.00448846
0.00449817
0.00358135
0.00124517
0.00137634
0.0015458
0.001732
0.00191331
0.00207117
0.00207683
0.000744176
0.000708723
0.000685846
0.000668639
0.000651171
0.000631699
0.000611067
0.000586997
0.000555958
0.000518551
0.000510611
0.000942635
0.000541738
0.00254061
0.00703163
0.00281366
0.00350012
0.00384089
0.00374838
0.00362763
0.00361985
0.00374946
0.00393298
0.00406504
0.00409637
0.00406332
0.00405786
0.00408428
0.00403458
0.00375387
0.00323781
0.00298993
0.00291312
0.00293269
0.00300375
0.00309778
0.00316799
0.00300856
0.00297779
0.00297609
0.00295381
0.00288376
0.00271731
0.00244612
0.00209455
0.00169025
0.00126386
0.000915886
0.000927583
0.000682599
0.000713228
0.000853359
0.000948291
0.00294288
0.0091812
0.00427586
0.0030678
0.00357518
0.0035962
0.00346059
0.00343155
0.00365507
0.00390339
0.00404373
0.0040441
0.00396055
0.00390288
0.00386032
0.0036971
0.00342465
0.00326197
0.00332613
0.00345309
0.00353675
0.00358721
0.00362818
0.00367533
0.00371518
0.00375913
0.00377821
0.00375678
0.00368971
0.00356761
0.00333426
0.00298468
0.00252178
0.00197673
0.00147015
0.00105454
0.000865136
0.000799634
0.00120083
0.000985189
0.0033582
0.0109194
0.00729155
0.00396368
0.00315511
0.00313066
0.00337433
0.00352669
0.00379978
0.00401374
0.00410746
0.00405337
0.00391284
0.00382817
0.003779
0.00357603
0.00327852
0.00323876
0.00346664
0.00362446
0.00363833
0.00360357
0.00359546
0.00363185
0.00369515
0.00375503
0.00378498
0.00377911
0.00374153
0.00368012
0.00358098
0.00331828
0.0029059
0.00239845
0.00191992
0.00146414
0.00119819
0.00114498
0.00122663
0.00107553
0.00346899
0.0107177
0.00874712
0.00684211
0.00529085
0.00440499
0.00424159
0.00419476
0.00420643
0.00426368
0.00423614
0.00406523
0.0038384
0.00375344
0.00374744
0.00352486
0.00324337
0.00335093
0.00341651
0.00336882
0.00329821
0.00326258
0.00327286
0.00331479
0.00336888
0.0034144
0.003441
0.00345123
0.0034557
0.00346893
0.00349898
0.00347029
0.00316074
0.00277369
0.00244175
0.00228614
0.00242846
0.00302723
0.00404511
0.00174727
0.00341033
0.00415888
0.00470847
0.0048742
0.00476955
0.00454677
0.00441676
0.00436537
0.00441974
0.00446387
0.00430319
0.00396209
0.00363512
0.00361812
0.00370237
0.0034155
0.00320687
0.00310149
0.00296095
0.00285773
0.00280731
0.00279781
0.0028122
0.00283514
0.00285442
0.00286045
0.00284783
0.00281466
0.00276025
0.00268391
0.00258625
0.00247789
0.00238159
0.00232594
0.0023364
0.00240139
0.00244492
0.00238885
0.00224731
0.00162708
0.00251577
0.00407864
0.00461866
0.00478456
0.00488861
0.00496793
0.00495766
0.00472732
0.00414893
0.00354387
0.00315223
0.00335383
0.0035278
0.00322284
0.00290681
0.00260829
0.00241978
0.00233001
0.00229355
0.00228394
0.00228677
0.00229326
0.00229772
0.00229672
0.00228917
0.00227639
0.00226198
0.00225191
0.00225454
0.00227615
0.00230805
0.0023549
0.00241111
0.00244652
0.00241052
0.00227949
0.00206122
0.00133179
0.00268311
0.00480452
0.0052621
0.00523206
0.00512421
0.00498441
0.0046953
0.00400812
0.00307765
0.00246978
0.00214893
0.00253204
0.00250197
0.0023336
0.00206689
0.00183385
0.00170057
0.00163516
0.00160976
0.00161031
0.00162981
0.00166446
0.00171206
0.00177118
0.00184057
0.00191839
0.00200145
0.00208422
0.00217352
0.00227223
0.00238074
0.00249613
0.00260559
0.00269234
0.00270625
0.00277243
0.00263583
0.00134834
0.00233791
0.00245732
0.00255732
0.00269175
0.00250812
0.00228791
0.00205189
0.00182837
0.00161351
0.00143711
0.00110195
0.00074213
0.00066761
0.000651906
0.000626696
0.00060051
0.000590492
0.000594796
0.000605861
0.000621434
0.00064035
0.000662035
0.000686198
0.000712699
0.000741514
0.000772725
0.000806552
0.000843427
0.000884134
0.000930072
0.000981453
0.00103831
0.00110145
0.00117202
0.00125091
0.00135215
0.00138736
0.00135832
0.00127198
0.00117925
)
;

boundaryField
{
    floor
    {
        type            compressible::alphatWallFunction;
        Prt             0.85;
        value           nonuniform List<scalar> 
29
(
0.000163373
6.52053e-05
7.82981e-05
8.53472e-05
8.28629e-05
7.90731e-05
7.49225e-05
7.06087e-05
6.65542e-05
6.28973e-05
5.96291e-05
5.6707e-05
5.40822e-05
5.17246e-05
4.95672e-05
4.753e-05
4.54957e-05
4.32755e-05
4.21218e-05
3.84936e-05
3.8493e-05
5.55226e-05
6.69608e-05
7.55845e-05
0.000163371
6.52045e-05
6.94157e-05
0.000132813
0.000176359
)
;
    }
    ceiling
    {
        type            compressible::alphatWallFunction;
        Prt             0.85;
        value           nonuniform List<scalar> 
43
(
0.000320666
0.000335919
0.000348634
0.000365741
0.000342517
0.000314396
0.000283933
0.000254723
0.000226269
0.000202603
0.000156764
0.000105485
9.45271e-05
9.22054e-05
8.84665e-05
8.45565e-05
8.3054e-05
8.36989e-05
8.53555e-05
8.76809e-05
9.04959e-05
9.37106e-05
9.72774e-05
0.000101172
0.000105387
0.00010993
0.000114829
0.000120142
0.000125975
0.00013252
0.000139795
0.000147793
0.000156618
0.000166411
0.000177279
0.000191114
0.000195899
0.000191955
0.00018017
0.000167414
0.000455528
0.000546736
0.000364477
)
;
    }
    sWall
    {
        type            compressible::alphatWallFunction;
        Prt             0.85;
        value           uniform 0.000319437;
    }
    nWall
    {
        type            compressible::alphatWallFunction;
        Prt             0.85;
        value           nonuniform List<scalar> 6(0.00013477 0.000139982 0.000152653 0.000188004 0.000190255 0.000167078);
    }
    sideWalls
    {
        type            empty;
    }
    glass1
    {
        type            compressible::alphatWallFunction;
        Prt             0.85;
        value           nonuniform List<scalar> 9(0.000141664 0.00019798 0.00024544 0.000292357 0.000340417 0.000390739 0.000441985 0.000455676 0.000448718);
    }
    glass2
    {
        type            compressible::alphatWallFunction;
        Prt             0.85;
        value           nonuniform List<scalar> 2(0.000242162 0.000226351);
    }
    sun
    {
        type            compressible::alphatWallFunction;
        Prt             0.85;
        value           nonuniform List<scalar> 
14
(
0.000145554
0.000155586
0.000156972
0.000163082
0.000168423
0.000173173
0.000177577
0.000181903
0.000185902
0.000188644
0.000189403
0.000187374
0.000182044
0.000173609
)
;
    }
    heatsource1
    {
        type            compressible::alphatWallFunction;
        Prt             0.85;
        value           nonuniform List<scalar> 3(0.000101259 0.000121578 0.000135115);
    }
    heatsource2
    {
        type            compressible::alphatWallFunction;
        Prt             0.85;
        value           nonuniform List<scalar> 4(0.000163826 9.7777e-05 9.77758e-05 0.000144298);
    }
    Table_master
    {
        type            compressible::alphatWallFunction;
        Prt             0.85;
        value           nonuniform List<scalar> 9(9.51209e-05 8.67831e-05 7.96079e-05 7.34727e-05 6.82235e-05 6.37183e-05 5.9834e-05 5.64916e-05 5.3643e-05);
    }
    Table_slave
    {
        type            compressible::alphatWallFunction;
        Prt             0.85;
        value           nonuniform List<scalar> 9(0.000105778 0.000100593 9.72302e-05 9.4692e-05 9.21072e-05 8.92154e-05 8.61395e-05 8.25347e-05 7.78587e-05);
    }
    inlet
    {
        type            fixedValue;
        value           uniform 1.94e-05;
    }
    outlet
    {
        type            zeroGradient;
    }
}


// ************************************************************************* //
