// -*- C++ -*-
// File generated by PyFoam - sorry for the ugliness

FoamFile
{
 version 2.0;
 format ascii;
 class volVectorField;
 location "700";
 object U;
}

dimensions [ 0 1 -1 0 0 0 0 ];

internalField nonuniform List<vector> 459
(
  (0.0492844 0.0836241 0)
  (-0.162476 0.021439 0)
  (-0.181631 0.0178377 0)
  (-0.213209 0.0136984 0)
  (-0.238615 0.00888223 0)
  (-0.257043 0.00367713 0)
  (-0.267236 -0.00202503 0)
  (-0.267436 -0.00838904 0)
  (-0.256083 -0.0156125 0)
  (-0.232762 -0.0232389 0)
  (-0.198369 -0.0301414 0)
  (-0.155653 -0.035186 0)
  (-0.108941 -0.0378427 0)
  (-0.0659418 -0.038711 0)
  (-0.0455613 -0.0385871 0)
  (0.00119829 0.00658199 0)
  (-0.0237291 -0.0209895 0)
  (0.0034679 -0.0293972 0)
  (0.0253559 -0.0206879 0)
  (0.0420708 -0.0133564 0)
  (0.0536196 -0.0083011 0)
  (0.0598585 -0.00510758 0)
  (0.0626031 -0.00353958 0)
  (0.0637556 -0.002851 0)
  (0.0643861 -0.00249648 0)
  (0.0647859 -0.00226024 0)
  (0.0649379 -0.00206233 0)
  (0.0647642 -0.00179586 0)
  (0.0640303 -0.00128575 0)
  (0.0621376 -0.000149074 0)
  (0.0578832 0.00213148 0)
  (0.0499674 0.00447244 0)
  (0.0435179 0.00573496 0)
  (-0.0174341 0.0211612 0)
  (0.238681 0.17355 0)
  (-0.160425 0.0584265 0)
  (-0.149758 0.0523245 0)
  (-0.183857 0.0438772 0)
  (-0.20932 0.0340841 0)
  (-0.227909 0.0229491 0)
  (-0.238597 0.00994823 0)
  (-0.239625 -0.00539876 0)
  (-0.229437 -0.0228945 0)
  (-0.208109 -0.0406351 0)
  (-0.17682 -0.0556902 0)
  (-0.138676 -0.0652629 0)
  (-0.0979538 -0.0677642 0)
  (-0.0602122 -0.0628996 0)
  (-0.0320501 -0.0505584 0)
  (-0.0086018 -0.0268103 0)
  (0.000450602 0.011682 0)
  (0.0803399 0.033353 0)
  (0.0362397 -0.020962 0)
  (0.0410632 -0.0326687 0)
  (0.0526122 -0.0267648 0)
  (0.0616145 -0.0173506 0)
  (0.0671085 -0.00909866 0)
  (0.0690537 -0.00318917 0)
  (0.0691104 -0.00013608 0)
  (0.0689328 0.0011866 0)
  (0.0689916 0.00183529 0)
  (0.0691381 0.00225785 0)
  (0.069238 0.00264255 0)
  (0.0692392 0.00314614 0)
  (0.069087 0.00413698 0)
  (0.0682166 0.00654163 0)
  (0.0640942 0.0131231 0)
  (0.0537025 0.0183683 0)
  (0.0497444 0.020652 0)
  (-0.057096 0.0465054 0)
  (0.41188 0.261539 0)
  (-0.188875 0.0964317 0)
  (-0.113503 0.0864567 0)
  (-0.14947 0.0699652 0)
  (-0.17233 0.0532217 0)
  (-0.189745 0.0346945 0)
  (-0.200502 0.0132407 0)
  (-0.202277 -0.0117731 0)
  (-0.19278 -0.0398174 0)
  (-0.172785 -0.0678045 0)
  (-0.144079 -0.0907159 0)
  (-0.110265 -0.104264 0)
  (-0.0753187 -0.106356 0)
  (-0.0433202 -0.0961303 0)
  (-0.0177928 -0.072988 0)
  (0.002664 -0.0343217 0)
  (0.0109764 0.0209057 0)
  (0.122733 -0.0457289 0)
  (0.0775413 -0.0484313 0)
  (0.0704934 -0.0428609 0)
  (0.0728663 -0.0333238 0)
  (0.0748221 -0.0227231 0)
  (0.0756112 -0.0132957 0)
  (0.0736717 -0.0106361 0)
  (0.070158 -0.00799431 0)
  (0.0678933 -0.00657953 0)
  (0.066927 -0.005766 0)
  (0.0665387 -0.00524515 0)
  (0.0664031 -0.00486413 0)
  (0.0666079 -0.00441719 0)
  (0.0676542 -0.00355069 0)
  (0.0708483 -0.000352101 0)
  (0.0687653 0.0177507 0)
  (0.0543183 0.0304463 0)
  (0.0578426 0.0376487 0)
  (-0.0910863 0.0729389 0)
  (0.56603 0.333309 0)
  (-0.234918 0.132067 0)
  (-0.0729184 0.116138 0)
  (-0.112044 0.0927793 0)
  (-0.129083 0.0716128 0)
  (-0.143203 0.0479953 0)
  (-0.15286 0.0196824 0)
  (-0.154592 -0.0145899 0)
  (-0.144749 -0.053412 0)
  (-0.125751 -0.0912745 0)
  (-0.100328 -0.120934 0)
  (-0.0722802 -0.137236 0)
  (-0.0447437 -0.138604 0)
  (-0.0200369 -0.124574 0)
  (0.00127919 -0.095661 0)
  (0.0226328 -0.0558251 0)
  (0.0531953 -0.013597 0)
  (0.0895343 0.015009 0)
  (0.0981947 -0.0291132 0)
  (0.0827426 -0.0391368 0)
  (0.0740921 -0.035019 0)
  (0.0711096 -0.028295 0)
  (0.0699541 -0.0204184 0)
  (0.0708624 -0.0109781 0)
  (0.0750642 -0.00718137 0)
  (0.0810206 -0.00598889 0)
  (0.0861502 -0.00522969 0)
  (0.0900297 -0.00445797 0)
  (0.0924972 -0.00336044 0)
  (0.0927467 -0.00177274 0)
  (0.0896684 0.000456504 0)
  (0.0822345 0.00357778 0)
  (0.0677615 0.00819017 0)
  (0.0551149 0.0293773 0)
  (0.042163 0.0469381 0)
  (0.0618498 0.0596376 0)
  (-0.131314 0.0964553 0)
  (0.698204 0.390128 0)
  (-0.286253 0.163469 0)
  (-0.0300421 0.134485 0)
  (-0.0726047 0.10748 0)
  (-0.0815927 0.0842989 0)
  (-0.0902387 0.0577196 0)
  (-0.0971505 0.0245753 0)
  (-0.096741 -0.0174754 0)
  (-0.0844547 -0.0663109 0)
  (-0.0667934 -0.112097 0)
  (-0.0465315 -0.145673 0)
  (-0.0265489 -0.162148 0)
  (-0.0087013 -0.161438 0)
  (0.00661327 -0.143502 0)
  (0.018952 -0.113274 0)
  (0.032032 -0.0765982 0)
  (0.0500463 -0.0445562 0)
  (0.0657691 -0.0347924 0)
  (0.0699993 -0.0413444 0)
  (0.0644334 -0.0390447 0)
  (0.0569771 -0.0323551 0)
  (0.0522392 -0.0258402 0)
  (0.050127 -0.0198085 0)
  (0.0507414 -0.0139385 0)
  (0.0541087 -0.00941735 0)
  (0.0591858 -0.00726177 0)
  (0.0641232 -0.0060725 0)
  (0.0684959 -0.00455173 0)
  (0.07199 -0.00188999 0)
  (0.0740803 0.00224174 0)
  (0.0734311 0.00763354 0)
  (0.0697689 0.0143233 0)
  (0.0626663 0.0230618 0)
  (0.0543165 0.0393933 0)
  (0.0419459 0.05919 0)
  (0.0687546 0.0806303 0)
  (-0.0342648 0.111294 0)
  (0.0419736 0.0213817 0)
  (-0.0726222 -0.0408767 0)
  (-0.280461 -0.0636201 0)
  (0.793572 0.438967 0)
  (-0.333757 0.187334 0)
  (0.00560177 0.134095 0)
  (-0.0315288 0.1138 0)
  (-0.0324054 0.0911708 0)
  (-0.0348676 0.0633655 0)
  (-0.0379844 0.0284054 0)
  (-0.02977 -0.020458 0)
  (-0.0126856 -0.0798881 0)
  (0.00173537 -0.130119 0)
  (0.0140423 -0.163378 0)
  (0.0235943 -0.176763 0)
  (0.0299601 -0.172245 0)
  (0.0333608 -0.152262 0)
  (0.0349152 -0.121138 0)
  (0.0367729 -0.0853146 0)
  (0.0408691 -0.0539779 0)
  (0.0443993 -0.0369901 0)
  (0.042867 -0.0317851 0)
  (0.0368618 -0.0292611 0)
  (0.0303152 -0.0256675 0)
  (0.0262365 -0.0220346 0)
  (0.0248667 -0.0187764 0)
  (0.026014 -0.0156731 0)
  (0.0293333 -0.0132832 0)
  (0.0338958 -0.0122397 0)
  (0.0387443 -0.0114217 0)
  (0.0435411 -0.00972624 0)
  (0.0480694 -0.00629936 0)
  (0.0521271 -0.000461818 0)
  (0.0547463 0.00743859 0)
  (0.0551773 0.0167568 0)
  (0.0540881 0.0278477 0)
  (0.0533299 0.0430032 0)
  (0.0498702 0.0622959 0)
  (0.0766893 0.0873648 0)
  (0.0473271 0.106815 0)
  (0.0939057 0.0700769 0)
  (0.11997 0.0446041 0)
  (-0.143023 -0.0152228 0)
  (0.830994 0.482946 0)
  (-0.358989 0.175054 0)
  (0.0294546 0.088484 0)
  (0.0212047 0.107164 0)
  (0.0229146 0.0957764 0)
  (0.0247284 0.0643742 0)
  (0.0268597 0.0216897 0)
  (0.0504183 -0.0391558 0)
  (0.0674003 -0.0971389 0)
  (0.074684 -0.141138 0)
  (0.0762373 -0.169137 0)
  (0.0739124 -0.178971 0)
  (0.0675739 -0.170994 0)
  (0.0579729 -0.148465 0)
  (0.046267 -0.116331 0)
  (0.035029 -0.0809041 0)
  (0.0262691 -0.0504134 0)
  (0.0194688 -0.0319673 0)
  (0.0131429 -0.0250476 0)
  (0.00702443 -0.022969 0)
  (0.0020997 -0.0213964 0)
  (-0.000767984 -0.0200259 0)
  (-0.00162009 -0.0189551 0)
  (-0.000781457 -0.0179329 0)
  (0.00156097 -0.0171543 0)
  (0.00476906 -0.0168112 0)
  (0.00838706 -0.0162622 0)
  (0.0123177 -0.0147497 0)
  (0.0166589 -0.0114442 0)
  (0.0215749 -0.00534214 0)
  (0.0285264 0.00410673 0)
  (0.0335885 0.0146421 0)
  (0.0382923 0.0259673 0)
  (0.044855 0.0393997 0)
  (0.0513108 0.0551305 0)
  (0.0765104 0.0758279 0)
  (0.0872317 0.0840832 0)
  (0.122692 0.055372 0)
  (0.164882 0.0426647 0)
  (-0.036413 0.0938307 0)
  (0.932203 0.493773 0)
  (-0.107736 0.156276 0)
  (0.0946547 0.0218904 0)
  (0.137905 0.0402305 0)
  (0.125087 0.0505819 0)
  (0.117872 0.0250207 0)
  (0.122658 -0.0248399 0)
  (0.14965 -0.0697762 0)
  (0.157041 -0.108912 0)
  (0.149935 -0.140745 0)
  (0.135997 -0.16209 0)
  (0.118902 -0.167462 0)
  (0.0979441 -0.155811 0)
  (0.0738119 -0.13089 0)
  (0.0473532 -0.0981684 0)
  (0.0228556 -0.0637555 0)
  (0.00378634 -0.0358173 0)
  (-0.00901928 -0.0213042 0)
  (-0.0160025 -0.0182067 0)
  (-0.0210424 -0.0180006 0)
  (-0.0247727 -0.0182089 0)
  (-0.0273559 -0.0184598 0)
  (-0.028955 -0.0186963 0)
  (-0.0296899 -0.0188729 0)
  (-0.0296873 -0.0190545 0)
  (-0.0292057 -0.0192251 0)
  (-0.0284315 -0.0191204 0)
  (-0.0273386 -0.0183458 0)
  (-0.0256872 -0.0164359 0)
  (-0.0229383 -0.0128368 0)
  (-0.0174623 -0.00682856 0)
  (-0.00639259 0.00195964 0)
  (0.00215111 0.0113833 0)
  (0.0133684 0.0197666 0)
  (0.0251105 0.027335 0)
  (0.0476976 0.0364218 0)
  (0.0675789 0.0291562 0)
  (0.0882586 -0.00463973 0)
  (0.149866 0.039088 0)
  (-0.437816 0.213677 0)
  (1.0654 0.450104 0)
  (0.52026 0.300834 0)
  (0.518662 0.228182 0)
  (0.49195 0.178241 0)
  (0.423672 0.14133 0)
  (0.367437 0.094102 0)
  (0.339567 0.0419897 0)
  (0.304307 -0.0139535 0)
  (0.26098 -0.064147 0)
  (0.216635 -0.103908 0)
  (0.176832 -0.130648 0)
  (0.142656 -0.137776 0)
  (0.107623 -0.125591 0)
  (0.0704465 -0.099972 0)
  (0.029837 -0.0680329 0)
  (-0.005261 -0.0359727 0)
  (-0.0260722 -0.0180788 0)
  (-0.0359393 -0.0136419 0)
  (-0.0418597 -0.0137423 0)
  (-0.046497 -0.0147307 0)
  (-0.0505241 -0.0156943 0)
  (-0.0541729 -0.0165108 0)
  (-0.0575661 -0.0171841 0)
  (-0.0607862 -0.0177175 0)
  (-0.0639441 -0.018109 0)
  (-0.0672191 -0.0182708 0)
  (-0.0708102 -0.0179613 0)
  (-0.0749214 -0.0167993 0)
  (-0.0798253 -0.0142825 0)
  (-0.0859408 -0.0098041 0)
  (-0.093781 -0.00273316 0)
  (-0.102862 0.00712499 0)
  (-0.112397 0.0191936 0)
  (-0.128352 0.0339209 0)
  (-0.154098 0.0514827 0)
  (-0.191781 0.0702488 0)
  (-0.245878 0.0851595 0)
  (-0.308013 0.0935342 0)
  (-0.378977 0.0960695 0)
  (-0.645127 0.0933025 0)
  (-0.180682 0.141499 0)
  (0.171274 0.164678 0)
  (0.26013 0.132702 0)
  (0.254822 0.0874675 0)
  (0.245002 0.03885 0)
  (0.230561 -0.00543802 0)
  (0.205931 -0.0406219 0)
  (0.174163 -0.0700497 0)
  (0.142225 -0.0945726 0)
  (0.112077 -0.098995 0)
  (0.0747956 -0.0838535 0)
  (0.0342106 -0.0572419 0)
  (-0.0165184 -0.0275932 0)
  (-0.0418581 -0.0139877 0)
  (-0.0535857 -0.0107963 0)
  (-0.0599047 -0.0111412 0)
  (-0.0646336 -0.0122146 0)
  (-0.0691204 -0.0131731 0)
  (-0.0737303 -0.0139113 0)
  (-0.078566 -0.0144593 0)
  (-0.0836688 -0.0148283 0)
  (-0.0890699 -0.0149945 0)
  (-0.0948099 -0.0148924 0)
  (-0.100928 -0.014376 0)
  (-0.107413 -0.013184 0)
  (-0.114156 -0.0109436 0)
  (-0.120909 -0.00720861 0)
  (-0.127241 -0.00152783 0)
  (-0.132413 0.00649914 0)
  (-0.135775 0.0171214 0)
  (-0.138239 0.0312679 0)
  (-0.140405 0.0493196 0)
  (-0.143293 0.0704713 0)
  (-0.147473 0.0905758 0)
  (-0.149795 0.0983802 0)
  (-0.131864 0.0717058 0)
  (-0.0822241 -0.0301176 0)
  (-0.288381 -0.216741 0)
  (-0.0875612 0.270462 0)
  (0.0837036 0.174705 0)
  (0.094124 0.107073 0)
  (0.111373 0.0738171 0)
  (0.125911 0.0459913 0)
  (0.127204 0.0231525 0)
  (0.11976 0.00145326 0)
  (0.104869 -0.0334066 0)
  (0.0769156 -0.0692144 0)
  (0.0433718 -0.0629156 0)
  (-0.00119556 -0.0283951 0)
  (-0.0431604 0.0188338 0)
  (-0.0650727 0.0293267 0)
  (-0.0727229 0.0300937 0)
  (-0.0757674 0.0275904 0)
  (-0.0783148 0.0235431 0)
  (-0.0813961 0.020174 0)
  (-0.0851433 0.0174589 0)
  (-0.0894106 0.0151755 0)
  (-0.0940622 0.0132014 0)
  (-0.0989926 0.0114836 0)
  (-0.104113 0.0100024 0)
  (-0.109338 0.00876288 0)
  (-0.114558 0.00780574 0)
  (-0.119605 0.00721802 0)
  (-0.124226 0.00713761 0)
  (-0.128065 0.00775786 0)
  (-0.130578 0.00933399 0)
  (-0.130912 0.0126579 0)
  (-0.127948 0.0189857 0)
  (-0.120222 0.0292201 0)
  (-0.106614 0.0442038 0)
  (-0.087288 0.0636594 0)
  (-0.0635654 0.0830717 0)
  (-0.0385893 0.0941651 0)
  (0.00391334 0.076406 0)
  (0.146254 0.00122955 0)
  (-0.210481 -0.1283 0)
  (-0.174709 -0.378689 0)
  (-0.460161 -0.104367 0)
  (-0.322446 0.15938 0)
  (-0.174467 0.0430088 0)
  (-0.0883158 -0.00230815 0)
  (-0.0126281 -0.015317 0)
  (0.0367805 -0.0413565 0)
  (0.060187 -0.0712542 0)
  (0.0667082 -0.103132 0)
  (0.0585681 -0.13372 0)
  (-0.00189837 -0.140818 0)
  (-0.0748094 -0.085945 0)
  (-0.0930622 -0.0742877 0)
  (-0.0969109 -0.0722241 0)
  (-0.0932872 -0.0734074 0)
  (-0.0905282 -0.0767053 0)
  (-0.0894626 -0.0777319 0)
  (-0.0901613 -0.0756061 0)
  (-0.0922328 -0.07246 0)
  (-0.0951263 -0.0687957 0)
  (-0.0985451 -0.0649181 0)
  (-0.102316 -0.0609816 0)
  (-0.10632 -0.0570558 0)
  (-0.110452 -0.053159 0)
  (-0.114599 -0.0492696 0)
  (-0.118602 -0.0453258 0)
  (-0.122225 -0.0412191 0)
  (-0.125117 -0.0367837 0)
  (-0.126785 -0.0317764 0)
  (-0.126547 -0.0258502 0)
  (-0.123268 -0.0189922 0)
  (-0.11494 -0.011018 0)
  (-0.0988451 -0.00126536 0)
  (-0.0730012 0.0112339 0)
  (-0.038336 0.0271738 0)
  (0.0171312 0.0475051 0)
  (0.0672735 0.0489901 0)
  (0.114575 0.0292741 0)
  (0.172172 -0.00744708 0)
  (-0.196369 -0.071345 0)
)
;

boundaryField
{
  floor
  {
    type noSlip;
  }
  ceiling
  {
    type noSlip;
  }
  sWall
  {
    type noSlip;
  }
  nWall
  {
    type noSlip;
  }
  sideWalls
  {
    type empty;
  }
  glass1
  {
    type noSlip;
  }
  glass2
  {
    type noSlip;
  }
  sun
  {
    type noSlip;
  }
  heatsource1
  {
    type noSlip;
  }
  heatsource2
  {
    type noSlip;
  }
  Table_master
  {
    type noSlip;
  }
  Table_slave
  {
    type noSlip;
  }
  inlet
  {
    type fixedValue;
    value uniform (0.3 0 0);
  }
  outlet
  {
    type zeroGradient;
  }
} 	// ************************************************************************* //

