/*--------------------------------*- C++ -*----------------------------------*\
  =========                 |
  \\      /  F ield         | OpenFOAM: The Open Source CFD Toolbox
   \\    /   O peration     | Website:  https://openfoam.org
    \\  /    A nd           | Version:  6
     \\/     M anipulation  |
\*---------------------------------------------------------------------------*/
FoamFile
{
    version     2.0;
    format      ascii;
    class       volScalarField;
    location    "1400";
    object      nut;
}
// * * * * * * * * * * * * * * * * * * * * * * * * * * * * * * * * * * * * * //

dimensions      [0 2 -1 0 0 0 0];

internalField   nonuniform List<scalar> 
459
(
0.00106452
0.00116058
0.00118249
0.00123892
0.00129121
0.00134053
0.00138952
0.00143635
0.00146927
0.001482
0.00146854
0.00142463
0.00134826
0.00124162
0.00111643
0.000464022
0.000553969
0.00062598
0.000632127
0.000614239
0.000588326
0.000552191
0.000515317
0.000481761
0.000452045
0.000425805
0.000402561
0.000381918
0.000363462
0.000346522
0.000330258
0.000313517
0.000303195
0.000277609
0.00145004
0.00343874
0.00325417
0.00377481
0.00428498
0.00479662
0.00524148
0.00558738
0.0059089
0.00617649
0.00635344
0.00640177
0.00627581
0.00586736
0.00471998
0.00113657
0.000705233
0.000483968
0.00101922
0.00142902
0.00174008
0.00192475
0.00193532
0.00152981
0.00131435
0.00116152
0.00104482
0.000952592
0.000877929
0.000814665
0.000755808
0.000698753
0.000648028
0.00060329
0.000717572
0.000369603
0.001771
0.00466544
0.00396964
0.00494603
0.00539439
0.00572028
0.00597474
0.00619854
0.00645859
0.00674076
0.00701193
0.00722129
0.007323
0.00724135
0.00675368
0.00518236
0.00117035
0.000909968
0.00132648
0.00172999
0.00212238
0.00241505
0.00238723
0.000785241
0.000694556
0.000620893
0.000561096
0.000512223
0.000471921
0.000438445
0.000410667
0.000388094
0.000419117
0.000483824
0.000811705
0.000431988
0.00207967
0.00596974
0.00391903
0.00516637
0.00550549
0.00558688
0.00565422
0.00578035
0.00599826
0.00629185
0.00663005
0.0069406
0.00717394
0.00726459
0.00716222
0.00660335
0.00443222
0.00136972
0.00164297
0.00209823
0.00259802
0.00304466
0.00335403
0.00319656
0.000889056
0.000813553
0.000759776
0.00071888
0.000683935
0.000651208
0.000619692
0.00058643
0.000547646
0.00051364
0.000519157
0.000943889
0.000481386
0.00239457
0.00767161
0.00423662
0.00492595
0.00539252
0.00534387
0.00529644
0.00539153
0.00559602
0.00589603
0.00627004
0.00661213
0.00685175
0.00694441
0.00689115
0.00666803
0.00610285
0.0051705
0.00485524
0.00480709
0.00485762
0.00491696
0.00492641
0.00477326
0.00405876
0.0037113
0.00350905
0.00335192
0.0031858
0.00294901
0.00262138
0.00221896
0.00176987
0.00132256
0.0009777
0.000966323
0.000656753
0.000594418
0.00071677
0.000805255
0.00272909
0.00953866
0.00582749
0.00475977
0.00520977
0.00535534
0.00521167
0.00530221
0.00547227
0.00575073
0.00611434
0.00647101
0.0067096
0.00676326
0.00664683
0.00644584
0.00625615
0.0061372
0.00615076
0.00618333
0.00616136
0.0060746
0.00592575
0.00570303
0.00536746
0.00506589
0.00479998
0.0045477
0.00429431
0.00402457
0.00368158
0.00324888
0.0027253
0.00214263
0.00161824
0.00119236
0.000913523
0.000779019
0.00110795
0.000842467
0.0030432
0.0108876
0.00835644
0.00604233
0.00563994
0.00567238
0.00553383
0.00545521
0.00553706
0.00580163
0.00618478
0.00655929
0.00678685
0.00679081
0.00660591
0.00638648
0.00633619
0.00651765
0.00674188
0.00681733
0.00671502
0.00648337
0.00616681
0.00579821
0.00541199
0.00506259
0.00475346
0.00447366
0.00421919
0.003993
0.00379335
0.00351805
0.00311777
0.00261884
0.00212876
0.00167299
0.00134889
0.0012525
0.00128185
0.000966058
0.00311114
0.00988083
0.00857193
0.00759472
0.00699652
0.00633867
0.00578426
0.0055501
0.00565309
0.00600964
0.00647217
0.00686613
0.00703879
0.00693872
0.00666059
0.00644828
0.00653784
0.00683776
0.00696443
0.00682294
0.00648844
0.00603749
0.00553866
0.00505734
0.00464344
0.00431129
0.0040438
0.00382588
0.00365413
0.0035329
0.00346956
0.00344344
0.00325294
0.0029362
0.00264892
0.00249912
0.00260233
0.00300386
0.0036692
0.00149688
0.00303621
0.00362561
0.00409562
0.00424405
0.00425739
0.00435455
0.00463747
0.00513396
0.0058005
0.00650606
0.00708417
0.00738951
0.00732586
0.00695799
0.00656347
0.00649485
0.00656338
0.00656224
0.00635284
0.00593844
0.00539861
0.00482343
0.00429661
0.00386956
0.00354869
0.00330937
0.00312198
0.00296636
0.00283021
0.00270458
0.00258236
0.00246421
0.00236888
0.00229773
0.00226854
0.00227364
0.00225335
0.00215523
0.00201018
0.00140033
0.00182938
0.00326119
0.00451148
0.00555364
0.00640294
0.00716791
0.00776753
0.0080732
0.00804069
0.00768733
0.00706787
0.00636636
0.0059385
0.00578195
0.00560643
0.00528243
0.00481882
0.00428723
0.00376115
0.00330681
0.00296144
0.00271724
0.0025476
0.00242659
0.00233678
0.00226884
0.00221864
0.00218527
0.00217249
0.00218285
0.00220315
0.00223001
0.00225536
0.00225421
0.00218697
0.00204211
0.00183261
0.0011495
0.00212895
0.00456018
0.00624714
0.00704347
0.00758162
0.00795532
0.00793551
0.00744089
0.00667732
0.00585684
0.0051679
0.00467012
0.00433575
0.0040328
0.0036672
0.00325815
0.00285965
0.002521
0.00226653
0.00209222
0.00197563
0.00189941
0.00185679
0.00183997
0.00184364
0.0018645
0.00189972
0.00194539
0.00200808
0.00208503
0.00217374
0.00226761
0.00235109
0.00240622
0.00238546
0.00239904
0.0023693
0.00116867
0.0018309
0.0019281
0.00200006
0.00206965
0.00187748
0.00172499
0.00165193
0.00157798
0.00147015
0.00133705
0.00118504
0.00103426
0.000900929
0.000795335
0.000718976
0.00066511
0.000626464
0.000598958
0.000580988
0.000571773
0.000570294
0.000575294
0.000585696
0.00060097
0.000620039
0.000642687
0.00066902
0.000699346
0.000734272
0.000774928
0.00082059
0.000871464
0.000928173
0.000991289
0.00106061
0.00114422
0.00117012
0.00114004
0.001068
0.000991147
)
;

boundaryField
{
    floor
    {
        type            nutkWallFunction;
        Cmu             0.09;
        kappa           0.41;
        E               9.8;
        value           nonuniform List<scalar> 
29
(
0.000134335
5.50903e-05
6.65643e-05
7.55842e-05
7.6348e-05
7.41225e-05
7.08844e-05
6.63398e-05
6.16644e-05
5.73736e-05
5.35427e-05
5.01335e-05
4.70915e-05
4.43709e-05
4.19227e-05
3.96614e-05
3.74768e-05
3.52136e-05
3.38101e-05
3.03035e-05
3.03034e-05
4.27385e-05
5.09386e-05
5.73247e-05
0.000134335
5.50903e-05
5.76567e-05
0.000110073
0.000163419
)
;
    }
    ceiling
    {
        type            nutkWallFunction;
        Cmu             0.09;
        kappa           0.41;
        E               9.8;
        value           nonuniform List<scalar> 
43
(
0.000214774
0.00022542
0.000233267
0.000240918
0.000219996
0.000203213
0.000195115
0.000186875
0.000174777
0.000159704
0.000142282
0.000124748
0.000108997
9.63316e-05
8.70497e-05
8.04318e-05
7.56444e-05
7.22152e-05
6.99647e-05
6.88074e-05
6.86214e-05
6.92498e-05
7.05551e-05
7.24667e-05
7.4845e-05
7.76582e-05
8.09142e-05
8.4645e-05
8.8918e-05
9.38618e-05
9.9378e-05
0.000105482
0.000112237
0.000119699
0.000127833
0.000137564
0.000140561
0.00013708
0.000128697
0.000119683
0.0003439
0.000404823
0.000247141
)
;
    }
    sWall
    {
        type            nutkWallFunction;
        Cmu             0.09;
        kappa           0.41;
        E               9.8;
        value           uniform 0.000214833;
    }
    nWall
    {
        type            nutkWallFunction;
        Cmu             0.09;
        kappa           0.41;
        E               9.8;
        value           nonuniform List<scalar> 6(9.75303e-05 0.00010201 0.000116727 0.000138186 0.000140405 0.000119689);
    }
    sideWalls
    {
        type            empty;
    }
    glass1
    {
        type            nutkWallFunction;
        Cmu             0.09;
        kappa           0.41;
        E               9.8;
        value           nonuniform List<scalar> 9(0.000128389 0.000172729 0.000208623 0.000242472 0.000276451 0.000312033 0.000345031 0.000352131 0.000344327);
    }
    glass2
    {
        type            nutkWallFunction;
        Cmu             0.09;
        kappa           0.41;
        E               9.8;
        value           nonuniform List<scalar> 2(0.000177866 0.000166962);
    }
    sun
    {
        type            nutkWallFunction;
        Cmu             0.09;
        kappa           0.41;
        E               9.8;
        value           nonuniform List<scalar> 
14
(
0.000128292
0.000139456
0.000141987
0.000148484
0.000154475
0.000160101
0.000165667
0.000170966
0.000174679
0.000176113
0.000174597
0.000169641
0.000160979
0.000148794
)
;
    }
    heatsource1
    {
        type            nutkWallFunction;
        Cmu             0.09;
        kappa           0.41;
        E               9.8;
        value           nonuniform List<scalar> 3(7.1649e-05 8.67803e-05 9.75294e-05);
    }
    heatsource2
    {
        type            nutkWallFunction;
        Cmu             0.09;
        kappa           0.41;
        E               9.8;
        value           nonuniform List<scalar> 4(0.000136669 8.53685e-05 8.53685e-05 0.00014058);
    }
    Table_master
    {
        type            nutkWallFunction;
        Cmu             0.09;
        kappa           0.41;
        E               9.8;
        value           nonuniform List<scalar> 9(9.51108e-05 8.40583e-05 7.49536e-05 6.74667e-05 6.12751e-05 5.61144e-05 5.1786e-05 4.81629e-05 4.51958e-05);
    }
    Table_slave
    {
        type            nutkWallFunction;
        Cmu             0.09;
        kappa           0.41;
        E               9.8;
        value           nonuniform List<scalar> 9(0.000107581 9.85298e-05 9.20232e-05 8.70387e-05 8.27527e-05 7.8715e-05 7.48036e-05 7.06493e-05 6.57688e-05);
    }
    inlet
    {
        type            calculated;
        value           uniform 0.000100623;
    }
    outlet
    {
        type            calculated;
        value           nonuniform List<scalar> 2(0.0018309 0.0019281);
    }
}


// ************************************************************************* //
