/*--------------------------------*- C++ -*----------------------------------*\
  =========                 |
  \\      /  F ield         | OpenFOAM: The Open Source CFD Toolbox
   \\    /   O peration     | Website:  https://openfoam.org
    \\  /    A nd           | Version:  6
     \\/     M anipulation  |
\*---------------------------------------------------------------------------*/
FoamFile
{
    version     2.0;
    format      ascii;
    class       volScalarField;
    location    "800";
    object      epsilon;
}
// * * * * * * * * * * * * * * * * * * * * * * * * * * * * * * * * * * * * * //

dimensions      [0 2 -3 0 0 0 0];

internalField   nonuniform List<scalar> 
459
(
0.000943763
0.00131726
0.00150032
0.00180821
0.00219866
0.00258274
0.00285737
0.0029501
0.00253283
0.00212088
0.00172467
0.00135592
0.00105619
0.000803894
0.000571274
6.81881e-05
0.000113702
0.000180733
0.000250678
0.000298938
0.00029531
0.000246268
0.000196861
0.000158324
0.000129306
0.000107326
9.04644e-05
7.72829e-05
6.66965e-05
5.78872e-05
5.00255e-05
4.22927e-05
3.3757e-05
2.23847e-05
0.00197763
0.00241927
0.00121529
0.00128354
0.00154154
0.00184956
0.00204365
0.00206148
0.00180156
0.00147023
0.00117025
0.000927396
0.000757331
0.000638156
0.000518144
0.000730326
0.000458328
5.96781e-05
7.43681e-05
0.000167796
0.000200838
0.000216056
0.000224385
0.000244916
0.000197096
0.000152044
0.000117395
9.15034e-05
7.2325e-05
5.81439e-05
4.77691e-05
3.94939e-05
3.38847e-05
3.10879e-05
3.17839e-05
2.38816e-05
0.00326178
0.00490401
0.00146648
0.00138435
0.0017158
0.00203199
0.00213945
0.00208662
0.00185958
0.0015302
0.00119992
0.000932873
0.000738307
0.000599776
0.000489691
0.000487911
0.000585138
6.23378e-05
0.000147265
0.000188362
0.000219077
0.00023273
0.000250782
0.000571614
0.000376813
0.000250133
0.00016839
0.0001143
7.73033e-05
5.15706e-05
3.46667e-05
2.78593e-05
2.25542e-05
2.15924e-05
2.75078e-05
2.31441e-05
0.00491803
0.00931899
0.00222041
0.00172576
0.00216426
0.00239497
0.00237096
0.0022631
0.00202448
0.00164896
0.0012574
0.000945039
0.000725606
0.000574959
0.000470595
0.000428098
0.000457334
0.000663906
0.000416386
0.000327765
0.000302239
0.000301948
0.000301678
0.000315078
0.000847566
0.000633171
0.000493588
0.000398117
0.000325098
0.000264924
0.00021297
0.000166752
0.000124057
6.37523e-05
3.39453e-05
3.04554e-05
2.37225e-05
0.00706901
0.0158297
0.00402958
0.00254561
0.00306343
0.00298439
0.0028009
0.00262641
0.00231202
0.00182822
0.00132628
0.000938357
0.000684203
0.000530079
0.000442224
0.000406105
0.000434952
0.000508534
0.000457609
0.000428536
0.000423736
0.000419417
0.000398816
0.000363612
0.000351346
0.000320698
0.00029375
0.000267683
0.000237681
0.000204148
0.000168673
0.0001328
9.73914e-05
6.16302e-05
3.66451e-05
2.93115e-05
2.27556e-05
2.68391e-05
5.1314e-05
8.18074e-05
0.00980959
0.0231661
0.00829463
0.00499048
0.00444977
0.00384047
0.00345785
0.00315906
0.00271094
0.00205444
0.00138853
0.000900995
0.000611296
0.000471183
0.000417845
0.000418081
0.000471042
0.000531079
0.000557331
0.000575494
0.000574988
0.00054499
0.000486823
0.000411681
0.000343896
0.00029718
0.000264839
0.000235405
0.000204097
0.000171215
0.000138161
0.000106413
7.72487e-05
5.30102e-05
3.678e-05
2.9858e-05
2.85859e-05
3.23261e-05
8.32008e-05
8.51603e-05
0.0121705
0.0274263
0.0146022
0.00884196
0.00626141
0.00495996
0.00430486
0.00383563
0.00319408
0.00228142
0.00139367
0.00080934
0.000522812
0.000433149
0.000428217
0.000469077
0.000548092
0.000629482
0.000683717
0.000696688
0.000665349
0.00059698
0.000504663
0.00040568
0.000319725
0.000265528
0.000229921
0.000198831
0.000168325
0.00013882
0.000111458
8.7198e-05
6.66744e-05
5.15359e-05
4.39423e-05
4.97846e-05
7.33509e-05
0.000114585
0.000194275
0.000190436
0.0123987
0.0255299
0.0160281
0.0106211
0.00760127
0.0060497
0.00524149
0.00459081
0.00367521
0.00237128
0.00120722
0.000664004
0.00049559
0.000462681
0.000488445
0.00054989
0.000637373
0.000713523
0.000744764
0.000723431
0.000650441
0.000548822
0.000440954
0.000345825
0.000275326
0.000228664
0.000194468
0.000164805
0.000137598
0.000113351
9.31425e-05
7.80398e-05
6.94152e-05
7.04493e-05
8.88752e-05
0.000144701
0.000261236
0.000439618
0.000586455
0.000230743
0.0112144
0.0172451
0.0134343
0.0100309
0.00784617
0.00676397
0.00606922
0.00518055
0.0038121
0.00182775
0.000921916
0.000623687
0.000543403
0.000542831
0.000578616
0.000633138
0.000690217
0.000721816
0.000708389
0.000651962
0.000566386
0.000471967
0.00038525
0.000315016
0.000262749
0.000223732
0.000191462
0.000162238
0.000135433
0.000112199
9.46043e-05
8.50502e-05
8.59507e-05
0.000100405
0.000134239
0.000197093
0.00029221
0.000397166
0.000474404
0.00046216
0.00242459
0.00403631
0.00634885
0.00667942
0.00564799
0.00346419
0.00191128
0.00108204
0.000782377
0.00068233
0.000663741
0.000678151
0.000705533
0.000732899
0.000746945
0.000734653
0.000693779
0.000633782
0.000568016
0.00050763
0.000458104
0.000419788
0.000389886
0.000364216
0.000339062
0.000311961
0.000281616
0.000248099
0.000213544
0.000182644
0.000162037
0.000158478
0.000177153
0.00022072
0.000285209
0.000354996
0.000343188
0.000559258
0.00246469
0.0123956
0.00998129
0.00630417
0.00360831
0.00200863
0.00129725
0.0009989
0.000896842
0.000870208
0.000874168
0.000890812
0.000912782
0.000935132
0.000952594
0.000960241
0.000956314
0.000943498
0.000926431
0.000909619
0.000896162
0.000887377
0.000882933
0.000880722
0.000876518
0.000864122
0.000835899
0.000784445
0.000706028
0.000604785
0.000494715
0.000396079
0.000326388
0.000291765
0.000286235
0.000359572
0.000753771
0.000781192
0.00220383
0.00274112
0.00315664
0.0042478
0.00316547
0.00243066
0.00191779
0.00153825
0.00130875
0.00119348
0.00114258
0.00112828
0.00113315
0.00114478
0.00115311
0.00114966
0.00112846
0.00108816
0.00103342
0.000972562
0.000913666
0.000861858
0.000818654
0.000782902
0.000752019
0.000722974
0.000692945
0.000659675
0.000621799
0.00057927
0.000533611
0.000487632
0.000444608
0.000407344
0.000377548
0.000355243
0.000339214
0.000357713
0.000411383
0.000488978
)
;

boundaryField
{
    floor
    {
        Cmu             0.09;
        kappa           0.41;
        E               9.8;
        type            epsilonWallFunction;
        value           nonuniform List<scalar> 
29
(
0.000571274
6.81881e-05
0.000113702
0.000180733
0.000250678
0.000298938
0.00029531
0.000246268
0.000196861
0.000158324
0.000129306
0.000107326
9.04644e-05
7.72829e-05
6.66965e-05
5.78872e-05
5.00255e-05
4.22927e-05
3.3757e-05
2.23847e-05
2.23847e-05
2.38816e-05
2.31441e-05
2.37225e-05
0.000571274
6.81881e-05
5.96781e-05
6.23378e-05
0.000663906
)
;
    }
    ceiling
    {
        Cmu             0.09;
        kappa           0.41;
        E               9.8;
        type            epsilonWallFunction;
        value           nonuniform List<scalar> 
43
(
0.00220383
0.00274112
0.00315664
0.0042478
0.00316547
0.00243066
0.00191779
0.00153825
0.00130875
0.00119348
0.00114258
0.00112828
0.00113315
0.00114478
0.00115311
0.00114966
0.00112846
0.00108816
0.00103342
0.000972562
0.000913666
0.000861858
0.000818654
0.000782902
0.000752019
0.000722974
0.000692945
0.000659675
0.000621799
0.00057927
0.000533611
0.000487632
0.000444608
0.000407344
0.000377548
0.000355243
0.000339214
0.000357713
0.000411383
0.000488978
0.0112144
0.0172451
0.00246469
)
;
    }
    sWall
    {
        Cmu             0.09;
        kappa           0.41;
        E               9.8;
        type            epsilonWallFunction;
        value           uniform 0.00220383;
    }
    nWall
    {
        Cmu             0.09;
        kappa           0.41;
        E               9.8;
        type            epsilonWallFunction;
        value           nonuniform List<scalar> 6(8.18074e-05 8.51603e-05 0.000190436 0.000559258 0.000781192 0.000488978);
    }
    sideWalls
    {
        type            empty;
    }
    glass1
    {
        Cmu             0.09;
        kappa           0.41;
        E               9.8;
        type            epsilonWallFunction;
        value           nonuniform List<scalar> 9(0.000943763 0.00197763 0.00326178 0.00491803 0.00706901 0.00980959 0.0121705 0.0123987 0.0112144);
    }
    glass2
    {
        Cmu             0.09;
        kappa           0.41;
        E               9.8;
        type            epsilonWallFunction;
        value           nonuniform List<scalar> 2(0.000230743 0.00046216);
    }
    sun
    {
        Cmu             0.09;
        kappa           0.41;
        E               9.8;
        type            epsilonWallFunction;
        value           nonuniform List<scalar> 
14
(
0.000943763
0.00131726
0.00150032
0.00180821
0.00219866
0.00258274
0.00285737
0.0029501
0.00253283
0.00212088
0.00172467
0.00135592
0.00105619
0.000803894
)
;
    }
    heatsource1
    {
        Cmu             0.09;
        kappa           0.41;
        E               9.8;
        type            epsilonWallFunction;
        value           nonuniform List<scalar> 3(2.68391e-05 5.1314e-05 8.18074e-05);
    }
    heatsource2
    {
        Cmu             0.09;
        kappa           0.41;
        E               9.8;
        type            epsilonWallFunction;
        value           nonuniform List<scalar> 4(0.000730326 0.000458328 0.000458328 0.000585138);
    }
    Table_master
    {
        Cmu             0.09;
        kappa           0.41;
        E               9.8;
        type            epsilonWallFunction;
        value           nonuniform List<scalar> 9(0.000571614 0.000376813 0.000250133 0.00016839 0.0001143 7.73033e-05 5.15706e-05 3.46667e-05 2.78593e-05);
    }
    Table_slave
    {
        Cmu             0.09;
        kappa           0.41;
        E               9.8;
        type            epsilonWallFunction;
        value           nonuniform List<scalar> 9(0.000847566 0.000633171 0.000493588 0.000398117 0.000325098 0.000264924 0.00021297 0.000166752 0.000124057);
    }
    inlet
    {
        type            turbulentMixingLengthDissipationRateInlet;
        mixingLength    0.01;
        phi             phi;
        k               k;
        value           uniform 0.000101881;
    }
    outlet
    {
        type            zeroGradient;
    }
}


// ************************************************************************* //
