// -*- C++ -*-
// File generated by PyFoam - sorry for the ugliness

FoamFile
{
 version 2.0;
 format ascii;
 class volVectorField;
 location "1000";
 object U;
}

dimensions [ 0 1 -1 0 0 0 0 ];

internalField nonuniform List<vector> 459
(
  (0.0312889 0.0869774 0)
  (-0.169705 0.0262459 0)
  (-0.195905 0.0174114 0)
  (-0.226565 0.0108243 0)
  (-0.247175 0.00357305 0)
  (-0.256246 -0.00415811 0)
  (-0.251738 -0.012347 0)
  (-0.233584 -0.0208258 0)
  (-0.203171 -0.0282625 0)
  (-0.163936 -0.0332349 0)
  (-0.120697 -0.0348375 0)
  (-0.0784402 -0.0326426 0)
  (-0.0414388 -0.0262384 0)
  (-0.0136495 -0.0150686 0)
  (-0.0217282 -0.00108087 0)
  (-0.00933633 0.0100791 0)
  (-0.0332834 -0.0158269 0)
  (-0.0122789 -0.0264101 0)
  (0.0124001 -0.0219859 0)
  (0.0288866 -0.0155801 0)
  (0.0429372 -0.0103563 0)
  (0.0520888 -0.00595858 0)
  (0.0569885 -0.00360348 0)
  (0.0591705 -0.00267296 0)
  (0.0601845 -0.00228595 0)
  (0.0607946 -0.00204972 0)
  (0.0611522 -0.00186192 0)
  (0.0612022 -0.00164651 0)
  (0.06076 -0.00123561 0)
  (0.05931 -0.000269004 0)
  (0.055726 0.00175498 0)
  (0.0488094 0.0038856 0)
  (0.0423448 0.00580866 0)
  (-0.0117571 0.020886 0)
  (0.204071 0.178296 0)
  (-0.15745 0.0701823 0)
  (-0.158162 0.0536159 0)
  (-0.190129 0.0398733 0)
  (-0.21093 0.024093 0)
  (-0.22061 0.00617219 0)
  (-0.21695 -0.0138367 0)
  (-0.200172 -0.0340493 0)
  (-0.172416 -0.0508845 0)
  (-0.137509 -0.0613838 0)
  (-0.100047 -0.064285 0)
  (-0.0641452 -0.0597318 0)
  (-0.0330501 -0.048244 0)
  (-0.00849928 -0.0304837 0)
  (0.00561487 -0.012248 0)
  (0.0156395 -0.000343469 0)
  (0.0133971 0.0175362 0)
  (0.0593024 0.0394857 0)
  (0.0172867 -0.0187101 0)
  (0.0290014 -0.0331006 0)
  (0.0407796 -0.0302859 0)
  (0.0504838 -0.0226539 0)
  (0.0580297 -0.0148634 0)
  (0.0615008 -0.0064943 0)
  (0.0622873 -0.00157973 0)
  (0.062271 0.000424433 0)
  (0.0623935 0.00126411 0)
  (0.0626235 0.00175351 0)
  (0.0627925 0.00213564 0)
  (0.062857 0.0025898 0)
  (0.0627761 0.00342889 0)
  (0.0620587 0.00550477 0)
  (0.0583967 0.0113105 0)
  (0.0491571 0.0160251 0)
  (0.0451471 0.0193261 0)
  (-0.0501094 0.0448632 0)
  (0.362642 0.266751 0)
  (-0.17228 0.111374 0)
  (-0.11922 0.0866724 0)
  (-0.150492 0.0625781 0)
  (-0.169455 0.0365691 0)
  (-0.178503 0.00729844 0)
  (-0.173877 -0.0250793 0)
  (-0.156444 -0.0569765 0)
  (-0.129837 -0.0820947 0)
  (-0.0985375 -0.0962543 0)
  (-0.0667773 -0.0985375 0)
  (-0.0373619 -0.0902278 0)
  (-0.0123665 -0.0731085 0)
  (0.00873371 -0.0482611 0)
  (0.0229385 -0.0231663 0)
  (0.031059 0.00102688 0)
  (0.0332376 0.035037 0)
  (0.111557 -0.0170148 0)
  (0.0738509 -0.0337916 0)
  (0.0675741 -0.0383184 0)
  (0.0687021 -0.0348823 0)
  (0.0700734 -0.0277154 0)
  (0.071827 -0.0210044 0)
  (0.0709201 -0.016528 0)
  (0.0655775 -0.0113417 0)
  (0.0616357 -0.00852809 0)
  (0.0599166 -0.00693864 0)
  (0.0592298 -0.00592764 0)
  (0.058877 -0.00523962 0)
  (0.0588121 -0.00466688 0)
  (0.0594814 -0.00381759 0)
  (0.0619819 -0.00072339 0)
  (0.0597555 0.0160351 0)
  (0.0465386 0.027097 0)
  (0.0505066 0.0341874 0)
  (-0.0853596 0.0689119 0)
  (0.506358 0.337922 0)
  (-0.204927 0.147734 0)
  (-0.0778639 0.115205 0)
  (-0.107678 0.082439 0)
  (-0.122001 0.0485476 0)
  (-0.127758 0.00890459 0)
  (-0.118178 -0.0364115 0)
  (-0.0982151 -0.0797577 0)
  (-0.0730372 -0.111349 0)
  (-0.0468904 -0.127105 0)
  (-0.0228596 -0.127563 0)
  (-0.00160221 -0.115326 0)
  (0.0160276 -0.0933578 0)
  (0.0308636 -0.06599 0)
  (0.044298 -0.0370233 0)
  (0.0590777 -0.00879984 0)
  (0.0783628 0.0228792 0)
  (0.107708 0.0311312 0)
  (0.109215 -0.0132843 0)
  (0.0947534 -0.0293412 0)
  (0.0850163 -0.0322946 0)
  (0.0787702 -0.0301738 0)
  (0.0738049 -0.0249943 0)
  (0.0701604 -0.0175876 0)
  (0.0708715 -0.0105839 0)
  (0.076225 -0.00764651 0)
  (0.0806779 -0.00602438 0)
  (0.0833781 -0.0049179 0)
  (0.0848471 -0.00375869 0)
  (0.0846406 -0.00219847 0)
  (0.0816876 2.40239e-05 0)
  (0.0746885 0.0032348 0)
  (0.0609268 0.00803736 0)
  (0.0480449 0.0271864 0)
  (0.0355039 0.0422635 0)
  (0.0542744 0.0532896 0)
  (-0.126031 0.0890486 0)
  (0.63161 0.392905 0)
  (-0.24599 0.177062 0)
  (-0.0365272 0.132037 0)
  (-0.0622254 0.0942498 0)
  (-0.0695036 0.0556879 0)
  (-0.0678438 0.00735451 0)
  (-0.0463195 -0.0514541 0)
  (-0.0240488 -0.102588 0)
  (-0.00296815 -0.135943 0)
  (0.0148155 -0.149365 0)
  (0.0280347 -0.145745 0)
  (0.0380128 -0.130118 0)
  (0.0455493 -0.106188 0)
  (0.0520574 -0.0776789 0)
  (0.0588426 -0.0486669 0)
  (0.0675255 -0.0230768 0)
  (0.0802749 -0.00667205 0)
  (0.0897684 -0.0119524 0)
  (0.0894197 -0.0227046 0)
  (0.0824168 -0.0261416 0)
  (0.0734571 -0.0255619 0)
  (0.0655104 -0.0232986 0)
  (0.0590547 -0.0195248 0)
  (0.0546163 -0.0142024 0)
  (0.053369 -0.007634 0)
  (0.0551021 -0.00433019 0)
  (0.0573484 -0.00312575 0)
  (0.0595137 -0.00226823 0)
  (0.0615551 -0.000590783 0)
  (0.0631108 0.0025113 0)
  (0.0629373 0.00716011 0)
  (0.060392 0.0135097 0)
  (0.0548274 0.0221114 0)
  (0.0478207 0.036866 0)
  (0.0371972 0.0534493 0)
  (0.0622279 0.0714442 0)
  (-0.0305262 0.099168 0)
  (0.0463103 0.0267507 0)
  (-0.0615158 -0.0332824 0)
  (-0.272655 -0.0562339 0)
  (0.723898 0.438365 0)
  (-0.287054 0.196219 0)
  (-0.0041287 0.128793 0)
  (-0.0141909 0.0955015 0)
  (-0.0108595 0.0562382 0)
  (0.0135529 -0.00649785 0)
  (0.0422423 -0.0739585 0)
  (0.0623224 -0.122823 0)
  (0.0747123 -0.150492 0)
  (0.0802827 -0.158842 0)
  (0.0805878 -0.151551 0)
  (0.0774091 -0.133088 0)
  (0.0724893 -0.107723 0)
  (0.0675946 -0.0792979 0)
  (0.0641802 -0.0515208 0)
  (0.0633511 -0.028124 0)
  (0.0654455 -0.0129391 0)
  (0.0665743 -0.00996553 0)
  (0.0632384 -0.0129041 0)
  (0.056119 -0.0157671 0)
  (0.0477795 -0.0166145 0)
  (0.0402621 -0.0158732 0)
  (0.0342346 -0.0138769 0)
  (0.0301904 -0.0108275 0)
  (0.0286584 -0.00749814 0)
  (0.0294673 -0.00609424 0)
  (0.0315015 -0.00594499 0)
  (0.0342639 -0.00567846 0)
  (0.0375591 -0.00413598 0)
  (0.0411872 -0.00034727 0)
  (0.044517 0.00597666 0)
  (0.046462 0.0144738 0)
  (0.0472405 0.025157 0)
  (0.0481622 0.0390737 0)
  (0.0469332 0.0553234 0)
  (0.0712353 0.0761727 0)
  (0.0487167 0.0918951 0)
  (0.0928387 0.0633129 0)
  (0.115923 0.0428427 0)
  (-0.127947 -0.00620048 0)
  (0.78011 0.479566 0)
  (-0.307871 0.180737 0)
  (0.0254792 0.077454 0)
  (0.0483574 0.0669914 0)
  (0.0681141 0.0322187 0)
  (0.1128 -0.0381091 0)
  (0.141777 -0.0980315 0)
  (0.154858 -0.136491 0)
  (0.154829 -0.154393 0)
  (0.144955 -0.155124 0)
  (0.128694 -0.142721 0)
  (0.109193 -0.121504 0)
  (0.0892549 -0.0957111 0)
  (0.0710492 -0.0686509 0)
  (0.0561198 -0.0432934 0)
  (0.0453953 -0.0228815 0)
  (0.0387291 -0.00993187 0)
  (0.0340504 -0.00560927 0)
  (0.0288193 -0.00646391 0)
  (0.0224127 -0.00849258 0)
  (0.0157097 -0.00966313 0)
  (0.00967883 -0.00985079 0)
  (0.00484567 -0.00929757 0)
  (0.0016703 -0.00826207 0)
  (0.000527607 -0.00737091 0)
  (0.00122588 -0.00760603 0)
  (0.00309007 -0.00853035 0)
  (0.00579156 -0.00915691 0)
  (0.00933178 -0.0084652 0)
  (0.0138447 -0.0053211 0)
  (0.0203282 0.00135569 0)
  (0.0269711 0.0106205 0)
  (0.0334018 0.0213523 0)
  (0.0413598 0.0336812 0)
  (0.0496176 0.0469212 0)
  (0.0725963 0.0635556 0)
  (0.0859251 0.0688683 0)
  (0.119318 0.0459134 0)
  (0.158698 0.0408345 0)
  (-0.0305842 0.0928159 0)
  (0.886522 0.480183 0)
  (-0.0626894 0.1593 0)
  (0.111972 -0.000132885 0)
  (0.179416 -0.0368709 0)
  (0.219959 -0.0654526 0)
  (0.250037 -0.0984979 0)
  (0.260589 -0.125096 0)
  (0.252172 -0.139653 0)
  (0.228728 -0.141607 0)
  (0.195638 -0.132705 0)
  (0.158031 -0.115584 0)
  (0.119848 -0.093214 0)
  (0.0843536 -0.0690383 0)
  (0.0535189 -0.0454431 0)
  (0.0288852 -0.024572 0)
  (0.0116438 -0.00937845 0)
  (0.00086543 -0.00127143 0)
  (-0.0050556 0.000480035 0)
  (-0.00932526 -0.000932389 0)
  (-0.0137484 -0.00290046 0)
  (-0.0183013 -0.00437457 0)
  (-0.0224862 -0.00532569 0)
  (-0.0259324 -0.0059563 0)
  (-0.0283114 -0.00652878 0)
  (-0.0294583 -0.00740467 0)
  (-0.0296134 -0.00887022 0)
  (-0.0292204 -0.0106428 0)
  (-0.0284743 -0.0121706 0)
  (-0.0272557 -0.0128472 0)
  (-0.0251486 -0.0120079 0)
  (-0.0211183 -0.00889502 0)
  (-0.0120666 -0.00286746 0)
  (-0.00210179 0.0050946 0)
  (0.00948233 0.0130869 0)
  (0.021371 0.0191146 0)
  (0.0405769 0.0252791 0)
  (0.0572701 0.0172886 0)
  (0.0740554 -0.00814669 0)
  (0.131475 0.0425533 0)
  (-0.423686 0.209886 0)
  (1.03457 0.429541 0)
  (0.497721 0.28404 0)
  (0.505153 0.185377 0)
  (0.522153 0.105725 0)
  (0.496255 0.0442178 0)
  (0.443524 -0.0124441 0)
  (0.386053 -0.0551914 0)
  (0.325395 -0.0793896 0)
  (0.261825 -0.086459 0)
  (0.198718 -0.0808286 0)
  (0.139637 -0.0671282 0)
  (0.0865439 -0.0489454 0)
  (0.0418098 -0.0298691 0)
  (0.00470175 -0.0120788 0)
  (-0.0216167 0.000112652 0)
  (-0.0342617 0.00469329 0)
  (-0.0402039 0.00555575 0)
  (-0.0433029 0.0044211 0)
  (-0.0458187 0.00247535 0)
  (-0.0483797 0.000561177 0)
  (-0.051076 -0.00102878 0)
  (-0.053921 -0.00235732 0)
  (-0.0566542 -0.00362071 0)
  (-0.059106 -0.00497596 0)
  (-0.0612983 -0.00652526 0)
  (-0.0635333 -0.00825293 0)
  (-0.0662379 -0.0098929 0)
  (-0.0697773 -0.010987 0)
  (-0.0745121 -0.0109386 0)
  (-0.0808925 -0.00900731 0)
  (-0.0894517 -0.00435363 0)
  (-0.100237 0.00364065 0)
  (-0.111748 0.0145038 0)
  (-0.127948 0.0281805 0)
  (-0.15349 0.0444299 0)
  (-0.19068 0.0618024 0)
  (-0.242333 0.0760819 0)
  (-0.299447 0.084428 0)
  (-0.365587 0.0872905 0)
  (-0.620965 0.0862893 0)
  (-0.127095 0.0720596 0)
  (0.123842 0.0348016 0)
  (0.192157 -0.0308127 0)
  (0.177098 -0.0528933 0)
  (0.15705 -0.0540485 0)
  (0.128887 -0.0481378 0)
  (0.0922991 -0.0384992 0)
  (0.0523988 -0.0262457 0)
  (0.0120568 -0.0119165 0)
  (-0.0272107 0.00190259 0)
  (-0.0514513 0.00908209 0)
  (-0.0655123 0.0121393 0)
  (-0.0715697 0.0121375 0)
  (-0.0741973 0.0109137 0)
  (-0.0754272 0.00958676 0)
  (-0.0763411 0.00825205 0)
  (-0.0775379 0.00702235 0)
  (-0.0791551 0.00604711 0)
  (-0.0810873 0.00529998 0)
  (-0.0831426 0.00455734 0)
  (-0.0853579 0.00360824 0)
  (-0.0878366 0.00233109 0)
  (-0.0906586 0.000864894 0)
  (-0.093971 -0.000498984 0)
  (-0.0979036 -0.00141384 0)
  (-0.102465 -0.00147239 0)
  (-0.107569 -0.000262059 0)
  (-0.112988 0.00261624 0)
  (-0.118143 0.00762552 0)
  (-0.122344 0.0154849 0)
  (-0.125882 0.0272636 0)
  (-0.129027 0.0432399 0)
  (-0.132681 0.062206 0)
  (-0.137234 0.080191 0)
  (-0.139152 0.0877129 0)
  (-0.119223 0.0652223 0)
  (-0.0599786 -0.0275718 0)
  (-0.278812 -0.207767 0)
  (0.00374954 0.225044 0)
  (0.0560734 0.0840062 0)
  (0.0215063 0.00478308 0)
  (0.00316413 -0.0149176 0)
  (-0.0208962 -0.0106313 0)
  (-0.0469618 -0.00561719 0)
  (-0.072174 -0.000345808 0)
  (-0.0922934 0.00497985 0)
  (-0.104441 0.00860154 0)
  (-0.108983 0.00913278 0)
  (-0.109856 0.00722616 0)
  (-0.108331 0.00471831 0)
  (-0.105667 0.00186257 0)
  (-0.103088 -0.00119638 0)
  (-0.101084 -0.00422977 0)
  (-0.0998368 -0.00729491 0)
  (-0.099384 -0.0104122 0)
  (-0.0996091 -0.0134156 0)
  (-0.1003 -0.0160349 0)
  (-0.101257 -0.0180272 0)
  (-0.102378 -0.019257 0)
  (-0.103644 -0.0196872 0)
  (-0.105146 -0.0194258 0)
  (-0.10691 -0.0185197 0)
  (-0.108927 -0.0172305 0)
  (-0.111015 -0.015357 0)
  (-0.112815 -0.0125127 0)
  (-0.113784 -0.00810845 0)
  (-0.11332 -0.00187591 0)
  (-0.11035 0.0066878 0)
  (-0.103432 0.0184597 0)
  (-0.0914584 0.0341786 0)
  (-0.0744569 0.0530988 0)
  (-0.0531532 0.0700165 0)
  (-0.0310937 0.0782168 0)
  (0.0120612 0.0587333 0)
  (0.140745 -0.00963681 0)
  (-0.206283 -0.116104 0)
  (0.938462 0.00445667 0)
  (-0.523363 -0.468316 0)
  (-0.321836 0.0827911 0)
  (-0.24461 -0.0183787 0)
  (-0.200571 -0.0310627 0)
  (-0.191584 -0.0174023 0)
  (-0.190989 -0.00590352 0)
  (-0.189935 0.00210873 0)
  (-0.186505 0.00903114 0)
  (-0.180084 0.0154526 0)
  (-0.170916 0.021151 0)
  (-0.160134 0.0257666 0)
  (-0.149331 0.0294737 0)
  (-0.139389 0.0329595 0)
  (-0.130697 0.0365057 0)
  (-0.123248 0.0403256 0)
  (-0.116823 0.0445 0)
  (-0.111243 0.0488879 0)
  (-0.106433 0.0531617 0)
  (-0.102382 0.0568601 0)
  (-0.0991023 0.0595084 0)
  (-0.0966189 0.0607735 0)
  (-0.0949482 0.0605402 0)
  (-0.0940801 0.058876 0)
  (-0.0939794 0.0560089 0)
  (-0.0945694 0.0522205 0)
  (-0.0956215 0.0482875 0)
  (-0.0968472 0.0444317 0)
  (-0.09778 0.0407833 0)
  (-0.0976886 0.037433 0)
  (-0.0952078 0.0351938 0)
  (-0.0882987 0.0348068 0)
  (-0.0744693 0.0370441 0)
  (-0.0523616 0.0428095 0)
  (-0.024366 0.0524096 0)
  (0.027877 0.0648836 0)
  (0.0676078 0.0633343 0)
  (0.108176 0.0485133 0)
  (0.164036 0.0206264 0)
  (-0.211134 -0.0332072 0)
)
;

boundaryField
{
  floor
  {
    type noSlip;
  }
  ceiling
  {
    type noSlip;
  }
  sWall
  {
    type noSlip;
  }
  nWall
  {
    type noSlip;
  }
  sideWalls
  {
    type empty;
  }
  glass1
  {
    type noSlip;
  }
  glass2
  {
    type noSlip;
  }
  sun
  {
    type noSlip;
  }
  heatsource1
  {
    type noSlip;
  }
  heatsource2
  {
    type noSlip;
  }
  Table_master
  {
    type noSlip;
  }
  Table_slave
  {
    type noSlip;
  }
  inlet
  {
    type fixedValue;
    value uniform (0.3 0 0);
  }
  outlet
  {
    type zeroGradient;
  }
} 	// ************************************************************************* //

