/*--------------------------------*- C++ -*----------------------------------*\
  =========                 |
  \\      /  F ield         | OpenFOAM: The Open Source CFD Toolbox
   \\    /   O peration     | Website:  https://openfoam.org
    \\  /    A nd           | Version:  6
     \\/     M anipulation  |
\*---------------------------------------------------------------------------*/
FoamFile
{
    version     2.0;
    format      ascii;
    class       volScalarField;
    location    "400";
    object      epsilon;
}
// * * * * * * * * * * * * * * * * * * * * * * * * * * * * * * * * * * * * * //

dimensions      [0 2 -3 0 0 0 0];

internalField   nonuniform List<scalar> 
459
(
0.000655085
0.000887723
0.000991438
0.00116376
0.00135069
0.00156661
0.00177323
0.00191739
0.00195796
0.00187352
0.00165562
0.00122917
0.000892795
0.000583671
0.000367202
3.31911e-05
5.14775e-05
7.38178e-05
9.87658e-05
0.000107743
9.8155e-05
5.75197e-05
3.12837e-05
1.736e-05
1.09364e-05
7.64433e-06
5.76637e-06
4.58103e-06
3.82237e-06
3.55613e-06
4.74571e-06
1.40514e-05
2.73238e-05
1.80736e-05
0.00141258
0.00182982
0.000820139
0.000828732
0.000910466
0.0010563
0.0012331
0.00137082
0.00141526
0.00134777
0.00117992
0.000935655
0.000733861
0.000563287
0.000421671
0.000688174
0.000358057
3.56989e-05
4.4558e-05
8.15206e-05
0.000107299
0.000113503
0.000108477
0.000100215
6.90334e-05
4.58877e-05
3.14847e-05
2.28761e-05
1.76295e-05
1.44387e-05
1.27316e-05
1.28213e-05
1.5091e-05
3.12697e-05
5.95951e-05
2.69207e-05
0.00234988
0.00386346
0.000912335
0.000791967
0.000904788
0.00111622
0.00134701
0.00149569
0.00153333
0.00145793
0.00128044
0.00106447
0.000861821
0.000684486
0.000528184
0.000496674
0.00064254
4.91017e-05
8.38984e-05
0.000115634
0.0001325
0.000136025
0.000134623
0.000225248
0.000132845
8.21914e-05
5.42932e-05
3.83186e-05
2.87286e-05
2.27374e-05
1.89426e-05
1.69497e-05
1.62293e-05
2.01993e-05
5.92076e-05
4.93837e-05
0.0035536
0.00755819
0.00128355
0.000828173
0.000972818
0.00130892
0.00158672
0.00170939
0.00171896
0.00161728
0.00143112
0.00119928
0.000967735
0.000770758
0.000611909
0.00051993
0.000518213
0.000854892
0.000482214
0.000326838
0.000247461
0.000205749
0.000180768
0.000172243
0.000413976
0.000330715
0.000273785
0.000231562
0.00019858
0.000171103
0.000146489
0.00012318
9.99838e-05
5.90702e-05
3.81403e-05
5.56195e-05
5.4222e-05
0.00514905
0.0132706
0.00232894
0.00102572
0.0012028
0.00178737
0.00202376
0.00206595
0.00201561
0.00187275
0.00163749
0.00134049
0.00104421
0.000799222
0.000619797
0.000505468
0.000464271
0.000490182
0.000409045
0.000340477
0.000292641
0.000256683
0.00022555
0.000199298
0.00019261
0.000178946
0.000164698
0.000150576
0.000136561
0.000122229
0.000107232
9.17238e-05
7.64475e-05
5.95264e-05
4.52583e-05
4.4145e-05
5.38401e-05
7.01425e-05
7.87532e-05
0.000144721
0.00732725
0.0198783
0.00511687
0.00194286
0.00237033
0.00272328
0.0027148
0.00260991
0.00246313
0.0022376
0.00190794
0.00150642
0.00111602
0.000804867
0.000594054
0.000475839
0.000433457
0.000427902
0.000403532
0.000376083
0.000344517
0.000308447
0.000269915
0.00023337
0.000204993
0.000183692
0.000166872
0.000152183
0.00013849
0.000125107
0.000111571
9.78958e-05
8.47664e-05
7.2918e-05
6.35611e-05
5.92039e-05
6.22678e-05
7.3995e-05
0.000121399
0.000184863
0.00970258
0.0239681
0.010429
0.00555152
0.00488952
0.0042438
0.00373261
0.00336913
0.00306746
0.00271117
0.00224045
0.00169022
0.00117918
0.000796126
0.000560484
0.000452751
0.00042694
0.000431068
0.000425457
0.000405216
0.000372021
0.000329562
0.000284503
0.000242685
0.000208892
0.00018415
0.000166389
0.000153337
0.000143872
0.000137595
0.000134351
0.00013388
0.000135794
0.000141081
0.000152338
0.000176619
0.000206786
0.0002176
0.000329859
0.00034928
0.0102099
0.0247393
0.0147101
0.0103773
0.00761589
0.00588895
0.00487307
0.00426974
0.00380685
0.0032734
0.00259358
0.00182324
0.00116426
0.000718802
0.000504805
0.000438783
0.000431832
0.000438297
0.000429374
0.000401975
0.000360824
0.000312961
0.000266476
0.000226299
0.00019501
0.000172703
0.000158045
0.000150569
0.000151301
0.000162252
0.000185479
0.000222568
0.000274882
0.000345857
0.000448196
0.00059884
0.00076463
0.000986295
0.00163303
0.000432806
0.00946263
0.015574
0.0124736
0.00970809
0.00763989
0.00640179
0.00568671
0.00518558
0.00460338
0.00376839
0.00273186
0.001598
0.000889878
0.000592801
0.000475441
0.000438489
0.00043222
0.000427604
0.000409182
0.000376482
0.000334948
0.000290999
0.00024999
0.000214912
0.00018685
0.000165746
0.000151538
0.000145224
0.000148794
0.00016417
0.00019191
0.00023131
0.000282008
0.000344398
0.000419082
0.000503135
0.000588317
0.00067275
0.00073723
0.00047761
0.00343131
0.00480626
0.00622855
0.00647592
0.00620105
0.00547722
0.0041669
0.00258679
0.0015434
0.000943868
0.000654939
0.000527581
0.000476488
0.000458848
0.000451255
0.000439573
0.000418228
0.000388919
0.000355795
0.000322582
0.00029157
0.000263624
0.000238872
0.000217456
0.000200098
0.00018824
0.000183755
0.000188644
0.00020505
0.000235525
0.000283128
0.00035051
0.000438208
0.000539604
0.000631952
0.000669132
0.000567003
0.000471128
0.00225847
0.00734896
0.00802396
0.0064905
0.0048881
0.00341967
0.00222537
0.00142664
0.000969468
0.000727395
0.000612156
0.000561447
0.000542812
0.00053991
0.000543895
0.000549325
0.000552882
0.000553237
0.000549972
0.000542943
0.000532249
0.000518394
0.000502367
0.00048559
0.000469809
0.000456966
0.000448796
0.000446185
0.000448618
0.000454394
0.000462045
0.00047192
0.000485724
0.00050005
0.000498494
0.00048687
0.000441883
0.000548195
0.00178462
0.00211945
0.0023791
0.00309991
0.00278637
0.00259214
0.00224725
0.00185251
0.00146957
0.00117196
0.000973926
0.000855139
0.000787662
0.000749855
0.000726998
0.000708919
0.000688764
0.000663118
0.000632236
0.000598584
0.000565006
0.000533647
0.000505646
0.000481323
0.000460599
0.000443354
0.000429607
0.000419486
0.000413108
0.000410522
0.000411783
0.000417101
0.00042669
0.000439701
0.000453182
0.000450679
0.000411204
0.000319176
0.00029857
0.000574155
)
;

boundaryField
{
    floor
    {
        Cmu             0.09;
        kappa           0.41;
        E               9.8;
        type            epsilonWallFunction;
        value           nonuniform List<scalar> 
29
(
0.000367202
3.31911e-05
5.14775e-05
7.38178e-05
9.87658e-05
0.000107743
9.8155e-05
5.75197e-05
3.12837e-05
1.736e-05
1.09364e-05
7.64433e-06
5.76637e-06
4.58103e-06
3.82237e-06
3.55613e-06
4.74571e-06
1.40514e-05
2.73238e-05
1.80736e-05
1.80736e-05
2.69207e-05
4.93837e-05
5.4222e-05
0.000367202
3.31911e-05
3.56989e-05
4.91017e-05
0.000854892
)
;
    }
    ceiling
    {
        Cmu             0.09;
        kappa           0.41;
        E               9.8;
        type            epsilonWallFunction;
        value           nonuniform List<scalar> 
43
(
0.00178462
0.00211945
0.0023791
0.00309991
0.00278637
0.00259214
0.00224725
0.00185251
0.00146957
0.00117196
0.000973926
0.000855139
0.000787662
0.000749855
0.000726998
0.000708919
0.000688764
0.000663118
0.000632236
0.000598584
0.000565006
0.000533647
0.000505646
0.000481323
0.000460599
0.000443354
0.000429607
0.000419486
0.000413108
0.000410522
0.000411783
0.000417101
0.00042669
0.000439701
0.000453182
0.000450679
0.000411204
0.000319176
0.00029857
0.000574155
0.00946263
0.015574
0.00225847
)
;
    }
    sWall
    {
        Cmu             0.09;
        kappa           0.41;
        E               9.8;
        type            epsilonWallFunction;
        value           uniform 0.00178462;
    }
    nWall
    {
        Cmu             0.09;
        kappa           0.41;
        E               9.8;
        type            epsilonWallFunction;
        value           nonuniform List<scalar> 6(0.000144721 0.000184863 0.00034928 0.000471128 0.000548195 0.000574155);
    }
    sideWalls
    {
        type            empty;
    }
    glass1
    {
        Cmu             0.09;
        kappa           0.41;
        E               9.8;
        type            epsilonWallFunction;
        value           nonuniform List<scalar> 9(0.000655085 0.00141258 0.00234988 0.0035536 0.00514905 0.00732725 0.00970258 0.0102099 0.00946263);
    }
    glass2
    {
        Cmu             0.09;
        kappa           0.41;
        E               9.8;
        type            epsilonWallFunction;
        value           nonuniform List<scalar> 2(0.000432806 0.00047761);
    }
    sun
    {
        Cmu             0.09;
        kappa           0.41;
        E               9.8;
        type            epsilonWallFunction;
        value           nonuniform List<scalar> 
14
(
0.000655085
0.000887723
0.000991438
0.00116376
0.00135069
0.00156661
0.00177323
0.00191739
0.00195796
0.00187352
0.00165562
0.00122917
0.000892795
0.000583671
)
;
    }
    heatsource1
    {
        Cmu             0.09;
        kappa           0.41;
        E               9.8;
        type            epsilonWallFunction;
        value           nonuniform List<scalar> 3(7.01425e-05 7.87532e-05 0.000144721);
    }
    heatsource2
    {
        Cmu             0.09;
        kappa           0.41;
        E               9.8;
        type            epsilonWallFunction;
        value           nonuniform List<scalar> 4(0.000688174 0.000358057 0.000358057 0.00064254);
    }
    Table_master
    {
        Cmu             0.09;
        kappa           0.41;
        E               9.8;
        type            epsilonWallFunction;
        value           nonuniform List<scalar> 9(0.000225248 0.000132845 8.21914e-05 5.42932e-05 3.83186e-05 2.87286e-05 2.27374e-05 1.89426e-05 1.69497e-05);
    }
    Table_slave
    {
        Cmu             0.09;
        kappa           0.41;
        E               9.8;
        type            epsilonWallFunction;
        value           nonuniform List<scalar> 9(0.000413976 0.000330715 0.000273785 0.000231562 0.00019858 0.000171103 0.000146489 0.00012318 9.99838e-05);
    }
    inlet
    {
        type            turbulentMixingLengthDissipationRateInlet;
        mixingLength    0.01;
        phi             phi;
        k               k;
        value           uniform 0.000101881;
    }
    outlet
    {
        type            zeroGradient;
    }
}


// ************************************************************************* //
