/*--------------------------------*- C++ -*----------------------------------*\
  =========                 |
  \\      /  F ield         | OpenFOAM: The Open Source CFD Toolbox
   \\    /   O peration     | Website:  https://openfoam.org
    \\  /    A nd           | Version:  6
     \\/     M anipulation  |
\*---------------------------------------------------------------------------*/
FoamFile
{
    version     2.0;
    format      ascii;
    class       volScalarField;
    location    "400";
    object      nut;
}
// * * * * * * * * * * * * * * * * * * * * * * * * * * * * * * * * * * * * * //

dimensions      [0 2 -1 0 0 0 0];

internalField   nonuniform List<scalar> 
459
(
0.00122784
0.00135873
0.0014097
0.00148705
0.00156275
0.00164194
0.00171117
0.00175633
0.00176863
0.00174283
0.00167244
0.00151438
0.00136127
0.00118146
0.00101235
0.000454297
0.000525866
0.000593014
0.000653458
0.000672703
0.000652138
0.000545819
0.000445598
0.000366192
0.000313891
0.000278535
0.000253528
0.000234796
0.000221039
0.000215784
0.000237598
0.000341173
0.000425536
0.000370888
0.00158631
0.00406771
0.00403969
0.00471975
0.0053989
0.00593792
0.00639082
0.00678734
0.00709606
0.00728542
0.00729787
0.00706162
0.00655361
0.00548736
0.00367021
0.0012481
0.00100385
0.000465454
0.000998787
0.00152039
0.00207285
0.00243386
0.00243041
0.00158724
0.00127418
0.00108246
0.00094928
0.000854845
0.000789246
0.000745987
0.000726027
0.000745905
0.000806698
0.000821643
0.000840983
0.00042355
0.00187961
0.00552846
0.00503037
0.00581375
0.0062307
0.0065448
0.00685213
0.0072045
0.00760542
0.00801882
0.00831553
0.00838381
0.00821142
0.00767798
0.00636257
0.00410427
0.00121985
0.000517637
0.000868996
0.00139777
0.00208592
0.00270491
0.00280154
0.00086012
0.000721312
0.000614629
0.00053528
0.000476574
0.000432939
0.000400465
0.000376813
0.000363107
0.000477585
0.000623663
0.000915764
0.000518632
0.00215747
0.00682086
0.00516726
0.00598067
0.00611471
0.0062297
0.00640678
0.00670831
0.00716413
0.00772213
0.00815478
0.00841515
0.00847248
0.00828215
0.00761302
0.00613972
0.00321621
0.00134166
0.00126258
0.00145312
0.00196926
0.00271872
0.00345063
0.00359299
0.00105358
0.000977594
0.000917936
0.000868101
0.00082477
0.000784839
0.000745256
0.00070344
0.000656194
0.00061215
0.00061801
0.000861797
0.000535015
0.00244136
0.00845334
0.00562907
0.00608632
0.00615232
0.00609773
0.00613983
0.00639969
0.00688233
0.00745771
0.00795382
0.00825898
0.00835828
0.00828063
0.00796632
0.00719587
0.00563827
0.00432802
0.00412395
0.00438351
0.0048455
0.00535943
0.00576797
0.00590017
0.00530206
0.00491028
0.00461926
0.00436961
0.00409221
0.00376176
0.00336587
0.00289161
0.00234729
0.00181404
0.00140887
0.00118618
0.000938393
0.000582937
0.000606136
0.000742942
0.00274602
0.0102934
0.0073985
0.00666905
0.00658115
0.00627342
0.00614044
0.00634064
0.00684463
0.00746855
0.00799346
0.00828535
0.00834695
0.00827471
0.0081486
0.00790408
0.00736263
0.00691137
0.00700025
0.00736384
0.00766792
0.00787242
0.00793484
0.00783733
0.00754355
0.0071869
0.00679716
0.00637261
0.00591456
0.00541391
0.00486164
0.00425621
0.00361141
0.00296998
0.00241223
0.00197385
0.00165743
0.00145235
0.00136315
0.00080424
0.00301544
0.011524
0.00986408
0.00822102
0.00724509
0.00646601
0.00619213
0.00643376
0.00704295
0.00775755
0.0083136
0.00858219
0.00861757
0.00860986
0.00874125
0.00890102
0.00893686
0.008999
0.00922282
0.0094633
0.00956646
0.00948629
0.00926896
0.00894636
0.00853503
0.00805952
0.00753898
0.00697765
0.00637517
0.00573765
0.00508672
0.00446897
0.00391824
0.00343936
0.00304094
0.00274593
0.00252971
0.00227897
0.0021679
0.000994791
0.00306711
0.00984194
0.00897684
0.00775519
0.00660859
0.0060077
0.00605525
0.00664303
0.00752357
0.00836629
0.0089089
0.00911632
0.00917524
0.00944551
0.00986013
0.0100993
0.0102337
0.0103499
0.0104555
0.0104646
0.010316
0.0100032
0.00956263
0.00903848
0.00845881
0.00783436
0.00715876
0.00642348
0.00564472
0.00488975
0.00426226
0.0038305
0.00359332
0.00346133
0.00336842
0.00326647
0.00299401
0.0025693
0.00250499
0.00106877
0.00299037
0.00353064
0.00387049
0.00395785
0.00422396
0.00494486
0.00606988
0.00738658
0.00858313
0.00934988
0.0095975
0.00970502
0.00998883
0.010263
0.0104675
0.0105665
0.0106048
0.0105875
0.010476
0.0102269
0.00982857
0.00930393
0.0086953
0.00804095
0.00735895
0.00664363
0.00587681
0.0050603
0.00425712
0.00358507
0.00312294
0.00284207
0.00265924
0.00251737
0.0023729
0.00219321
0.00197068
0.00175775
0.00156214
0.00110467
0.001369
0.00285778
0.0056602
0.00781039
0.00925824
0.0100869
0.0103844
0.0102424
0.00987056
0.00971991
0.00976505
0.00979162
0.00976186
0.00970322
0.00960379
0.0094138
0.00909522
0.00864411
0.00808854
0.00747508
0.0068498
0.00624238
0.00566287
0.00510978
0.00458364
0.00409689
0.00367349
0.00333646
0.00309159
0.00292372
0.00280862
0.00272338
0.00264528
0.00254749
0.00240357
0.00220006
0.00188068
0.00109976
0.00185495
0.0058615
0.00820526
0.00953086
0.00979876
0.00946434
0.00888815
0.00833793
0.00791088
0.00760554
0.00737672
0.00720535
0.00708849
0.0069981
0.00688972
0.0067237
0.00648479
0.00618498
0.00585172
0.00551361
0.00519042
0.00489087
0.00461666
0.00436795
0.00414672
0.00395694
0.0038017
0.00367894
0.00357809
0.00348127
0.00336995
0.00323282
0.0030672
0.00286572
0.00259067
0.00239936
0.00206296
0.00115677
0.0017149
0.00181606
0.00188738
0.00206142
0.00198936
0.00194197
0.00185168
0.00173618
0.00160718
0.0014904
0.00140121
0.00134175
0.00130549
0.00128426
0.00127107
0.00126045
0.0012484
0.00123271
0.00121328
0.00119136
0.00116866
0.00114664
0.00112624
0.00110789
0.00109177
0.00107798
0.00106674
0.00105831
0.00105293
0.00105073
0.00105181
0.00105631
0.00106433
0.00107502
0.00108587
0.00108391
0.00105134
0.000966146
0.000944823
0.00117507
)
;

boundaryField
{
    floor
    {
        type            nutkWallFunction;
        Cmu             0.09;
        kappa           0.41;
        E               9.8;
        value           nonuniform List<scalar> 
29
(
0.000122183
5.38292e-05
6.30036e-05
7.14705e-05
7.89925e-05
8.1368e-05
7.88264e-05
6.55203e-05
5.26856e-05
4.22626e-05
3.5245e-05
3.04164e-05
2.69523e-05
2.43266e-05
2.23802e-05
2.16324e-05
2.47207e-05
3.89341e-05
5.01193e-05
4.2915e-05
4.2915e-05
4.98481e-05
6.20847e-05
6.41679e-05
0.000122183
5.38291e-05
5.52713e-05
6.19578e-05
0.000160249
)
;
    }
    ceiling
    {
        type            nutkWallFunction;
        Cmu             0.09;
        kappa           0.41;
        E               9.8;
        value           nonuniform List<scalar> 
43
(
0.00020201
0.000213169
0.000220997
0.000240091
0.000232297
0.000227142
0.000217256
0.000204524
0.000190191
0.000177104
0.000167033
0.00016028
0.000156145
0.000153718
0.000152209
0.000150992
0.000149609
0.000147806
0.00014557
0.000143043
0.00014042
0.00013787
0.000135501
0.000133368
0.000131489
0.00012988
0.000128566
0.000127579
0.000126948
0.000126691
0.000126817
0.000127344
0.000128283
0.000129533
0.000130802
0.00013057
0.00012676
0.000116745
0.000114228
0.000141155
0.000339124
0.000395095
0.000217279
)
;
    }
    sWall
    {
        type            nutkWallFunction;
        Cmu             0.09;
        kappa           0.41;
        E               9.8;
        value           uniform 0.000202065;
    }
    nWall
    {
        type            nutkWallFunction;
        Cmu             0.09;
        kappa           0.41;
        E               9.8;
        value           nonuniform List<scalar> 6(8.99104e-05 9.75105e-05 0.000120198 0.000132452 0.00013907 0.000141163);
    }
    sideWalls
    {
        type            empty;
    }
    glass1
    {
        type            nutkWallFunction;
        Cmu             0.09;
        kappa           0.41;
        E               9.8;
        value           nonuniform List<scalar> 9(0.000147366 0.000188066 0.000220601 0.000250915 0.000281459 0.000313824 0.000342135 0.000347543 0.000339539);
    }
    glass2
    {
        type            nutkWallFunction;
        Cmu             0.09;
        kappa           0.41;
        E               9.8;
        value           nonuniform List<scalar> 2(0.000128879 0.000133051);
    }
    sun
    {
        type            nutkWallFunction;
        Cmu             0.09;
        kappa           0.41;
        E               9.8;
        value           nonuniform List<scalar> 
14
(
0.000147222
0.00016218
0.000167962
0.000176693
0.000185189
0.000194028
0.000201717
0.000206716
0.000208074
0.000205222
0.000197421
0.000179767
0.000162471
0.000141877
)
;
    }
    heatsource1
    {
        type            nutkWallFunction;
        Cmu             0.09;
        kappa           0.41;
        E               9.8;
        value           nonuniform List<scalar> 3(7.02151e-05 7.30944e-05 8.99116e-05);
    }
    heatsource2
    {
        type            nutkWallFunction;
        Cmu             0.09;
        kappa           0.41;
        E               9.8;
        value           nonuniform List<scalar> 4(0.000149548 0.000121184 0.000121184 0.000146305);
    }
    Table_master
    {
        type            nutkWallFunction;
        Cmu             0.09;
        kappa           0.41;
        E               9.8;
        value           nonuniform List<scalar> 9(0.000104133 8.73401e-05 7.41735e-05 6.42017e-05 5.67076e-05 5.10632e-05 4.68161e-05 4.36954e-05 4.18754e-05);
    }
    Table_slave
    {
        type            nutkWallFunction;
        Cmu             0.09;
        kappa           0.41;
        E               9.8;
        value           nonuniform List<scalar> 9(0.000127022 0.000118096 0.00011103 0.000105087 9.98862e-05 9.50651e-05 9.02572e-05 8.51452e-05 7.93258e-05);
    }
    inlet
    {
        type            calculated;
        value           uniform 0.000100623;
    }
    outlet
    {
        type            calculated;
        value           nonuniform List<scalar> 2(0.0017149 0.00181606);
    }
}


// ************************************************************************* //
