/*--------------------------------*- C++ -*----------------------------------*\
  =========                 |
  \\      /  F ield         | OpenFOAM: The Open Source CFD Toolbox
   \\    /   O peration     | Website:  https://openfoam.org
    \\  /    A nd           | Version:  6
     \\/     M anipulation  |
\*---------------------------------------------------------------------------*/
FoamFile
{
    version     2.0;
    format      ascii;
    class       volScalarField;
    location    "500";
    object      nut;
}
// * * * * * * * * * * * * * * * * * * * * * * * * * * * * * * * * * * * * * //

dimensions      [0 2 -1 0 0 0 0];

internalField   nonuniform List<scalar> 
459
(
0.00122217
0.00135218
0.00140285
0.00147951
0.00155421
0.00163184
0.00170093
0.00174684
0.00176088
0.0017385
0.0016778
0.00151715
0.00136475
0.00117945
0.0010084
0.000405337
0.000464833
0.000513757
0.000553965
0.000551426
0.000510343
0.000426429
0.000354072
0.000311701
0.00028922
0.000274707
0.000265734
0.000261076
0.000264535
0.000283908
0.000331488
0.000445231
0.000602281
0.00046783
0.00157903
0.00403883
0.00400798
0.0046842
0.00536279
0.00591307
0.00636778
0.00676904
0.00708427
0.00728144
0.00731461
0.00711428
0.00663343
0.00564686
0.00379241
0.00125483
0.00100285
0.000443888
0.00103495
0.00148444
0.00194258
0.0022406
0.00222285
0.00154489
0.001295
0.00117571
0.0011036
0.00104965
0.000988767
0.000907651
0.000806714
0.000718622
0.000677581
0.000957136
0.00123848
0.000531011
0.00187115
0.00548792
0.00499254
0.00578463
0.00620927
0.00653082
0.00684054
0.00719525
0.00759688
0.00801168
0.00832119
0.00842051
0.00827617
0.00777679
0.00650126
0.0042199
0.00122949
0.000509158
0.000844052
0.00125423
0.00180419
0.00230237
0.00239931
0.000797226
0.000675044
0.000584003
0.000517104
0.000467541
0.000429415
0.000398315
0.000371731
0.000351597
0.000482367
0.000742838
0.00155524
0.000679289
0.00214807
0.00677183
0.00511751
0.00594725
0.00608937
0.00620723
0.00638946
0.00669185
0.00714332
0.00770148
0.00815003
0.00843422
0.00851828
0.00835655
0.00773003
0.0062784
0.00330078
0.00135387
0.00127075
0.00138562
0.00173697
0.00227188
0.00283949
0.0030343
0.000999871
0.000943224
0.000898602
0.000861094
0.000827349
0.000796051
0.000764166
0.000729068
0.000687906
0.000679981
0.000761885
0.00113394
0.000709304
0.00243142
0.00839794
0.00555983
0.00602626
0.00610281
0.00606059
0.00611555
0.00637375
0.00685033
0.00742667
0.00793745
0.00826715
0.00839165
0.00833558
0.00804639
0.00729782
0.00573198
0.00434921
0.00406285
0.00422997
0.00453083
0.00491234
0.00526309
0.00545802
0.00511928
0.00489506
0.00471862
0.00455799
0.00437481
0.00411582
0.0037661
0.00330994
0.00275711
0.00222462
0.00182208
0.00155584
0.00136079
0.000751557
0.000755777
0.00074087
0.00273608
0.0102329
0.00731104
0.00656362
0.006512
0.00623832
0.00611764
0.00631102
0.00680529
0.00743038
0.00797262
0.00829168
0.0083772
0.00831547
0.00818489
0.00793625
0.00737854
0.00685561
0.0068273
0.0070701
0.00733944
0.00753288
0.0076457
0.00766234
0.00754612
0.00735927
0.00712025
0.00682763
0.00648288
0.00607171
0.00558108
0.00500984
0.00438213
0.00375659
0.00321067
0.0027684
0.00246097
0.00214945
0.00226552
0.000969418
0.00300678
0.0114662
0.00977944
0.00812386
0.00721262
0.00645505
0.00617653
0.00640263
0.00699995
0.00771891
0.00829771
0.00859613
0.00864946
0.00862912
0.00872039
0.00885331
0.00886625
0.00887036
0.00901614
0.00920298
0.00932473
0.00932949
0.00922483
0.00904224
0.0087867
0.00847179
0.00810361
0.00767729
0.00718571
0.00662673
0.00601475
0.00539497
0.00484568
0.00437937
0.00400483
0.00372395
0.00346249
0.00306986
0.00297904
0.00114138
0.00305926
0.00981401
0.00893964
0.00775004
0.00661636
0.00600692
0.00603542
0.00660543
0.00748084
0.00833983
0.00891474
0.00914816
0.0092027
0.00939536
0.00978735
0.0100278
0.0101488
0.0102343
0.0103134
0.0103283
0.0102376
0.0100334
0.00973458
0.00936811
0.00895025
0.00848254
0.00795121
0.00733776
0.00664361
0.00592039
0.00526805
0.00477045
0.00448128
0.00436009
0.00427297
0.00409941
0.00362395
0.00302048
0.00302239
0.00119332
0.00298333
0.00352452
0.0038693
0.00395671
0.00421208
0.00491524
0.0060265
0.00734455
0.00856168
0.00937135
0.00965929
0.00973104
0.00999382
0.0102372
0.0104239
0.0105207
0.0105548
0.0105376
0.0104451
0.0102474
0.00993929
0.00953813
0.00907207
0.00856548
0.0080255
0.00743806
0.00677413
0.00601471
0.00519814
0.00444265
0.00386749
0.00348795
0.00322186
0.00300009
0.00278292
0.00252969
0.00223814
0.00198555
0.00176489
0.00116733
0.00137581
0.00284683
0.00561362
0.00776758
0.00924535
0.0101173
0.0104479
0.0103612
0.00998582
0.00978655
0.0097869
0.00979532
0.00975624
0.00969594
0.00960649
0.0094452
0.00918032
0.00881078
0.00836024
0.00786229
0.0073467
0.00683056
0.00631619
0.00579736
0.0052699
0.00474361
0.00425027
0.00383495
0.0035258
0.00331219
0.00315866
0.00303323
0.00291041
0.00276067
0.00255091
0.00228289
0.00191782
0.00111429
0.00185208
0.00575933
0.00810264
0.00951466
0.00985854
0.00957333
0.00901563
0.00845923
0.00800778
0.00767357
0.00742322
0.00723702
0.0071116
0.00702305
0.00693025
0.0067958
0.00660428
0.00636358
0.00609296
0.00581103
0.0055296
0.00525323
0.00498261
0.00471927
0.00446904
0.00424281
0.00405357
0.00390938
0.00380489
0.00371835
0.00362011
0.00348652
0.00330631
0.00307314
0.00274453
0.00248642
0.00211222
0.00117697
0.00170985
0.00181085
0.00188192
0.00205461
0.00199172
0.00195272
0.00186749
0.0017562
0.00162813
0.00150942
0.00141696
0.00135451
0.00131627
0.00129412
0.00128103
0.00127151
0.00126155
0.00124885
0.0012331
0.0012152
0.00119635
0.00117753
0.00115929
0.00114197
0.00112583
0.00111127
0.00109892
0.00108954
0.0010838
0.00108204
0.00108418
0.00108975
0.00109823
0.00110861
0.00111857
0.00111793
0.00108471
0.000996587
0.000965071
0.00118619
)
;

boundaryField
{
    floor
    {
        type            nutkWallFunction;
        Cmu             0.09;
        kappa           0.41;
        E               9.8;
        value           nonuniform List<scalar> 
29
(
0.000121719
4.74519e-05
5.51916e-05
6.14612e-05
6.65589e-05
6.62374e-05
6.10235e-05
5.02087e-05
4.06677e-05
3.49651e-05
3.18968e-05
2.98981e-05
2.86536e-05
2.80046e-05
2.84847e-05
3.11622e-05
3.76361e-05
5.2642e-05
7.26728e-05
5.5575e-05
5.55749e-05
6.36549e-05
8.22116e-05
8.59304e-05
0.000121719
4.74519e-05
5.24829e-05
6.08793e-05
0.000161641
)
;
    }
    ceiling
    {
        type            nutkWallFunction;
        Cmu             0.09;
        kappa           0.41;
        E               9.8;
        value           nonuniform List<scalar> 
43
(
0.00020145
0.000212594
0.000220398
0.000239351
0.000232553
0.000228317
0.000218993
0.000206739
0.000192528
0.000179244
0.000168818
0.000161733
0.000157376
0.000154847
0.000153349
0.000152259
0.000151117
0.00014966
0.00014785
0.000145791
0.000143619
0.000141444
0.000139334
0.000137327
0.000135452
0.000133759
0.000132321
0.000131226
0.000130555
0.00013035
0.000130599
0.000131251
0.000132242
0.000133452
0.000134612
0.000134536
0.000130668
0.00012034
0.000116622
0.000142443
0.00033839
0.000394469
0.000216964
)
;
    }
    sWall
    {
        type            nutkWallFunction;
        Cmu             0.09;
        kappa           0.41;
        E               9.8;
        value           uniform 0.000201505;
    }
    nWall
    {
        type            nutkWallFunction;
        Cmu             0.09;
        kappa           0.41;
        E               9.8;
        value           nonuniform List<scalar> 6(8.97497e-05 0.000117154 0.000137277 0.00013413 0.000141401 0.000142452);
    }
    sideWalls
    {
        type            empty;
    }
    glass1
    {
        type            nutkWallFunction;
        Cmu             0.09;
        kappa           0.41;
        E               9.8;
        value           nonuniform List<scalar> 9(0.000146711 0.000187251 0.000219671 0.000249897 0.000280397 0.000312776 0.000341231 0.000346725 0.000338802);
    }
    glass2
    {
        type            nutkWallFunction;
        Cmu             0.09;
        kappa           0.41;
        E               9.8;
        value           nonuniform List<scalar> 2(0.000143305 0.000140296);
    }
    sun
    {
        type            nutkWallFunction;
        Cmu             0.09;
        kappa           0.41;
        E               9.8;
        value           nonuniform List<scalar> 
14
(
0.00014657
0.000161435
0.000167186
0.000175845
0.000184233
0.000192904
0.000200583
0.000205667
0.000207218
0.000204744
0.000198015
0.00018008
0.000162868
0.000141645
)
;
    }
    heatsource1
    {
        type            nutkWallFunction;
        Cmu             0.09;
        kappa           0.41;
        E               9.8;
        value           nonuniform List<scalar> 3(9.10844e-05 9.15863e-05 8.9751e-05);
    }
    heatsource2
    {
        type            nutkWallFunction;
        Cmu             0.09;
        kappa           0.41;
        E               9.8;
        value           nonuniform List<scalar> 4(0.000150323 0.000121066 0.000121066 0.000147415);
    }
    Table_master
    {
        type            nutkWallFunction;
        Cmu             0.09;
        kappa           0.41;
        E               9.8;
        value           nonuniform List<scalar> 9(9.65657e-05 8.16593e-05 7.03434e-05 6.18924e-05 5.55447e-05 5.06045e-05 4.65334e-05 4.30211e-05 4.03384e-05);
    }
    Table_slave
    {
        type            nutkWallFunction;
        Cmu             0.09;
        kappa           0.41;
        E               9.8;
        value           nonuniform List<scalar> 9(0.000120719 0.000114031 0.000108728 0.000104247 0.000100196 9.64205e-05 9.25563e-05 8.82807e-05 8.32355e-05);
    }
    inlet
    {
        type            calculated;
        value           uniform 0.000100623;
    }
    outlet
    {
        type            calculated;
        value           nonuniform List<scalar> 2(0.00170985 0.00181085);
    }
}


// ************************************************************************* //
