/*--------------------------------*- C++ -*----------------------------------*\
  =========                 |
  \\      /  F ield         | OpenFOAM: The Open Source CFD Toolbox
   \\    /   O peration     | Website:  https://openfoam.org
    \\  /    A nd           | Version:  6
     \\/     M anipulation  |
\*---------------------------------------------------------------------------*/
FoamFile
{
    version     2.0;
    format      ascii;
    class       surfaceScalarField;
    location    "500";
    object      phi;
}
// * * * * * * * * * * * * * * * * * * * * * * * * * * * * * * * * * * * * * //

dimensions      [1 0 -1 0 0 0 0];

internalField   nonuniform List<scalar> 
852
(
-0.00312067
0.00317424
-0.00441622
0.0012954
-0.00528639
0.000870028
-0.00581191
0.000525378
-0.00595094
0.000138892
-0.00566111
-0.00028997
-0.00493178
-0.000729472
-0.00384394
-0.00108798
-0.00255244
-0.00129163
-0.00122731
-0.00132526
-2.62299e-05
-0.00120121
0.000781083
-0.000807437
0.00116325
-0.0003823
0.00101016
0.000152953
0.00101144
-0.000786687
0.000789284
-0.00102773
0.000241066
-0.000980898
-4.68094e-05
-0.000827392
-0.000153481
-0.00067925
-0.000148107
-0.00055577
-0.000123435
-0.000474941
-8.07795e-05
-0.000450033
-2.48592e-05
-0.000449092
-8.91936e-07
-0.000452107
3.0678e-06
-0.000448546
-3.50065e-06
-0.000432516
-1.59593e-05
-0.0004014
-3.10354e-05
-0.000353915
-4.73935e-05
-0.000289455
-6.43647e-05
-0.00018208
-0.000107278
0.000113018
-0.000295017
0.000427504
-0.000314416
0.000430478
-0.00224051
0.00556093
-0.00341147
0.00246621
-0.00427712
0.00173554
-0.00480524
0.00105334
-0.00495805
0.000291559
-0.0046922
-0.000555961
-0.0040179
-0.0014039
-0.00305003
-0.00205598
-0.00195681
-0.00238498
-0.000898711
-0.00238349
-6.95235e-06
-0.00209309
0.000687995
-0.0015025
0.0011265
-0.000820927
0.00137429
-9.49618e-05
0.00179345
0.000592148
0.000982438
0.000810821
0.000982241
-0.000371541
0.00116808
-0.00029929
0.000168808
-4.16642e-05
-0.000304466
0.000152584
-0.000347768
0.000288857
-0.000284417
0.000391005
-0.000225615
0.000429477
-0.000119275
0.000445713
-4.1109e-05
0.000450626
-5.80773e-06
0.000444796
8.90412e-06
0.000427094
1.42168e-05
0.000397644
1.35154e-05
0.000356604
1.00389e-05
0.000300215
9.03314e-06
0.000193498
4.23904e-05
-5.08265e-05
0.000137077
-0.000452654
0.000106779
-0.000641539
-0.000125506
-0.000203102
-0.00156365
0.00735027
-0.00251967
0.00342208
-0.00327953
0.00249524
-0.00373898
0.00151264
-0.00386186
0.000414295
-0.00357085
-0.00084712
-0.00290057
-0.00207432
-0.00202235
-0.00293434
-0.00110729
-0.00330018
-0.000279207
-0.00321169
0.000383139
-0.00275555
0.000909668
-0.00202914
0.00129259
-0.00120396
0.00156088
-0.000363365
0.0017094
0.000443502
0.00137016
0.00114993
0.00235227
0.000820762
0.000358342
0.00108784
-9.82917e-05
0.00112064
-0.000337313
0.00118167
-0.000408852
0.00123588
-0.000338696
0.00121807
-0.000207866
0.00109889
0.00105788
0.00105217
0.00106118
0.00107551
0.00108914
0.0010993
0.00110845
0.00115095
0.000874409
0.000413562
0.000340784
0.00064034
-0.000233295
0.000448722
-0.000426379
-0.00107148
0.00871629
-0.00177607
0.00412652
-0.00228474
0.00300375
-0.00258025
0.00180799
-0.00257395
0.000407847
-0.00216571
-0.00125551
-0.00148077
-0.00275941
-0.000729119
-0.00368612
-3.7737e-05
-0.00399169
0.000529408
-0.00377896
0.000963395
-0.00318965
0.00130724
-0.0023731
0.00157293
-0.00146976
0.00178742
-0.000577964
0.00198696
0.000243847
0.00223319
0.000903586
0.00324025
0.00134508
0.00253726
0.00070949
0.00255735
0.00033815
0.00245165
7.29861e-06
0.00231613
-0.000201898
0.00220081
-0.000293621
0.00214161
-0.000279589
0.00213991
-0.000206249
0.00224503
-0.000105355
0.00230774
-6.29421e-05
0.00234503
-3.75223e-05
0.00236254
-1.77302e-05
0.0023596
2.71555e-06
0.00232994
2.94454e-05
0.00225733
7.23956e-05
0.00210668
0.000150435
0.00181219
0.000294285
0.00167529
0.000550398
0.00152749
0.000788076
0.00114984
0.000826372
0.000735147
-0.000725473
0.00979555
-0.0012081
0.00460899
-0.00132284
0.00311834
-0.00136019
0.00184519
-0.00103323
8.07242e-05
-0.000403665
-0.00188523
0.000240928
-0.00340414
0.000771837
-0.00421717
0.00115797
-0.00437795
0.00142152
-0.00404263
0.00159349
-0.00336174
0.0017055
-0.00248521
0.00178835
-0.00155272
0.00188239
-0.000672106
0.00203641
8.97176e-05
0.00227849
0.000661402
0.00264838
0.000975071
0.002621
0.000736753
0.0025896
0.000369431
0.00249585
0.000100935
0.00236093
-6.70812e-05
0.00221562
-0.000148422
0.00209251
-0.000156575
0.00200384
-0.000117663
0.00196135
-6.29474e-05
0.00192193
-2.35992e-05
0.00188308
1.25728e-06
0.00184736
1.7918e-05
0.00181819
3.18244e-05
0.0017963
5.12794e-05
0.00177849
9.01591e-05
0.00176111
0.000167766
0.00175301
0.000302342
0.00180394
0.000499414
0.00190152
0.000690456
0.00193956
0.000788309
0.00201645
0.000658277
0.00157191
0.000444369
0.000955795
0.000615969
0.000999556
-0.00059452
0.0107942
-0.000854848
0.00486916
-0.00037009
0.00263342
0.000190578
0.00128437
0.000954636
-0.000683488
0.00165953
-0.00259027
0.0021199
-0.00386465
0.00234511
-0.00444251
0.00238645
-0.00441941
0.00229373
-0.00395003
0.00212712
-0.00319524
0.00193944
-0.00229764
0.00177548
-0.00138887
0.00167562
-0.000572345
0.00166828
9.69496e-05
0.00176348
0.000566098
0.00195143
0.000787009
0.00203007
0.000657991
0.0019903
0.000409087
0.00189348
0.000197651
0.00177
5.62845e-05
0.0016381
-1.66232e-05
0.00151509
-3.36541e-05
0.00141234
-1.50007e-05
0.00133268
1.6627e-05
0.0012684
4.06108e-05
0.00121817
5.14193e-05
0.00118422
5.18081e-05
0.00117001
4.59762e-05
0.00118082
4.04211e-05
0.00122316
4.77705e-05
0.00130378
8.7108e-05
0.00143239
0.000173687
0.00162792
0.000303835
0.00188425
0.000434081
0.00215703
0.000515483
0.00230573
0.000509541
0.00214991
0.000600171
0.00147466
0.00129121
0.00251795
-0.000564084
0.0118083
-0.000289781
0.0045947
0.00104098
0.0013025
0.00224312
8.2064e-05
0.00328468
-0.0017252
0.00389113
-0.00319686
0.0040638
-0.00403745
0.00388699
-0.00426581
0.00347124
-0.00400378
0.00292483
-0.00340372
0.00234786
-0.00261838
0.00181237
-0.00176225
0.00137298
-0.000949583
0.00106391
-0.000263381
0.000914445
0.000246306
0.000927695
0.000552736
0.00104169
0.0006729
0.0011121
0.000587458
0.00110034
0.000420739
0.00103344
0.000264437
0.000936997
0.000152627
0.000830502
8.97733e-05
0.000728464
6.82923e-05
0.000640459
7.29193e-05
0.000570579
8.64308e-05
0.000515467
9.56522e-05
0.000472166
9.46555e-05
0.000442756
8.11595e-05
0.000434026
5.46514e-05
0.000455975
1.84178e-05
0.000521885
-1.81914e-05
0.000644944
-3.60067e-05
0.000830194
-1.1627e-05
0.00107921
5.47447e-05
0.00137664
0.000136582
0.00169911
0.00019294
0.00202556
0.00018303
0.00227556
0.000350108
0.00191516
0.00165156
0.00447807
0.00292018
0.00939196
0.0038084
0.00370633
0.00450315
0.000607595
0.00570693
-0.00112188
0.00638248
-0.00240088
0.00641482
-0.00322932
0.00592461
-0.00354735
0.00507922
-0.00342052
0.00404158
-0.00296624
0.00295525
-0.00231749
0.00194906
-0.0016123
0.00109271
-0.000906011
0.000439101
-0.00029608
4.03482e-05
0.000135261
-0.000106323
0.000392862
-7.77248e-05
0.000524018
2.9158e-05
0.000565896
0.000110789
0.000505709
0.000133647
0.000397766
0.000106308
0.000291669
4.73605e-05
0.000211473
-2.55275e-05
0.000162568
-9.81768e-05
0.000140853
-0.00016271
0.000137369
-0.00021865
0.000142293
-0.000270203
0.000147133
-0.000321243
0.000145627
-0.000371876
0.000131725
-0.000417037
9.97405e-05
-0.000447727
4.90241e-05
-0.000455505
-1.05139e-05
-0.000429415
-6.22104e-05
-0.000359586
-8.15783e-05
-0.000273123
-3.18357e-05
-0.000239155
0.000102503
-0.000342527
0.00029622
-0.000663937
0.000504369
-0.00120214
0.00088825
-0.00153423
0.0019836
0.00316881
0.00994312
0.0136404
0.0122274
0.00202046
0.0112812
-0.000175852
0.0100469
-0.00116673
0.00851702
-0.00169947
0.00678672
-0.00181712
0.00501411
-0.00164799
0.00332091
-0.00127314
0.001794
-0.000790683
0.000529223
-0.000347632
-0.000397669
2.07693e-05
-0.000930929
0.000237062
-0.0011358
0.000340007
-0.00115172
0.000408651
-0.0010771
0.000449279
-0.000965844
0.000454513
-0.000874345
0.000414089
-0.000825385
0.000348691
-0.000816659
0.000282834
-0.000836004
0.000230715
-0.00087058
0.000197047
-0.000910888
0.000181068
-0.000953008
0.0001794
-0.000998958
0.000188158
-0.00105575
0.000203843
-0.0011335
0.000223289
-0.00124417
0.000242299
-0.00139957
0.000255031
-0.00160735
0.000256653
-0.0018689
0.000250854
-0.00218931
0.000257983
-0.00258166
0.000310565
-0.00305309
0.000439393
-0.00362186
0.000671081
-0.00435976
0.00103393
-0.00540295
0.00154737
-0.00658044
0.00206553
-0.00627399
0.00167692
-0.0028808
0.00494401
0.00383471
0.00353125
0.00123691
0.00347259
-0.00110806
0.00294277
-0.00116968
0.00195751
-0.000831918
0.000796628
-0.000487198
-0.000343807
-0.0001328
-0.00126454
0.00012994
-0.00185234
0.000240044
-0.00213131
0.00029961
-0.00221212
0.000317736
-0.00219662
0.000324368
-0.00212002
0.000331921
-0.00200977
0.000338893
-0.00189104
0.000335662
-0.00179132
0.00031424
-0.00172336
0.00028061
-0.00168599
0.000245356
-0.00167157
0.000216183
-0.00167154
0.000196913
-0.00167934
0.000188759
-0.00169154
0.000191502
-0.00170777
0.000204288
-0.00172982
0.00022578
-0.00176043
0.000253785
-0.00180264
0.000284383
-0.00185959
0.000311829
-0.00193445
0.000331328
-0.00202951
0.000345693
-0.00214263
0.000370854
-0.00226444
0.000432118
-0.00237922
0.000553922
-0.00246493
0.000756544
-0.00249773
0.00106649
-0.00239163
0.00144103
-0.00167687
0.00135053
-0.000279308
0.000279111
-0.00310863
0.000147945
0.00376031
0.000819927
0.000564996
-0.00025482
-3.32556e-05
-0.00137096
-5.35978e-05
-0.00224734
4.43835e-05
-0.00288002
0.000145375
-0.00323564
0.000222699
-0.00336737
0.000261529
-0.00338674
0.000259277
-0.00332963
0.000242365
-0.00323273
0.000220689
-0.0031138
0.000205297
-0.00298079
0.000198772
-0.0028401
0.000198065
-0.00270168
0.000197113
-0.00257848
0.000190902
-0.00247807
0.000180081
-0.00240086
0.000168021
-0.00234266
0.000157857
-0.00229754
0.000151674
-0.00225953
0.000150628
-0.0022233
0.000155153
-0.00218423
0.0001651
-0.00213834
0.000179762
-0.00208248
0.00019779
-0.00201523
0.000216985
-0.00193805
0.000234473
-0.00185502
0.000248105
-0.00176896
0.000259407
-0.00167432
0.000275969
-0.00155242
0.000309943
-0.0013696
0.000370822
-0.00106713
0.000453775
-0.000523751
0.000522818
0.000453331
0.000463653
0.00176562
3.79379e-05
0.00309157
-0.00104716
3.81735e-05
-0.00702033
-0.00981202
-0.00601518
-0.00544269
-0.00547816
-0.00553827
-0.00550326
-0.00536951
-0.00516051
-0.00491452
-0.00467232
-0.00444824
-0.00424677
-0.0040614
-0.00388316
-0.00370619
-0.00353073
-0.00336209
-0.0032049
-0.0030604
-0.00292666
-0.00279967
-0.00267424
-0.00254476
-0.00240576
-0.00225247
-0.00208148
-0.00189153
-0.00168422
-0.00146331
-0.00123099
-0.0009819
-0.000698512
-0.000353852
7.41707e-05
0.000571403
0.00100872
0.00101748
-6.12389e-05
)
;

boundaryField
{
    floor
    {
        type            calculated;
        value           nonuniform List<scalar> 
29
(
0
0
0
0
0
0
0
0
0
0
0
0
0
0
0
0
0
0
0
0
-2.82655e-06
-7.73006e-06
-9.66261e-06
-1.14869e-05
-1.42226e-06
-2.57346e-06
-7.24338e-06
-1.10193e-05
-6.62953e-06
)
;
    }
    ceiling
    {
        type            calculated;
        value           nonuniform List<scalar> 
43
(
-3.85451e-05
-3.76829e-05
-3.66332e-05
-7.61204e-06
2.0962e-06
6.38392e-06
9.23148e-06
1.14919e-05
1.35496e-05
1.53839e-05
1.69269e-05
1.814e-05
1.90639e-05
1.97821e-05
2.03831e-05
2.09426e-05
2.15144e-05
2.21214e-05
2.2753e-05
2.33824e-05
2.39851e-05
2.45469e-05
2.5063e-05
2.5534e-05
2.59599e-05
2.63355e-05
2.66475e-05
2.68766e-05
2.70018e-05
2.70079e-05
2.68901e-05
2.66538e-05
2.63123e-05
2.58963e-05
2.5464e-05
2.52683e-05
2.6004e-05
2.88399e-05
3.12701e-05
3.04361e-05
1.20499e-05
8.93489e-06
-7.35469e-05
)
;
    }
    sWall
    {
        type            calculated;
        value           uniform -0.000271335;
    }
    nWall
    {
        type            calculated;
        value           nonuniform List<scalar> 6(-4.38959e-05 -4.37056e-05 -4.49712e-05 -5.18114e-05 -5.55542e-05 -5.37122e-05);
    }
    sideWalls
    {
        type            empty;
        value           nonuniform 0();
    }
    glass1
    {
        type            calculated;
        value           nonuniform List<scalar> 9(-5.37155e-05 -0.000146335 -0.000225828 -0.00029469 -0.000353936 -0.000404244 -0.000450148 -0.000504015 -0.000563349);
    }
    glass2
    {
        type            calculated;
        value           nonuniform List<scalar> 2(-0.000224977 -0.000224676);
    }
    sun
    {
        type            calculated;
        value           uniform 0;
    }
    heatsource1
    {
        type            calculated;
        value           nonuniform List<scalar> 3(2.03112e-07 2.03316e-07 2.03588e-07);
    }
    heatsource2
    {
        type            calculated;
        value           nonuniform List<scalar> 4(5.08838e-08 5.10106e-08 0 0);
    }
    Table_master
    {
        type            calculated;
        value           nonuniform List<scalar> 9(-1.52765e-07 -1.52841e-07 -1.5286e-07 -1.52866e-07 -1.52869e-07 -1.52873e-07 -1.52879e-07 -1.52885e-07 -1.52882e-07);
    }
    Table_slave
    {
        type            calculated;
        value           nonuniform List<scalar> 9(1.52284e-07 1.52281e-07 1.52249e-07 1.52224e-07 1.52206e-07 1.52191e-07 1.52189e-07 1.52206e-07 1.52254e-07);
    }
    inlet
    {
        type            calculated;
        value           uniform -0.00675826;
    }
    outlet
    {
        type            calculated;
        value           nonuniform List<scalar> 2(0.0073301 0.00282926);
    }
}


// ************************************************************************* //
