// -*- C++ -*-
// File generated by PyFoam - sorry for the ugliness

FoamFile
{
 version 2.0;
 format ascii;
 class volVectorField;
 location "500";
 object U;
}

dimensions [ 0 1 -1 0 0 0 0 ];

internalField nonuniform List<vector> 459
(
  (0.0114563 0.0907495 0)
  (-0.179412 0.0303088 0)
  (-0.214079 0.0165058 0)
  (-0.244313 0.00601794 0)
  (-0.258335 -0.00493834 0)
  (-0.253448 -0.0164351 0)
  (-0.229418 -0.0284914 0)
  (-0.188782 -0.039111 0)
  (-0.137051 -0.0461559 0)
  (-0.0818964 -0.0487771 0)
  (-0.0317049 -0.046744 0)
  (0.0208876 -0.0308413 0)
  (0.0425454 -0.0154896 0)
  (0.0498915 0.00287849 0)
  (0.0400261 0.0334766 0)
  (-0.0085742 0.0203602 0)
  (-0.0438169 0.00355297 0)
  (-0.044044 -0.0028715 0)
  (-0.0379051 -0.00461129 0)
  (-0.0317708 -0.0036712 0)
  (-0.0257191 -0.0021059 0)
  (-0.0222442 -0.000489296 0)
  (-0.0202473 0.00011398 0)
  (-0.0196398 -0.000281188 0)
  (-0.0195497 -0.000881545 0)
  (-0.0195351 -0.0015156 0)
  (-0.019049 -0.00221238 0)
  (-0.0180323 -0.00306958 0)
  (-0.0164806 -0.0042213 0)
  (-0.0145419 -0.00575423 0)
  (-0.0111177 -0.00786902 0)
  (-0.00033971 -0.0130115 0)
  (0.0233535 -0.0158738 0)
  (-0.0344661 0.00535449 0)
  (0.174305 0.185799 0)
  (-0.158693 0.0821364 0)
  (-0.169681 0.0573723 0)
  (-0.2007 0.0355552 0)
  (-0.21524 0.0108143 0)
  (-0.211343 -0.0169624 0)
  (-0.188978 -0.0452084 0)
  (-0.152153 -0.0679622 0)
  (-0.107157 -0.0806822 0)
  (-0.060893 -0.0825107 0)
  (-0.0195752 -0.0742013 0)
  (0.0173115 -0.0519095 0)
  (0.0401729 -0.0259472 0)
  (0.0563446 0.00269186 0)
  (0.0656417 0.0340402 0)
  (0.0688632 0.0369138 0)
  (0.0470695 0.0422763 0)
  (0.0379803 0.0407103 0)
  (-0.0235679 0.0063408 0)
  (-0.0045442 -0.0106844 0)
  (0.00413304 -0.0125822 0)
  (0.0101052 -0.00988045 0)
  (0.0157653 -0.00715595 0)
  (0.0169116 -0.00401868 0)
  (0.0184176 -0.00039668 0)
  (0.0192173 0.00153424 0)
  (0.0193331 0.00217021 0)
  (0.0189176 0.00211246 0)
  (0.0178746 0.00167428 0)
  (0.0163335 0.00112519 0)
  (0.0142943 0.000728791 0)
  (0.0108732 0.000977969 0)
  (0.00270802 0.00336109 0)
  (0.000269072 -0.00674189 0)
  (-0.0163857 -0.00566137 0)
  (-0.116051 0.00562686 0)
  (0.32536 0.27672 0)
  (-0.164411 0.126823 0)
  (-0.126095 0.0906955 0)
  (-0.155765 0.0543035 0)
  (-0.169024 0.0136694 0)
  (-0.163453 -0.0312995 0)
  (-0.139758 -0.0756634 0)
  (-0.104997 -0.108722 0)
  (-0.0662955 -0.124271 0)
  (-0.0288835 -0.122555 0)
  (0.00328877 -0.105656 0)
  (0.0288136 -0.0769487 0)
  (0.0479508 -0.0441264 0)
  (0.0621276 -0.0101461 0)
  (0.0711115 0.0224374 0)
  (0.0707326 0.0436117 0)
  (0.0600147 0.0805827 0)
  (0.0968409 0.0228657 0)
  (0.0428434 -0.00422882 0)
  (0.0445783 -0.0169613 0)
  (0.0498911 -0.0190771 0)
  (0.0526652 -0.0154814 0)
  (0.0544037 -0.0116827 0)
  (0.0491035 -0.0123867 0)
  (0.045929 -0.00878806 0)
  (0.0450563 -0.0065401 0)
  (0.045328 -0.00514518 0)
  (0.0459667 -0.00427908 0)
  (0.0466378 -0.00377476 0)
  (0.0472025 -0.00350978 0)
  (0.0478816 -0.00331362 0)
  (0.0488287 -0.00126767 0)
  (0.0454503 0.0135577 0)
  (0.0373152 0.0214461 0)
  (0.0152133 0.00384626 0)
  (-0.12446 -0.0228803 0)
  (0.464943 0.349025 0)
  (-0.189302 0.164122 0)
  (-0.0815893 0.119424 0)
  (-0.108782 0.0713589 0)
  (-0.117403 0.0166201 0)
  (-0.10414 -0.0460145 0)
  (-0.0766168 -0.105861 0)
  (-0.0450021 -0.14575 0)
  (-0.0149977 -0.160931 0)
  (0.0122239 -0.153788 0)
  (0.0326417 -0.130568 0)
  (0.0489718 -0.0970641 0)
  (0.0618977 -0.0593595 0)
  (0.0723625 -0.0214633 0)
  (0.0819823 0.0143521 0)
  (0.0927616 0.0448672 0)
  (0.108182 0.0811025 0)
  (0.132667 0.0699179 0)
  (0.117395 0.02787 0)
  (0.107014 0.00548579 0)
  (0.101805 -0.00803258 0)
  (0.0971601 -0.0139526 0)
  (0.093156 -0.0135564 0)
  (0.0911651 -0.00908566 0)
  (0.0942227 -0.00642467 0)
  (0.0980088 -0.00504731 0)
  (0.100561 -0.00406745 0)
  (0.101777 -0.00330296 0)
  (0.102057 -0.00258512 0)
  (0.10136 -0.00173033 0)
  (0.0992879 -0.000470449 0)
  (0.0947742 0.00174011 0)
  (0.0868995 0.00553651 0)
  (0.0753154 0.019126 0)
  (0.0683605 0.0308326 0)
  (0.0655293 0.0306264 0)
  (-0.023216 0.0137914 0)
  (0.58925 0.403665 0)
  (-0.22564 0.192193 0)
  (-0.0386151 0.13639 0)
  (-0.0608824 0.081744 0)
  (-0.0600123 0.0156659 0)
  (-0.0288391 -0.0664338 0)
  (0.00135576 -0.136083 0)
  (0.0258865 -0.17479 0)
  (0.0436757 -0.184232 0)
  (0.0565034 -0.172121 0)
  (0.0650012 -0.144556 0)
  (0.0705878 -0.107803 0)
  (0.0745322 -0.067881 0)
  (0.078331 -0.0292631 0)
  (0.0839664 0.0054308 0)
  (0.0921565 0.0331036 0)
  (0.105675 0.0498574 0)
  (0.115949 0.0296983 0)
  (0.113882 0.0112496 0)
  (0.110007 -0.000420682 0)
  (0.10492 -0.00731538 0)
  (0.0986769 -0.010295 0)
  (0.0926233 -0.00990735 0)
  (0.0879188 -0.00746787 0)
  (0.0851862 -0.00436132 0)
  (0.0835993 -0.00217218 0)
  (0.0820914 -0.000771519 0)
  (0.0804621 0.00025298 0)
  (0.078991 0.00121867 0)
  (0.0778803 0.00246178 0)
  (0.0770497 0.00452608 0)
  (0.0763714 0.00823754 0)
  (0.0760591 0.0146738 0)
  (0.0767442 0.0248588 0)
  (0.0795057 0.0339653 0)
  (0.0870096 0.0379743 0)
  (0.0763822 0.0333639 0)
  (0.082047 0.0235908 0)
  (0.106735 0.0241747 0)
  (-0.198283 0.0351998 0)
  (0.684822 0.447234 0)
  (-0.265012 0.208277 0)
  (-0.00329986 0.132062 0)
  (-0.00878482 0.0781632 0)
  (0.0231364 -0.00819799 0)
  (0.0618853 -0.0977298 0)
  (0.0870648 -0.159211 0)
  (0.100269 -0.189724 0)
  (0.10413 -0.193216 0)
  (0.101446 -0.176065 0)
  (0.0947897 -0.145094 0)
  (0.0865469 -0.106655 0)
  (0.0787472 -0.0666365 0)
  (0.0731617 -0.0296155 0)
  (0.0710626 0.00173242 0)
  (0.0730372 0.0248413 0)
  (0.080531 0.0357441 0)
  (0.0868811 0.0272839 0)
  (0.0874165 0.0160563 0)
  (0.0841565 0.00675827 0)
  (0.0791796 0.000303758 0)
  (0.07355 -0.00309855 0)
  (0.0678625 -0.00376467 0)
  (0.0629499 -0.00266393 0)
  (0.0590141 -0.000854725 0)
  (0.0559531 0.000492608 0)
  (0.0535051 0.00126075 0)
  (0.0516932 0.00163927 0)
  (0.0506037 0.00184907 0)
  (0.0504609 0.00223684 0)
  (0.0515372 0.00340636 0)
  (0.0541242 0.00621739 0)
  (0.0586428 0.0114144 0)
  (0.065701 0.01883 0)
  (0.0754055 0.0258836 0)
  (0.0878854 0.0300662 0)
  (0.0956609 0.0277268 0)
  (0.09803 0.0243503 0)
  (0.118197 0.0439985 0)
  (-0.122451 0.0844477 0)
  (0.753463 0.486047 0)
  (-0.285235 0.188416 0)
  (0.0346216 0.0719184 0)
  (0.067031 0.0276542 0)
  (0.127047 -0.0581574 0)
  (0.162555 -0.130743 0)
  (0.177568 -0.175644 0)
  (0.175377 -0.192407 0)
  (0.160437 -0.185888 0)
  (0.137845 -0.162595 0)
  (0.112423 -0.12918 0)
  (0.0878356 -0.0910529 0)
  (0.0667772 -0.0532935 0)
  (0.0510161 -0.0200048 0)
  (0.0407133 0.00650082 0)
  (0.0386107 0.0237213 0)
  (0.0427371 0.030843 0)
  (0.0471482 0.0264264 0)
  (0.048273 0.0179924 0)
  (0.0463771 0.0102128 0)
  (0.042635 0.00475235 0)
  (0.0381199 0.00182787 0)
  (0.0335645 0.00098585 0)
  (0.0293802 0.00145234 0)
  (0.0259747 0.00237088 0)
  (0.023334 0.00300351 0)
  (0.0212189 0.0031377 0)
  (0.0196141 0.00279767 0)
  (0.0187149 0.00208145 0)
  (0.018915 0.00122793 0)
  (0.0206809 0.000716148 0)
  (0.0245129 0.00131224 0)
  (0.0312492 0.00381931 0)
  (0.0408775 0.00791232 0)
  (0.0528728 0.0118468 0)
  (0.0664808 0.0134805 0)
  (0.0801869 0.0099049 0)
  (0.0951508 0.00701932 0)
  (0.126339 0.0437207 0)
  (-0.0791999 0.140099 0)
  (0.861517 0.478035 0)
  (-0.0339624 0.162375 0)
  (0.127158 -0.0200045 0)
  (0.23362 -0.0897284 0)
  (0.276543 -0.129524 0)
  (0.284498 -0.15973 0)
  (0.270637 -0.174877 0)
  (0.239672 -0.172678 0)
  (0.197141 -0.15539 0)
  (0.149646 -0.127515 0)
  (0.103485 -0.0944483 0)
  (0.0627366 -0.0599071 0)
  (0.030458 -0.0277768 0)
  (0.00756033 -0.00166932 0)
  (-0.00392357 0.015396 0)
  (-0.00478867 0.0241693 0)
  (-0.000817956 0.0270974 0)
  (0.00359899 0.0237368 0)
  (0.00575021 0.0177404 0)
  (0.00548446 0.0120957 0)
  (0.00346155 0.00799872 0)
  (0.000481684 0.00562473 0)
  (-0.00275008 0.00470037 0)
  (-0.00572601 0.00467918 0)
  (-0.00829059 0.00497344 0)
  (-0.0105591 0.00513206 0)
  (-0.0127443 0.00489988 0)
  (-0.0149395 0.00408629 0)
  (-0.0170437 0.00252532 0)
  (-0.018754 0.000187629 0)
  (-0.0195518 -0.00267681 0)
  (-0.0194562 -0.00549859 0)
  (-0.0177904 -0.00753258 0)
  (-0.0134333 -0.00780985 0)
  (-0.0106653 -0.00575066 0)
  (-0.0131494 -0.00139063 0)
  (-0.0182186 0.00805223 0)
  (-0.00943787 0.0413149 0)
  (-0.0377205 0.120597 0)
  (-0.43851 0.212006 0)
  (1.01285 0.423769 0)
  (0.486538 0.27956 0)
  (0.500331 0.164449 0)
  (0.518123 0.05904 0)
  (0.472454 -0.0231691 0)
  (0.403127 -0.0783818 0)
  (0.329219 -0.104892 0)
  (0.253334 -0.107584 0)
  (0.178086 -0.0934769 0)
  (0.107667 -0.0695528 0)
  (0.0473743 -0.0424698 0)
  (-0.00165911 -0.0155569 0)
  (-0.0335281 0.0038893 0)
  (-0.0470592 0.0137886 0)
  (-0.0504812 0.0192146 0)
  (-0.0485282 0.0220757 0)
  (-0.0439352 0.0226356 0)
  (-0.0392956 0.0204394 0)
  (-0.0362824 0.0168169 0)
  (-0.0351635 0.01324 0)
  (-0.0355318 0.0104807 0)
  (-0.0368072 0.00873244 0)
  (-0.0384851 0.00788275 0)
  (-0.0402628 0.00767667 0)
  (-0.042109 0.00784196 0)
  (-0.0442343 0.00813901 0)
  (-0.0470104 0.00836153 0)
  (-0.0509061 0.0082695 0)
  (-0.0564729 0.00760466 0)
  (-0.0642719 0.00630953 0)
  (-0.0745287 0.00485629 0)
  (-0.0869233 0.00431979 0)
  (-0.102205 0.00632052 0)
  (-0.120911 0.0122098 0)
  (-0.143387 0.0222262 0)
  (-0.171938 0.0358887 0)
  (-0.205013 0.051103 0)
  (-0.238413 0.0620736 0)
  (-0.306922 0.0585644 0)
  (-0.523543 0.0157683 0)
  (-0.0834267 0.0367898 0)
  (0.10389 -0.0338169 0)
  (0.173701 -0.084495 0)
  (0.146743 -0.0836556 0)
  (0.107212 -0.0668252 0)
  (0.0610032 -0.0464512 0)
  (0.0103848 -0.0238641 0)
  (-0.0387287 -0.00302195 0)
  (-0.0706477 0.00885539 0)
  (-0.0887797 0.0152033 0)
  (-0.0951177 0.0175235 0)
  (-0.0960483 0.0185843 0)
  (-0.0936685 0.0194629 0)
  (-0.0893087 0.0200492 0)
  (-0.0840639 0.0199484 0)
  (-0.0791988 0.0187925 0)
  (-0.0755906 0.017032 0)
  (-0.0734088 0.0153203 0)
  (-0.0723985 0.0140797 0)
  (-0.0721748 0.0134689 0)
  (-0.0723947 0.0134813 0)
  (-0.07284 0.0140314 0)
  (-0.0734378 0.0150142 0)
  (-0.07423 0.0163175 0)
  (-0.0753209 0.0178054 0)
  (-0.0768388 0.0192683 0)
  (-0.0789327 0.0204074 0)
  (-0.081778 0.0209608 0)
  (-0.0855103 0.0210442 0)
  (-0.0900613 0.0214557 0)
  (-0.0951447 0.0235438 0)
  (-0.100151 0.0288447 0)
  (-0.104291 0.0388331 0)
  (-0.106643 0.054387 0)
  (-0.104079 0.0732767 0)
  (-0.0911471 0.0825149 0)
  (-0.0706377 0.0439265 0)
  (-0.108937 -0.189043 0)
  (0.0843892 0.173861 0)
  (0.0505392 0.0258778 0)
  (0.0155361 -0.0365419 0)
  (-0.0382199 -0.0354134 0)
  (-0.0795685 -0.0232895 0)
  (-0.112581 -0.0146403 0)
  (-0.134131 -0.00927082 0)
  (-0.14401 -0.00761765 0)
  (-0.146856 -0.00879858 0)
  (-0.145777 -0.0106671 0)
  (-0.142138 -0.0128018 0)
  (-0.137349 -0.0146728 0)
  (-0.131804 -0.0160581 0)
  (-0.125757 -0.0172677 0)
  (-0.119586 -0.018854 0)
  (-0.113863 -0.021245 0)
  (-0.109047 -0.0243526 0)
  (-0.105273 -0.0278221 0)
  (-0.102426 -0.0312874 0)
  (-0.100267 -0.0344588 0)
  (-0.0985311 -0.037128 0)
  (-0.0969728 -0.0391588 0)
  (-0.0953792 -0.0404713 0)
  (-0.093563 -0.0410341 0)
  (-0.0913635 -0.04087 0)
  (-0.088679 -0.0400784 0)
  (-0.0855247 -0.0388241 0)
  (-0.0820552 -0.0372225 0)
  (-0.0784517 -0.0350953 0)
  (-0.0746589 -0.0317945 0)
  (-0.0700875 -0.0264296 0)
  (-0.0633154 -0.0184162 0)
  (-0.0520284 -0.00803817 0)
  (-0.0341371 0.00302097 0)
  (-0.00734909 0.010668 0)
  (0.0335999 -0.0106705 0)
  (0.133838 -0.0579514 0)
  (-0.00907814 -0.12888 0)
  (-0.0298194 -0.310938 0)
  (-0.401914 -0.118268 0)
  (-0.287777 0.0735763 0)
  (-0.269438 0.0273522 0)
  (-0.239414 0.0384806 0)
  (-0.238731 0.0510736 0)
  (-0.239288 0.0601009 0)
  (-0.235301 0.0682676 0)
  (-0.227773 0.0765005 0)
  (-0.217745 0.0838258 0)
  (-0.207153 0.0899777 0)
  (-0.197085 0.0953433 0)
  (-0.187936 0.100127 0)
  (-0.179635 0.104606 0)
  (-0.171785 0.109082 0)
  (-0.164055 0.113881 0)
  (-0.156368 0.119278 0)
  (-0.148898 0.125381 0)
  (-0.141872 0.132091 0)
  (-0.135397 0.139162 0)
  (-0.129441 0.146304 0)
  (-0.123864 0.153259 0)
  (-0.118461 0.159842 0)
  (-0.112997 0.165938 0)
  (-0.107229 0.171476 0)
  (-0.100931 0.176401 0)
  (-0.0939201 0.180654 0)
  (-0.086095 0.184183 0)
  (-0.0774767 0.186936 0)
  (-0.0681918 0.188845 0)
  (-0.0583556 0.189793 0)
  (-0.0478962 0.189643 0)
  (-0.0364638 0.188419 0)
  (-0.0234245 0.18656 0)
  (-0.00754782 0.184418 0)
  (0.0125265 0.182338 0)
  (0.0314229 0.183178 0)
  (0.0349673 0.19785 0)
  (0.181796 0.164541 0)
  (-0.470554 0.290526 0)
)
;

boundaryField
{
  floor
  {
    type noSlip;
  }
  ceiling
  {
    type noSlip;
  }
  sWall
  {
    type noSlip;
  }
  nWall
  {
    type noSlip;
  }
  sideWalls
  {
    type empty;
  }
  glass1
  {
    type noSlip;
  }
  glass2
  {
    type noSlip;
  }
  sun
  {
    type noSlip;
  }
  heatsource1
  {
    type noSlip;
  }
  heatsource2
  {
    type noSlip;
  }
  Table_master
  {
    type noSlip;
  }
  Table_slave
  {
    type noSlip;
  }
  inlet
  {
    type fixedValue;
    value uniform (0.3 0 0);
  }
  outlet
  {
    type zeroGradient;
  }
} 	// ************************************************************************* //

