// -*- C++ -*-
// File generated by PyFoam - sorry for the ugliness

FoamFile
{
 version 2.0;
 format ascii;
 class volVectorField;
 location "500";
 object U;
}

dimensions [ 0 1 -1 0 0 0 0 ];

internalField nonuniform List<vector> 459
(
  (0.104051 0.062342 0)
  (-0.130082 -0.0025459 0)
  (-0.0989996 -0.00103059 0)
  (-0.101318 0.00133911 0)
  (-0.105335 0.00184826 0)
  (-0.109602 0.00140376 0)
  (-0.113035 0.000382929 0)
  (-0.114915 -0.00109691 0)
  (-0.114615 -0.00302464 0)
  (-0.111473 -0.00549249 0)
  (-0.104536 -0.00859556 0)
  (-0.0923985 -0.0125246 0)
  (-0.0743103 -0.017944 0)
  (-0.0550989 -0.0260436 0)
  (-0.0541139 -0.0357408 0)
  (0.0335049 0.0105408 0)
  (-0.0309648 -0.00541811 0)
  (-0.0147676 -0.00580859 0)
  (-0.0104872 -0.0036298 0)
  (-0.00821426 -0.00214538 0)
  (-0.00683453 -0.00195 0)
  (-0.00298038 -0.00476693 0)
  (0.00369554 -0.0063722 0)
  (0.0117925 -0.00604692 0)
  (0.018511 -0.00520159 0)
  (0.0237559 -0.00423 0)
  (0.0273391 -0.00330004 0)
  (0.0293006 -0.00233059 0)
  (0.0295238 -0.000793039 0)
  (0.0279431 0.000710531 0)
  (0.0257073 6.97468e-05 0)
  (0.0261079 -0.00492915 0)
  (0.0327043 -0.00664826 0)
  (-0.016396 0.0100701 0)
  (0.298135 0.137341 0)
  (-0.154438 0.00840825 0)
  (-0.0909718 0.00212398 0)
  (-0.0987076 0.00561078 0)
  (-0.103839 0.00680412 0)
  (-0.108374 0.00623531 0)
  (-0.111902 0.00447976 0)
  (-0.11404 0.00175988 0)
  (-0.11432 -0.00189804 0)
  (-0.11228 -0.00655981 0)
  (-0.107328 -0.0122712 0)
  (-0.098655 -0.019113 0)
  (-0.0858368 -0.0275921 0)
  (-0.0701204 -0.0385932 0)
  (-0.0545294 -0.0506998 0)
  (-0.0392654 -0.0554684 0)
  (0.0268591 0.00603073 0)
  (0.127143 0.0249371 0)
  (-0.0244189 0.000857494 0)
  (-0.00360279 -0.00448354 0)
  (-0.00331724 -0.0034337 0)
  (-0.00223639 -0.0011083 0)
  (-0.00382999 0.00281776 0)
  (-0.00364961 -0.0062574 0)
  (-0.00484497 -0.00937283 0)
  (-0.00322008 -0.0080881 0)
  (-0.00236508 -0.00587902 0)
  (-0.00192311 -0.00335154 0)
  (-0.00201733 -0.00070996 0)
  (-0.00290105 0.00213391 0)
  (-0.00555583 0.00449827 0)
  (-0.00741603 0.005072 0)
  (-0.00722071 0.00330818 0)
  (-0.00144043 0.00156961 0)
  (-0.0115306 0.00898129 0)
  (-0.0998029 0.0264087 0)
  (0.454912 0.20909 0)
  (-0.19565 0.0312438 0)
  (-0.0757007 0.0116238 0)
  (-0.0908418 0.0113958 0)
  (-0.0975191 0.011444 0)
  (-0.102323 0.00985029 0)
  (-0.106026 0.00686389 0)
  (-0.108603 0.00259941 0)
  (-0.109852 -0.00291772 0)
  (-0.109477 -0.00974588 0)
  (-0.107352 -0.0179933 0)
  (-0.10325 -0.027673 0)
  (-0.0972487 -0.0387989 0)
  (-0.0899594 -0.0508176 0)
  (-0.0823345 -0.060944 0)
  (-0.0767724 -0.0638663 0)
  (-0.0819102 -0.0581892 0)
  (0.111115 0.0297798 0)
  (-0.0440229 0.010393 0)
  (-0.0290758 0.00298233 0)
  (-0.0305099 -0.00286085 0)
  (-0.0291063 -0.00768724 0)
  (-0.027174 -0.011957 0)
  (0.00922194 -0.00827232 0)
  (-0.0150689 -0.0127499 0)
  (-0.0249785 -0.0112697 0)
  (-0.0325021 -0.00937327 0)
  (-0.037748 -0.00782699 0)
  (-0.0409082 -0.00659346 0)
  (-0.0419124 -0.00545598 0)
  (-0.0402765 -0.00444267 0)
  (-0.0359441 -0.00434874 0)
  (-0.0272443 -0.00286481 0)
  (-0.0152922 0.00285657 0)
  (-0.019344 0.00574656 0)
  (-0.110233 0.00676944 0)
  (0.577781 0.26746 0)
  (-0.233315 0.0587879 0)
  (-0.0579518 0.0242179 0)
  (-0.0797032 0.0189997 0)
  (-0.0883927 0.0169723 0)
  (-0.0928159 0.0140931 0)
  (-0.0959733 0.0101127 0)
  (-0.0982517 0.00487143 0)
  (-0.0998005 -0.00171782 0)
  (-0.100515 -0.00965362 0)
  (-0.10081 -0.0189086 0)
  (-0.101015 -0.0293534 0)
  (-0.101686 -0.0405962 0)
  (-0.103598 -0.0514056 0)
  (-0.108013 -0.0588584 0)
  (-0.117846 -0.0576958 0)
  (-0.133361 -0.0383188 0)
  (-0.1277 0.0127319 0)
  (-0.0818316 0.0180833 0)
  (-0.0933492 0.013871 0)
  (-0.083715 0.00382798 0)
  (-0.0844366 -0.00356925 0)
  (-0.0868714 -0.00966117 0)
  (-0.091082 -0.0133041 0)
  (-0.0899417 -0.00865676 0)
  (-0.0813327 -0.00765411 0)
  (-0.0734218 -0.00761545 0)
  (-0.0658501 -0.00745156 0)
  (-0.0587452 -0.00710268 0)
  (-0.052254 -0.00665916 0)
  (-0.0461603 -0.00638639 0)
  (-0.0399278 -0.00667313 0)
  (-0.0333621 -0.00757611 0)
  (-0.0279748 -0.00805078 0)
  (-0.0168663 -0.00461088 0)
  (0.000557239 -0.00198964 0)
  (-0.0590528 -0.00102545 0)
  (0.671131 0.314692 0)
  (-0.262355 0.0887182 0)
  (-0.0417901 0.0376597 0)
  (-0.0646826 0.0275046 0)
  (-0.0760488 0.0221713 0)
  (-0.079706 0.0173704 0)
  (-0.0812973 0.0122624 0)
  (-0.0819202 0.00637438 0)
  (-0.0821133 -0.000569593 0)
  (-0.0822265 -0.00856973 0)
  (-0.0829866 -0.0173823 0)
  (-0.0849633 -0.0268422 0)
  (-0.0887032 -0.0365546 0)
  (-0.0946389 -0.0455639 0)
  (-0.103107 -0.05219 0)
  (-0.113928 -0.0538952 0)
  (-0.123733 -0.0462518 0)
  (-0.126058 -0.0246403 0)
  (-0.116867 -0.00335643 0)
  (-0.105511 0.00465483 0)
  (-0.0956841 0.00102045 0)
  (-0.0912162 -0.00381418 0)
  (-0.0894152 -0.00842552 0)
  (-0.0888893 -0.0111059 0)
  (-0.0870134 -0.0103345 0)
  (-0.0832774 -0.0102769 0)
  (-0.0791946 -0.0101729 0)
  (-0.0751581 -0.00983466 0)
  (-0.0712791 -0.00922211 0)
  (-0.0675656 -0.00854083 0)
  (-0.0638342 -0.00830055 0)
  (-0.0597086 -0.00928186 0)
  (-0.0546472 -0.012192 0)
  (-0.0472547 -0.01684 0)
  (-0.0347208 -0.0214897 0)
  (-0.0137827 -0.0271847 0)
  (0.0163884 -0.0351451 0)
  (0.0566769 -0.0471895 0)
  (0.103445 -0.0214194 0)
  (-0.04481 0.0365551 0)
  (0.727073 0.356417 0)
  (-0.28431 0.114597 0)
  (-0.0301595 0.0431327 0)
  (-0.0401756 0.0360698 0)
  (-0.0552515 0.0284935 0)
  (-0.060252 0.0196306 0)
  (-0.0604198 0.0123404 0)
  (-0.0587267 0.00569123 0)
  (-0.0562382 -0.00117793 0)
  (-0.0545423 -0.00842489 0)
  (-0.0543527 -0.0157977 0)
  (-0.0562992 -0.0232675 0)
  (-0.0607525 -0.0306429 0)
  (-0.067745 -0.0372373 0)
  (-0.0769537 -0.0417004 0)
  (-0.087297 -0.0419946 0)
  (-0.0959048 -0.0359395 0)
  (-0.099219 -0.0241257 0)
  (-0.0959382 -0.0120934 0)
  (-0.0889772 -0.00583254 0)
  (-0.082455 -0.0054775 0)
  (-0.0784239 -0.00754484 0)
  (-0.0764213 -0.0102863 0)
  (-0.0756097 -0.0121815 0)
  (-0.0747993 -0.0126296 0)
  (-0.073616 -0.0128391 0)
  (-0.0724089 -0.0127875 0)
  (-0.0714037 -0.0123561 0)
  (-0.0707556 -0.0115785 0)
  (-0.0705837 -0.0107642 0)
  (-0.0709184 -0.010608 0)
  (-0.0716338 -0.0121459 0)
  (-0.0723192 -0.0163793 0)
  (-0.0717306 -0.0238008 0)
  (-0.0675244 -0.0345707 0)
  (-0.057403 -0.0497376 0)
  (-0.0415666 -0.0680699 0)
  (-0.0238546 -0.0790552 0)
  (0.0625715 -0.0182519 0)
  (-0.0943112 0.0960807 0)
  (0.743195 0.395157 0)
  (-0.290432 0.10954 0)
  (-0.00969964 0.0115362 0)
  (0.0117173 0.0383404 0)
  (-0.00845403 0.0408718 0)
  (-0.0222296 0.0225541 0)
  (-0.0246989 0.00948825 0)
  (-0.0228723 0.0014977 0)
  (-0.018918 -0.00490038 0)
  (-0.0164732 -0.0104028 0)
  (-0.0158001 -0.0153792 0)
  (-0.0175811 -0.0201122 0)
  (-0.0221369 -0.0248396 0)
  (-0.0293175 -0.02929 0)
  (-0.0384795 -0.0325243 0)
  (-0.048349 -0.0330123 0)
  (-0.0567015 -0.029416 0)
  (-0.061293 -0.0224948 0)
  (-0.061434 -0.0152185 0)
  (-0.0587126 -0.0107263 0)
  (-0.0555795 -0.00943643 0)
  (-0.0534814 -0.00998027 0)
  (-0.0526219 -0.0112911 0)
  (-0.0526866 -0.0124146 0)
  (-0.0531087 -0.0129442 0)
  (-0.0536288 -0.0130949 0)
  (-0.0543282 -0.0127916 0)
  (-0.0553501 -0.0119006 0)
  (-0.056943 -0.0103972 0)
  (-0.0595544 -0.00855128 0)
  (-0.0638617 -0.00716606 0)
  (-0.0705549 -0.00763609 0)
  (-0.0798634 -0.0113526 0)
  (-0.0910342 -0.0190951 0)
  (-0.103009 -0.0316753 0)
  (-0.114535 -0.0500037 0)
  (-0.122196 -0.071073 0)
  (-0.120397 -0.0787875 0)
  (-0.110538 -0.0307865 0)
  (-0.164658 0.172099 0)
  (0.839394 0.413437 0)
  (-0.096643 0.080668 0)
  (0.0752228 -0.0552452 0)
  (0.122218 0.00903863 0)
  (0.0869238 0.0357666 0)
  (0.0560441 0.022024 0)
  (0.0449431 0.00537507 0)
  (0.0406047 -0.00430722 0)
  (0.0369072 -0.0098932 0)
  (0.0350543 -0.0134101 0)
  (0.0329217 -0.0157425 0)
  (0.0295871 -0.017475 0)
  (0.0244194 -0.0192511 0)
  (0.0172378 -0.0213123 0)
  (0.00839035 -0.0232612 0)
  (-0.00134457 -0.0241039 0)
  (-0.00993497 -0.0226703 0)
  (-0.0158335 -0.0191701 0)
  (-0.0186431 -0.015127 0)
  (-0.0192168 -0.0121764 0)
  (-0.0190108 -0.0108002 0)
  (-0.0190504 -0.0105756 0)
  (-0.0197078 -0.010977 0)
  (-0.0209559 -0.0114677 0)
  (-0.0225395 -0.0117332 0)
  (-0.0242712 -0.0116888 0)
  (-0.0260949 -0.0111516 0)
  (-0.0279887 -0.00988169 0)
  (-0.0300156 -0.00765898 0)
  (-0.0324645 -0.00439965 0)
  (-0.0359552 -0.000319106 0)
  (-0.0416407 0.00379437 0)
  (-0.0526739 0.00584803 0)
  (-0.0722402 0.00213949 0)
  (-0.101885 -0.0108674 0)
  (-0.139003 -0.0329965 0)
  (-0.177139 -0.0596811 0)
  (-0.216361 -0.0861253 0)
  (-0.27452 -0.103705 0)
  (-0.528565 -0.099405 0)
  (0.975156 0.385709 0)
  (0.463017 0.221579 0)
  (0.331711 0.140458 0)
  (0.334922 0.138004 0)
  (0.236619 0.116195 0)
  (0.169496 0.0778989 0)
  (0.141683 0.0450003 0)
  (0.126658 0.0227928 0)
  (0.113482 0.00824071 0)
  (0.101037 -0.00144154 0)
  (0.0909938 -0.00713227 0)
  (0.0827359 -0.0100124 0)
  (0.0751191 -0.0113945 0)
  (0.0673506 -0.0122386 0)
  (0.0590699 -0.012971 0)
  (0.0504234 -0.0135334 0)
  (0.0422154 -0.0134201 0)
  (0.0354135 -0.0123257 0)
  (0.0305218 -0.0106497 0)
  (0.0272648 -0.00912306 0)
  (0.0248951 -0.00815629 0)
  (0.0227681 -0.00774918 0)
  (0.0205248 -0.00772553 0)
  (0.0180438 -0.00785307 0)
  (0.0153868 -0.0079396 0)
  (0.0126632 -0.00784946 0)
  (0.00998025 -0.00739569 0)
  (0.00748772 -0.00633167 0)
  (0.00537443 -0.00437782 0)
  (0.00381702 -0.0012841 0)
  (0.00305997 0.00313308 0)
  (0.0029032 0.00884272 0)
  (0.00321218 0.0150715 0)
  (0.00334866 0.0194991 0)
  (0.0030815 0.0191184 0)
  (0.00319266 0.0120594 0)
  (0.000793021 -0.00137828 0)
  (0.00737152 -0.0176133 0)
  (0.0829507 -0.0868581 0)
  (-0.42319 -0.209101 0)
  (-1.35876 0.0969773 0)
  (0.132817 0.156331 0)
  (0.0842343 0.108834 0)
  (0.0927728 0.0719522 0)
  (0.11471 0.0447675 0)
  (0.127864 0.0269331 0)
  (0.13096 0.0163506 0)
  (0.129499 0.0106254 0)
  (0.126188 0.00784485 0)
  (0.122247 0.00647382 0)
  (0.11779 0.00611619 0)
  (0.112855 0.00614123 0)
  (0.107383 0.00601401 0)
  (0.101312 0.00543 0)
  (0.0948248 0.0045223 0)
  (0.0883953 0.00363269 0)
  (0.0825257 0.00291353 0)
  (0.077436 0.0022675 0)
  (0.0730272 0.00156407 0)
  (0.0690838 0.000764936 0)
  (0.065387 -6.51246e-05 0)
  (0.0617871 -0.000852183 0)
  (0.0582425 -0.0015137 0)
  (0.0547751 -0.00195589 0)
  (0.0514518 -0.0020466 0)
  (0.0484147 -0.00160598 0)
  (0.0459078 -0.000414525 0)
  (0.04429 0.00173776 0)
  (0.0439622 0.00487644 0)
  (0.0452172 0.00875037 0)
  (0.0485051 0.0125532 0)
  (0.0536338 0.0139149 0)
  (0.0597615 0.00974322 0)
  (0.0663942 -0.0020443 0)
  (0.0697773 -0.0196072 0)
  (0.0727591 -0.0412376 0)
  (0.120453 -0.0796352 0)
  (-0.109189 -0.144462 0)
  (-0.608133 0.109864 0)
  (0.218372 0.0696733 0)
  (0.0892419 0.0316938 0)
  (0.0908653 0.0158927 0)
  (0.120665 -0.000537779 0)
  (0.142131 -0.0163236 0)
  (0.152205 -0.0301642 0)
  (0.156017 -0.0423415 0)
  (0.156958 -0.0527433 0)
  (0.155911 -0.0607099 0)
  (0.153391 -0.0667442 0)
  (0.149795 -0.071052 0)
  (0.145432 -0.0732821 0)
  (0.140485 -0.0736006 0)
  (0.135132 -0.0723613 0)
  (0.129635 -0.0700515 0)
  (0.124319 -0.0672364 0)
  (0.11941 -0.0644221 0)
  (0.114945 -0.061928 0)
  (0.110833 -0.0598542 0)
  (0.107009 -0.0579106 0)
  (0.103381 -0.0560971 0)
  (0.0998951 -0.0544229 0)
  (0.0965348 -0.0528454 0)
  (0.0933306 -0.0512889 0)
  (0.090387 -0.0496587 0)
  (0.0879112 -0.047851 0)
  (0.086271 -0.045721 0)
  (0.0858996 -0.0425388 0)
  (0.0870478 -0.0384074 0)
  (0.0900641 -0.0346982 0)
  (0.0946376 -0.0337404 0)
  (0.0996628 -0.0373001 0)
  (0.102494 -0.0432779 0)
  (0.0996888 -0.0511188 0)
  (0.0883589 -0.0604635 0)
  (0.115923 -0.0753457 0)
  (-0.182789 -0.0896017 0)
  (0.607055 0.168807 0)
  (0.159983 -0.216624 0)
  (-0.258722 0.16289 0)
  (0.18679 0.0936537 0)
  (0.164755 0.0895505 0)
  (0.143875 0.100002 0)
  (0.154962 0.110725 0)
  (0.16795 0.123476 0)
  (0.173225 0.138295 0)
  (0.17327 0.154197 0)
  (0.171347 0.169768 0)
  (0.168965 0.183548 0)
  (0.16671 0.195202 0)
  (0.164797 0.204294 0)
  (0.163338 0.209791 0)
  (0.162374 0.211598 0)
  (0.161814 0.210125 0)
  (0.161494 0.206131 0)
  (0.161236 0.200568 0)
  (0.160865 0.194374 0)
  (0.160219 0.188278 0)
  (0.159189 0.182713 0)
  (0.157694 0.177474 0)
  (0.155803 0.172658 0)
  (0.153612 0.168349 0)
  (0.151226 0.164521 0)
  (0.148771 0.161082 0)
  (0.146398 0.1579 0)
  (0.144292 0.154836 0)
  (0.142703 0.151739 0)
  (0.141818 0.147659 0)
  (0.141986 0.142439 0)
  (0.143281 0.136851 0)
  (0.144999 0.13212 0)
  (0.145273 0.12866 0)
  (0.141093 0.123693 0)
  (0.130154 0.117215 0)
  (0.109372 0.110177 0)
  (0.134667 0.0958932 0)
  (-0.248016 0.0950126 0)
)
;

boundaryField
{
  floor
  {
    type noSlip;
  }
  ceiling
  {
    type noSlip;
  }
  sWall
  {
    type noSlip;
  }
  nWall
  {
    type noSlip;
  }
  sideWalls
  {
    type empty;
  }
  glass1
  {
    type noSlip;
  }
  glass2
  {
    type noSlip;
  }
  sun
  {
    type noSlip;
  }
  heatsource1
  {
    type noSlip;
  }
  heatsource2
  {
    type noSlip;
  }
  Table_master
  {
    type noSlip;
  }
  Table_slave
  {
    type noSlip;
  }
  inlet
  {
    type fixedValue;
    value uniform (0.0382683 -0.092388 0);
  }
  outlet
  {
    type zeroGradient;
  }
} 	// ************************************************************************* //

